<?xml version="1.0" encoding="utf-8"?>
<VTKFile byte_order="LittleEndian" type="UnstructuredGrid" version="0.1">
   <UnstructuredGrid>
      <Piece NumberOfCells="1296" NumberOfPoints="685">
         <Points>
            <DataArray Name="Points" NumberOfComponents="3" format="ascii" type="Float32">
0.0000 0.0000 0.0000
0.0000 0.1111 0.0000
0.0000 0.2222 0.0000
0.0000 0.3333 0.0000
0.0000 0.4444 0.0000
0.0000 0.5556 0.0000
0.0000 0.6667 0.0000
0.0000 0.7778 0.0000
0.0000 0.8889 0.0000
0.0000 1.0000 0.0000
0.2222 0.0000 0.0000
0.2222 0.1111 0.0000
0.2222 0.2222 0.0000
0.2222 0.3333 0.0000
0.2222 0.4444 0.0000
0.2222 0.5556 0.0000
0.2222 0.6667 0.0000
0.2222 0.7778 0.0000
0.2222 0.8889 0.0000
0.2222 1.0000 0.0000
0.4444 0.0000 0.0000
0.4444 0.1111 0.0000
0.4444 0.2222 0.0000
0.4444 0.3333 0.0000
0.4444 0.4444 0.0000
0.4444 0.5556 0.0000
0.4444 0.6667 0.0000
0.4444 0.7778 0.0000
0.4444 0.8889 0.0000
0.4444 1.0000 0.0000
0.6667 0.0000 0.0000
0.6667 0.1111 0.0000
0.6667 0.2222 0.0000
0.6667 0.3333 0.0000
0.6667 0.4444 0.0000
0.6667 0.5556 0.0000
0.6667 0.6667 0.0000
0.6667 0.7778 0.0000
0.6667 0.8889 0.0000
0.6667 1.0000 0.0000
0.8889 0.0000 0.0000
0.8889 0.1111 0.0000
0.8889 0.2222 0.0000
0.8889 0.3333 0.0000
0.8889 0.4444 0.0000
0.8889 0.5556 0.0000
0.8889 0.6667 0.0000
0.8889 0.7778 0.0000
0.8889 0.8889 0.0000
0.8889 1.0000 0.0000
1.1111 0.0000 0.0000
1.1111 0.1111 0.0000
1.1111 0.2222 0.0000
1.1111 0.3333 0.0000
1.1111 0.4444 0.0000
1.1111 0.5556 0.0000
1.1111 0.6667 0.0000
1.1111 0.7778 0.0000
1.1111 0.8889 0.0000
1.1111 1.0000 0.0000
1.3333 0.0000 0.0000
1.3333 0.1111 0.0000
1.3333 0.2222 0.0000
1.3333 0.3333 0.0000
1.3333 0.4444 0.0000
1.3333 0.5556 0.0000
1.3333 0.6667 0.0000
1.3333 0.7778 0.0000
1.3333 0.8889 0.0000
1.3333 1.0000 0.0000
1.5556 0.0000 0.0000
1.5556 0.1111 0.0000
1.5556 0.2222 0.0000
1.5556 0.3333 0.0000
1.5556 0.4444 0.0000
1.5556 0.5556 0.0000
1.5556 0.6667 0.0000
1.5556 0.7778 0.0000
1.5556 0.8889 0.0000
1.5556 1.0000 0.0000
1.7778 0.0000 0.0000
1.7778 0.1111 0.0000
1.7778 0.2222 0.0000
1.7778 0.3333 0.0000
1.7778 0.4444 0.0000
1.7778 0.5556 0.0000
1.7778 0.6667 0.0000
1.7778 0.7778 0.0000
1.7778 0.8889 0.0000
1.7778 1.0000 0.0000
2.0000 0.0000 0.0000
2.0000 0.1111 0.0000
2.0000 0.2222 0.0000
2.0000 0.3333 0.0000
2.0000 0.4444 0.0000
2.0000 0.5556 0.0000
2.0000 0.6667 0.0000
2.0000 0.7778 0.0000
2.0000 0.8889 0.0000
2.0000 1.0000 0.0000
0.1111 0.0556 0.0000
0.1111 0.1667 0.0000
0.1111 0.2778 0.0000
0.1111 0.3889 0.0000
0.1111 0.5000 0.0000
0.1111 0.6111 0.0000
0.1111 0.7222 0.0000
0.1111 0.8333 0.0000
0.1111 0.9444 0.0000
0.3333 0.0556 0.0000
0.3333 0.1667 0.0000
0.3333 0.2778 0.0000
0.3333 0.3889 0.0000
0.3333 0.5000 0.0000
0.3333 0.6111 0.0000
0.3333 0.7222 0.0000
0.3333 0.8333 0.0000
0.3333 0.9444 0.0000
0.5556 0.0556 0.0000
0.5556 0.1667 0.0000
0.5556 0.2778 0.0000
0.5556 0.3889 0.0000
0.5556 0.5000 0.0000
0.5556 0.6111 0.0000
0.5556 0.7222 0.0000
0.5556 0.8333 0.0000
0.5556 0.9444 0.0000
0.7778 0.0556 0.0000
0.7778 0.1667 0.0000
0.7778 0.2778 0.0000
0.7778 0.3889 0.0000
0.7778 0.5000 0.0000
0.7778 0.6111 0.0000
0.7778 0.7222 0.0000
0.7778 0.8333 0.0000
0.7778 0.9444 0.0000
1.0000 0.0556 0.0000
1.0000 0.1667 0.0000
1.0000 0.2778 0.0000
1.0000 0.3889 0.0000
1.0000 0.5000 0.0000
1.0000 0.6111 0.0000
1.0000 0.7222 0.0000
1.0000 0.8333 0.0000
1.0000 0.9444 0.0000
1.2222 0.0556 0.0000
1.2222 0.1667 0.0000
1.2222 0.2778 0.0000
1.2222 0.3889 0.0000
1.2222 0.5000 0.0000
1.2222 0.6111 0.0000
1.2222 0.7222 0.0000
1.2222 0.8333 0.0000
1.2222 0.9444 0.0000
1.4444 0.0556 0.0000
1.4444 0.1667 0.0000
1.4444 0.2778 0.0000
1.4444 0.3889 0.0000
1.4444 0.5000 0.0000
1.4444 0.6111 0.0000
1.4444 0.7222 0.0000
1.4444 0.8333 0.0000
1.4444 0.9444 0.0000
1.6667 0.0556 0.0000
1.6667 0.1667 0.0000
1.6667 0.2778 0.0000
1.6667 0.3889 0.0000
1.6667 0.5000 0.0000
1.6667 0.6111 0.0000
1.6667 0.7222 0.0000
1.6667 0.8333 0.0000
1.6667 0.9444 0.0000
1.8889 0.0556 0.0000
1.8889 0.1667 0.0000
1.8889 0.2778 0.0000
1.8889 0.3889 0.0000
1.8889 0.5000 0.0000
1.8889 0.6111 0.0000
1.8889 0.7222 0.0000
1.8889 0.8333 0.0000
1.8889 0.9444 0.0000
0.0000 0.0556 0.0000
0.0556 0.0278 0.0000
0.0556 0.0833 0.0000
0.0000 0.1667 0.0000
0.0556 0.1389 0.0000
0.0556 0.1944 0.0000
0.0000 0.2778 0.0000
0.0556 0.2500 0.0000
0.0556 0.3056 0.0000
0.0000 0.3889 0.0000
0.0556 0.3611 0.0000
0.0556 0.4167 0.0000
0.0000 0.5000 0.0000
0.0556 0.4722 0.0000
0.0556 0.5278 0.0000
0.0000 0.6111 0.0000
0.0556 0.5833 0.0000
0.0556 0.6389 0.0000
0.0000 0.7222 0.0000
0.0556 0.6944 0.0000
0.0556 0.7500 0.0000
0.0000 0.8333 0.0000
0.0556 0.8056 0.0000
0.0556 0.8611 0.0000
0.0000 0.9444 0.0000
0.0556 0.9167 0.0000
0.0556 0.9722 0.0000
0.2222 0.0556 0.0000
0.2778 0.0278 0.0000
0.2778 0.0833 0.0000
0.2222 0.1667 0.0000
0.2778 0.1389 0.0000
0.2778 0.1944 0.0000
0.2222 0.2778 0.0000
0.2778 0.2500 0.0000
0.2778 0.3056 0.0000
0.2222 0.3889 0.0000
0.2778 0.3611 0.0000
0.2778 0.4167 0.0000
0.2222 0.5000 0.0000
0.2778 0.4722 0.0000
0.2778 0.5278 0.0000
0.2222 0.6111 0.0000
0.2778 0.5833 0.0000
0.2778 0.6389 0.0000
0.2222 0.7222 0.0000
0.2778 0.6944 0.0000
0.2778 0.7500 0.0000
0.2222 0.8333 0.0000
0.2778 0.8056 0.0000
0.2778 0.8611 0.0000
0.2222 0.9444 0.0000
0.2778 0.9167 0.0000
0.2778 0.9722 0.0000
0.4444 0.0556 0.0000
0.5000 0.0278 0.0000
0.5000 0.0833 0.0000
0.4444 0.1667 0.0000
0.5000 0.1389 0.0000
0.5000 0.1944 0.0000
0.4444 0.2778 0.0000
0.5000 0.2500 0.0000
0.5000 0.3056 0.0000
0.4444 0.3889 0.0000
0.5000 0.3611 0.0000
0.5000 0.4167 0.0000
0.4444 0.5000 0.0000
0.5000 0.4722 0.0000
0.5000 0.5278 0.0000
0.4444 0.6111 0.0000
0.5000 0.5833 0.0000
0.5000 0.6389 0.0000
0.4444 0.7222 0.0000
0.5000 0.6944 0.0000
0.5000 0.7500 0.0000
0.4444 0.8333 0.0000
0.5000 0.8056 0.0000
0.5000 0.8611 0.0000
0.4444 0.9444 0.0000
0.5000 0.9167 0.0000
0.5000 0.9722 0.0000
0.6667 0.0556 0.0000
0.7222 0.0278 0.0000
0.7222 0.0833 0.0000
0.6667 0.1667 0.0000
0.7222 0.1389 0.0000
0.7222 0.1944 0.0000
0.6667 0.2778 0.0000
0.7222 0.2500 0.0000
0.7222 0.3056 0.0000
0.6667 0.3889 0.0000
0.7222 0.3611 0.0000
0.7222 0.4167 0.0000
0.6667 0.5000 0.0000
0.7222 0.4722 0.0000
0.7222 0.5278 0.0000
0.6667 0.6111 0.0000
0.7222 0.5833 0.0000
0.7222 0.6389 0.0000
0.6667 0.7222 0.0000
0.7222 0.6944 0.0000
0.7222 0.7500 0.0000
0.6667 0.8333 0.0000
0.7222 0.8056 0.0000
0.7222 0.8611 0.0000
0.6667 0.9444 0.0000
0.7222 0.9167 0.0000
0.7222 0.9722 0.0000
0.8889 0.0556 0.0000
0.9444 0.0278 0.0000
0.9444 0.0833 0.0000
0.8889 0.1667 0.0000
0.9444 0.1389 0.0000
0.9444 0.1944 0.0000
0.8889 0.2778 0.0000
0.9444 0.2500 0.0000
0.9444 0.3056 0.0000
0.8889 0.3889 0.0000
0.9444 0.3611 0.0000
0.9444 0.4167 0.0000
0.8889 0.5000 0.0000
0.9444 0.4722 0.0000
0.9444 0.5278 0.0000
0.8889 0.6111 0.0000
0.9444 0.5833 0.0000
0.9444 0.6389 0.0000
0.8889 0.7222 0.0000
0.9444 0.6944 0.0000
0.9444 0.7500 0.0000
0.8889 0.8333 0.0000
0.9444 0.8056 0.0000
0.9444 0.8611 0.0000
0.8889 0.9444 0.0000
0.9444 0.9167 0.0000
0.9444 0.9722 0.0000
1.1111 0.0556 0.0000
1.1667 0.0278 0.0000
1.1667 0.0833 0.0000
1.1111 0.1667 0.0000
1.1667 0.1389 0.0000
1.1667 0.1944 0.0000
1.1111 0.2778 0.0000
1.1667 0.2500 0.0000
1.1667 0.3056 0.0000
1.1111 0.3889 0.0000
1.1667 0.3611 0.0000
1.1667 0.4167 0.0000
1.1111 0.5000 0.0000
1.1667 0.4722 0.0000
1.1667 0.5278 0.0000
1.1111 0.6111 0.0000
1.1667 0.5833 0.0000
1.1667 0.6389 0.0000
1.1111 0.7222 0.0000
1.1667 0.6944 0.0000
1.1667 0.7500 0.0000
1.1111 0.8333 0.0000
1.1667 0.8056 0.0000
1.1667 0.8611 0.0000
1.1111 0.9444 0.0000
1.1667 0.9167 0.0000
1.1667 0.9722 0.0000
1.3333 0.0556 0.0000
1.3889 0.0278 0.0000
1.3889 0.0833 0.0000
1.3333 0.1667 0.0000
1.3889 0.1389 0.0000
1.3889 0.1944 0.0000
1.3333 0.2778 0.0000
1.3889 0.2500 0.0000
1.3889 0.3056 0.0000
1.3333 0.3889 0.0000
1.3889 0.3611 0.0000
1.3889 0.4167 0.0000
1.3333 0.5000 0.0000
1.3889 0.4722 0.0000
1.3889 0.5278 0.0000
1.3333 0.6111 0.0000
1.3889 0.5833 0.0000
1.3889 0.6389 0.0000
1.3333 0.7222 0.0000
1.3889 0.6944 0.0000
1.3889 0.7500 0.0000
1.3333 0.8333 0.0000
1.3889 0.8056 0.0000
1.3889 0.8611 0.0000
1.3333 0.9444 0.0000
1.3889 0.9167 0.0000
1.3889 0.9722 0.0000
1.5556 0.0556 0.0000
1.6111 0.0278 0.0000
1.6111 0.0833 0.0000
1.5556 0.1667 0.0000
1.6111 0.1389 0.0000
1.6111 0.1944 0.0000
1.5556 0.2778 0.0000
1.6111 0.2500 0.0000
1.6111 0.3056 0.0000
1.5556 0.3889 0.0000
1.6111 0.3611 0.0000
1.6111 0.4167 0.0000
1.5556 0.5000 0.0000
1.6111 0.4722 0.0000
1.6111 0.5278 0.0000
1.5556 0.6111 0.0000
1.6111 0.5833 0.0000
1.6111 0.6389 0.0000
1.5556 0.7222 0.0000
1.6111 0.6944 0.0000
1.6111 0.7500 0.0000
1.5556 0.8333 0.0000
1.6111 0.8056 0.0000
1.6111 0.8611 0.0000
1.5556 0.9444 0.0000
1.6111 0.9167 0.0000
1.6111 0.9722 0.0000
1.7778 0.0556 0.0000
1.8333 0.0278 0.0000
1.8333 0.0833 0.0000
1.7778 0.1667 0.0000
1.8333 0.1389 0.0000
1.8333 0.1944 0.0000
1.7778 0.2778 0.0000
1.8333 0.2500 0.0000
1.8333 0.3056 0.0000
1.7778 0.3889 0.0000
1.8333 0.3611 0.0000
1.8333 0.4167 0.0000
1.7778 0.5000 0.0000
1.8333 0.4722 0.0000
1.8333 0.5278 0.0000
1.7778 0.6111 0.0000
1.8333 0.5833 0.0000
1.8333 0.6389 0.0000
1.7778 0.7222 0.0000
1.8333 0.6944 0.0000
1.8333 0.7500 0.0000
1.7778 0.8333 0.0000
1.8333 0.8056 0.0000
1.8333 0.8611 0.0000
1.7778 0.9444 0.0000
1.8333 0.9167 0.0000
1.8333 0.9722 0.0000
0.1111 0.1111 0.0000
0.1667 0.0833 0.0000
0.1111 0.2222 0.0000
0.1667 0.1944 0.0000
0.1111 0.3333 0.0000
0.1667 0.3056 0.0000
0.1111 0.4444 0.0000
0.1667 0.4167 0.0000
0.1111 0.5556 0.0000
0.1667 0.5278 0.0000
0.1111 0.6667 0.0000
0.1667 0.6389 0.0000
0.1111 0.7778 0.0000
0.1667 0.7500 0.0000
0.1111 0.8889 0.0000
0.1667 0.8611 0.0000
0.1111 1.0000 0.0000
0.1667 0.9722 0.0000
0.3333 0.1111 0.0000
0.3889 0.0833 0.0000
0.3333 0.2222 0.0000
0.3889 0.1944 0.0000
0.3333 0.3333 0.0000
0.3889 0.3056 0.0000
0.3333 0.4444 0.0000
0.3889 0.4167 0.0000
0.3333 0.5556 0.0000
0.3889 0.5278 0.0000
0.3333 0.6667 0.0000
0.3889 0.6389 0.0000
0.3333 0.7778 0.0000
0.3889 0.7500 0.0000
0.3333 0.8889 0.0000
0.3889 0.8611 0.0000
0.3333 1.0000 0.0000
0.3889 0.9722 0.0000
0.5556 0.1111 0.0000
[...]
         <PointData>
            <DataArray Name="fValues" NumberOfComponents="3" format="ascii" type="Float64">
-3.67130e-15        00000        00000 
-1.58466e-15 -7.92328e-16        00000 
 1.66326e-15  1.05235e-15        00000 
-3.94539e-16  6.57565e-17        00000 
-1.17329e-16  5.04386e-16        00000 
-6.57565e-17 -5.26052e-16        00000 
 5.03346e-16 -6.60126e-17        00000 
-3.28485e-16  3.28485e-16        00000 
 1.84921e-15 -7.92517e-16        00000 
 3.67130e-15        00000        00000 
-4.64018e+01 -3.51649e+01        00000 
-3.16073e+01 -2.69993e+01        00000 
-2.06009e+01 -2.12578e+01        00000 
-1.17390e+01 -1.79114e+01        00000 
-3.80735e+00 -1.63864e+01        00000 
 3.85115e+00 -1.63507e+01        00000 
 1.17994e+01 -1.78494e+01        00000 
 2.06718e+01 -2.11807e+01        00000 
 3.16617e+01 -2.69378e+01        00000 
 4.64513e+01 -3.51098e+01        00000 
-8.45959e+01 -7.48037e+01        00000 
-6.22955e+01 -6.76832e+01        00000 
-4.25369e+01 -6.21216e+01        00000 
-2.47442e+01 -5.84012e+01        00000 
-8.13965e+00 -5.65507e+01        00000 
 8.06275e+00 -5.65381e+01        00000 
 2.46751e+01 -5.83623e+01        00000 
 4.25080e+01 -6.20438e+01        00000 
 6.23305e+01 -6.75421e+01        00000 
 8.46494e+01 -7.46287e+01        00000 
-1.18536e+02 -1.29524e+02        00000 
-8.89170e+01 -1.23336e+02        00000 
-6.17274e+01 -1.18578e+02        00000 
-3.63510e+01 -1.15381e+02        00000 
-1.20528e+01 -1.13766e+02        00000 
 1.18574e+01 -1.13761e+02        00000 
 3.61342e+01 -1.15367e+02        00000 
 6.15122e+01 -1.18577e+02        00000 
 8.87414e+01 -1.23313e+02        00000 
 1.18389e+02 -1.29441e+02        00000 
-1.47759e+02 -1.98304e+02        00000 
-1.11623e+02 -1.93084e+02        00000 
-7.79908e+01 -1.89100e+02        00000 
-4.61327e+01 -1.86443e+02        00000 
-1.53758e+01 -1.85109e+02        00000 
 1.50212e+01 -1.85104e+02        00000 
 4.57830e+01 -1.86423e+02        00000 
 7.75890e+01 -1.89077e+02        00000 
 1.11162e+02 -1.93036e+02        00000 
 1.47198e+02 -1.98163e+02        00000 
-1.71798e+02 -2.79026e+02        00000 
-1.30340e+02 -2.74829e+02        00000 
-9.13515e+01 -2.71607e+02        00000 
-5.41770e+01 -2.69455e+02        00000 
-1.81088e+01 -2.68377e+02        00000 
 1.75910e+01 -2.68353e+02        00000 
 5.36378e+01 -2.69381e+02        00000 
 9.07529e+01 -2.71458e+02        00000 
 1.29642e+02 -2.74610e+02        00000 
 1.71043e+02 -2.78748e+02        00000 
-1.90651e+02 -3.69220e+02        00000 
-1.45013e+02 -3.66067e+02        00000 
-1.01823e+02 -3.63680e+02        00000 
-6.04478e+01 -3.62094e+02        00000 
-2.02371e+01 -3.61306e+02        00000 
 1.95557e+01 -3.61277e+02        00000 
 5.97153e+01 -3.62003e+02        00000 
 1.01012e+02 -3.63528e+02        00000 
 1.44172e+02 -3.65885e+02        00000 
 1.89833e+02 -3.69032e+02        00000 
-2.04428e+02 -4.66811e+02        00000 
-1.55511e+02 -4.64650e+02        00000 
-1.09138e+02 -4.63138e+02        00000 
-6.47551e+01 -4.62210e+02        00000 
-2.16985e+01 -4.61752e+02        00000 
 2.08826e+01 -4.61715e+02        00000 
 6.39293e+01 -4.62103e+02        00000 
 1.08303e+02 -4.63002e+02        00000 
 1.54679e+02 -4.64513e+02        00000 
 2.03559e+02 -4.66670e+02        00000 
-2.13609e+02 -5.69827e+02        00000 
-1.61826e+02 -5.68666e+02        00000 
-1.13044e+02 -5.67969e+02        00000 
-6.69281e+01 -5.67476e+02        00000 
-2.24293e+01 -5.67182e+02        00000 
 2.15280e+01 -5.67140e+02        00000 
 6.60421e+01 -5.67360e+02        00000 
 1.12195e+02 -5.67805e+02        00000 
 1.60963e+02 -5.68490e+02        00000 
 2.12770e+02 -5.69681e+02        00000 
-2.19371e+02 -6.82395e+02        00000 
-1.64462e+02 -6.79605e+02        00000 
-1.14829e+02 -6.76297e+02        00000 
-6.80847e+01 -6.73742e+02        00000 
-2.28425e+01 -6.72372e+02        00000 
 2.18935e+01 -6.72343e+02        00000 
 6.71764e+01 -6.73676e+02        00000 
 1.13993e+02 -6.76232e+02        00000 
 1.63665e+02 -6.79557e+02        00000 
 2.18510e+02 -6.82337e+02        00000 
-1.87763e+01 -1.49785e+01        00000 
-1.19944e+01 -9.09747e+00        00000 
-7.44412e+00 -6.24175e+00        00000 
-3.59648e+00 -4.85839e+00        00000 
 1.78261e-02 -4.43994e+00        00000 
 3.62792e+00 -4.83483e+00        00000 
 7.49556e+00 -6.19223e+00        00000 
 1.20265e+01 -9.04888e+00        00000 
 1.88148e+01 -1.49303e+01        00000 
-5.64167e+01 -4.91368e+01        00000 
-3.93266e+01 -4.23138e+01        00000 
-2.48609e+01 -3.74848e+01        00000 
-1.20488e+01 -3.46958e+01        00000 
-6.55358e-05 -3.37849e+01        00000 
 1.20559e+01 -3.46571e+01        00000 
 2.48950e+01 -3.74084e+01        00000 
 3.93830e+01 -4.22210e+01        00000 
 5.64749e+01 -4.90501e+01        00000 
-8.87664e+01 -9.68255e+01        00000 
-6.40388e+01 -9.08661e+01        00000 
-4.14599e+01 -8.65253e+01        00000 
-2.03730e+01 -8.39057e+01        00000 
-7.51358e-02 -8.30244e+01        00000 
 2.02479e+01 -8.39013e+01        00000 
 4.13204e+01 -8.65187e+01        00000 
 6.39374e+01 -9.08130e+01        00000 
 8.87482e+01 -9.67265e+01        00000 
-1.16925e+02 -1.59292e+02        00000 
-8.52185e+01 -1.54211e+02        00000 
-5.56581e+01 -1.50546e+02        00000 
-2.75338e+01 -1.48353e+02        00000 
-1.42049e-01 -1.47615e+02        00000 
 2.72636e+01 -1.48353e+02        00000 
 5.53803e+01 -1.50561e+02        00000 
 8.49150e+01 -1.54214e+02        00000 
 1.16599e+02 -1.59231e+02        00000 
-1.40603e+02 -2.34813e+02        00000 
-1.02977e+02 -2.30648e+02        00000 
-6.75118e+01 -2.27665e+02        00000 
-3.34979e+01 -2.25859e+02        00000 
-2.19051e-01 -2.25238e+02        00000 
 3.30883e+01 -2.25804e+02        00000 
 6.70712e+01 -2.27572e+02        00000 
 1.02462e+02 -2.30541e+02        00000 
 1.39970e+02 -2.34661e+02        00000 
-1.59676e+02 -3.21149e+02        00000 
-1.17319e+02 -3.17893e+02        00000 
-7.70633e+01 -3.15546e+02        00000 
-3.82987e+01 -3.14136e+02        00000 
-2.99808e-01 -3.13640e+02        00000 
 3.76830e+01 -3.14056e+02        00000 
 7.63768e+01 -3.15399e+02        00000 
 1.16559e+02 -3.17688e+02        00000 
 1.58877e+02 -3.20934e+02        00000 
-1.74114e+02 -4.15825e+02        00000 
-1.28067e+02 -4.13520e+02        00000 
-8.41851e+01 -4.11913e+02        00000 
-4.18532e+01 -4.10966e+02        00000 
-3.70280e-01 -4.10630e+02        00000 
 4.10803e+01 -4.10884e+02        00000 
 8.33619e+01 -4.11765e+02        00000 
 1.27212e+02 -4.13345e+02        00000 
 1.73275e+02 -4.15657e+02        00000 
-1.84046e+02 -5.16776e+02        00000 
-1.35052e+02 -5.15414e+02        00000 
-8.85813e+01 -5.14595e+02        00000 
-4.39954e+01 -5.14137e+02        00000 
-4.21559e-01 -5.13977e+02        00000 
 4.31423e+01 -5.14090e+02        00000 
 8.77326e+01 -5.14501e+02        00000 
 1.34214e+02 -5.15282e+02        00000 
 1.83181e+02 -5.16613e+02        00000 
-1.89565e+02 -6.23330e+02        00000 
-1.38131e+02 -6.22461e+02        00000 
-9.03774e+01 -6.21423e+02        00000 
-4.48916e+01 -6.20595e+02        00000 
-4.70436e-01 -6.20271e+02        00000 
 4.39631e+01 -6.20540e+02        00000 
 8.95104e+01 -6.21322e+02        00000 
 1.37303e+02 -6.22345e+02        00000 
 1.88748e+02 -6.23223e+02        00000 
-7.55512e-16 -3.77756e-16        00000 
-1.02537e+01 -7.83182e+00        00000 
-7.78797e+00 -5.50533e+00        00000 
 1.22159e-15  5.74009e-16        00000 
-6.28136e+00 -4.04369e+00        00000 
-5.09234e+00 -3.04675e+00        00000 
 4.99600e-16        00000        00000 
-4.03967e+00 -2.35396e+00        00000 
-3.07473e+00 -1.87000e+00        00000 
 1.95548e-17  1.03286e-16        00000 
-2.16551e+00 -1.53519e+00        00000 
-1.28197e+00 -1.32323e+00        00000 
 7.80626e-17 -2.49800e-16        00000 
-4.12110e-01 -1.22933e+00        00000 
 4.38749e-01 -1.22533e+00        00000 
 4.10091e-17  1.10021e-17        00000 
 1.30534e+00 -1.32212e+00        00000 
 2.18601e+00 -1.52321e+00        00000 
 3.74700e-16 -9.99201e-16        00000 
 3.10601e+00 -1.85051e+00        00000 
 4.06823e+00 -2.33701e+00        00000 
 2.49800e-15  9.99201e-16        00000 
 5.11394e+00 -3.03185e+00        00000 
 6.30016e+00 -4.01837e+00        00000 
-3.46711e-15  9.26817e-16        00000 
 7.80579e+00 -5.47765e+00        00000 
 1.02775e+01 -7.80202e+00        00000 
-3.85769e+01 -3.09093e+01        00000 
-5.19004e+01 -4.18256e+01        00000 
-4.35892e+01 -3.77358e+01        00000 
-2.57206e+01 -2.37900e+01        00000 
-3.60532e+01 -3.41583e+01        00000 
-2.93528e+01 -3.11883e+01        00000 
-1.59955e+01 -1.93239e+01        00000 
-2.32827e+01 -2.88023e+01        00000 
-1.76808e+01 -2.69823e+01        00000 
-7.70116e+00 -1.69450e+01        00000 
-1.24126e+01 -2.56691e+01        00000 
-7.36088e+00 -2.48130e+01        00000 
 2.50109e-02 -1.61842e+01        00000 
-2.43435e+00 -2.43857e+01        00000 
 2.46046e+00 -2.43707e+01        00000 
 7.74974e+00 -1.68949e+01        00000 
 7.39436e+00 -2.47752e+01        00000 
 1.24558e+01 -2.56182e+01        00000 
 1.60700e+01 -1.92545e+01        00000 
 1.77429e+01 -2.69207e+01        00000 
 2.33491e+01 -2.87249e+01        00000 
 2.57834e+01 -2.37134e+01        00000 
 2.94131e+01 -3.10998e+01        00000 
 3.61160e+01 -3.40812e+01        00000 
 3.86308e+01 -3.08518e+01        00000 
 4.36483e+01 -3.76599e+01        00000 
 5.19540e+01 -4.17584e+01        00000 
-7.31036e+01 -7.10807e+01        00000 
-8.71761e+01 -8.54857e+01        00000 
-7.51078e+01 -8.18707e+01        00000 
-5.21273e+01 -6.46847e+01        00000 
-6.36883e+01 -7.87227e+01        00000 
-5.28459e+01 -7.60170e+01        00000 
-3.34423e+01 -6.00220e+01        00000 
-4.25200e+01 -7.37539e+01        00000 
-3.26259e+01 -7.19472e+01        00000 
-1.63310e+01 -5.72409e+01        00000 
-2.30701e+01 -7.05947e+01        00000 
-1.37662e+01 -6.96888e+01        00000 
-4.45466e-02 -5.63113e+01        00000 
-4.62237e+00 -6.92331e+01        00000 
 4.49528e+00 -6.92272e+01        00000 
 1.62661e+01 -5.72202e+01        00000 
 1.36582e+01 -6.96798e+01        00000 
 2.29705e+01 -7.05764e+01        00000 
 3.33813e+01 -5.99742e+01        00000 
 3.25241e+01 -7.19315e+01        00000 
 4.24229e+01 -7.37217e+01        00000 
 5.21305e+01 -6.45734e+01        00000 
 5.27813e+01 -7.59460e+01        00000 
 6.36539e+01 -7.86188e+01        00000 
 7.31560e+01 -7.09139e+01        00000 
 7.51179e+01 -8.17349e+01        00000 
 8.72243e+01 -8.53364e+01        00000 
-1.03390e+02 -1.26268e+02        00000 
-1.18209e+02 -1.44085e+02        00000 
-1.02543e+02 -1.40969e+02        00000 
-7.50572e+01 -1.20764e+02        00000 
-8.75290e+01 -1.38268e+02        00000 
-7.30784e+01 -1.35961e+02        00000 
-4.88663e+01 -1.16787e+02        00000 
-5.91430e+01 -1.34048e+02        00000 
-4.56082e+01 -1.32518e+02        00000 
-2.41061e+01 -1.14371e+02        00000 
-3.23803e+01 -1.31363e+02        00000 
-1.93817e+01 -1.30594e+02        00000 
-1.05716e-01 -1.13561e+02        00000 
-6.52451e+00 -1.30204e+02        00000 
 6.28171e+00 -1.30207e+02        00000 
 2.38964e+01 -1.14365e+02        00000 
 1.91463e+01 -1.30596e+02        00000 
 3.21326e+01 -1.31366e+02        00000 
 4.86368e+01 -1.16778e+02        00000 
 4.53595e+01 -1.32520e+02        00000 
 5.88921e+01 -1.34060e+02        00000 
 7.48548e+01 -1.20758e+02        00000 
 7.28357e+01 -1.35974e+02        00000 
 8.72851e+01 -1.38262e+02        00000 
 1.03227e+02 -1.26224e+02        00000 
 1.02313e+02 -1.40935e+02        00000 
 1.17972e+02 -1.44018e+02        00000 
-1.29347e+02 -1.95568e+02        00000 
-1.44587e+02 -2.16280e+02        00000 
-1.25826e+02 -2.13672e+02        00000 
-9.45394e+01 -1.90928e+02        00000 
-1.07701e+02 -2.11430e+02        00000 
-9.01777e+01 -2.09528e+02        00000 
-6.18751e+01 -1.87604e+02        00000 
-7.31299e+01 -2.07955e+02        00000 
-5.64907e+01 -2.06690e+02        00000 
-3.06628e+01 -1.85611e+02        00000 
-4.01778e+01 -2.05740e+02        00000 
-2.41043e+01 -2.05108e+02        00000 
-1.84703e-01 -1.84943e+02        00000 
-8.14738e+00 -2.04781e+02        00000 
 7.75066e+00 -2.04774e+02        00000 
 3.03257e+01 -1.85596e+02        00000 
 2.37199e+01 -2.05076e+02        00000 
 3.98155e+01 -2.05694e+02        00000 
 6.15150e+01 -1.87587e+02        00000 
 5.61119e+01 -2.06634e+02        00000 
 7.27179e+01 -2.07890e+02        00000 
 9.41168e+01 -1.90898e+02        00000 
 8.97171e+01 -2.09471e+02        00000 
 1.07209e+02 -2.11361e+02        00000 
 1.28840e+02 -1.95472e+02        00000 
 1.25268e+02 -2.13577e+02        00000 
 1.43983e+02 -2.16136e+02        00000 
-1.50716e+02 -2.76815e+02        00000 
-1.66065e+02 -2.99854e+02        00000 
-1.44780e+02 -2.97797e+02        00000 
-1.10577e+02 -2.73085e+02        00000 
-1.24154e+02 -2.96014e+02        00000 
-1.04097e+02 -2.94493e+02        00000 
-7.25773e+01 -2.70396e+02        00000 
-8.45218e+01 -2.93228e+02        00000 
-6.53616e+01 -2.92220e+02        00000 
-3.60510e+01 -2.68783e+02        00000 
-4.65359e+01 -2.91467e+02        00000 
-2.79387e+01 -2.90965e+02        00000 
-2.61118e-01 -2.68233e+02        00000 
-9.48310e+00 -2.90699e+02        00000 
 8.92787e+00 -2.90677e+02        00000 
 3.55316e+01 -2.68737e+02        00000 
 2.73786e+01 -2.90903e+02        00000 
 4.59581e+01 -2.91376e+02        00000 
 7.20189e+01 -2.70289e+02        00000 
 6.47541e+01 -2.92101e+02        00000 
 8.38785e+01 -2.93070e+02        00000 
 1.09940e+02 -2.72901e+02        00000 
 1.03407e+02 -2.94304e+02        00000 
 1.23433e+02 -2.95797e+02        00000 
 1.49974e+02 -2.76571e+02        00000 
 1.44020e+02 -2.97557e+02        00000 
 1.65290e+02 -2.99616e+02        00000 
-1.67479e+02 -3.67554e+02        00000 
-1.82652e+02 -3.92319e+02        00000 
-1.59398e+02 -3.90806e+02        00000 
-1.23152e+02 -3.64768e+02        00000 
-1.36802e+02 -3.89510e+02        00000 
-1.14774e+02 -3.88411e+02        00000 
-8.09538e+01 -3.62790e+02        00000 
-9.32527e+01 -3.87514e+02        00000 
-7.21429e+01 -3.86796e+02        00000 
-4.02520e+01 -3.61610e+02        00000 
-5.13704e+01 -3.86262e+02        00000 
-3.08608e+01 -3.85904e+02        00000 
-3.45167e-01 -3.61201e+02        00000 
-1.05026e+01 -3.85717e+02        00000 
 9.79624e+00 -3.85704e+02        00000 
 3.95348e+01 -3.61546e+02        00000 
 3.01334e+01 -3.85842e+02        00000 
 5.06292e+01 -3.86168e+02        00000 
 8.01647e+01 -3.62663e+02        00000 
 7.13576e+01 -3.86665e+02        00000 
 9.24258e+01 -3.87364e+02        00000 
 1.22315e+02 -3.64596e+02        00000 
 1.13937e+02 -3.88249e+02        00000 
 1.35961e+02 -3.89332e+02        00000 
 1.66645e+02 -3.67374e+02        00000 
 1.58562e+02 -3.90629e+02        00000 
 1.81824e+02 -3.92156e+02        00000 
-1.79620e+02 -4.65657e+02        00000 
-1.94443e+02 -4.91637e+02        00000 
-1.69659e+02 -4.90628e+02        00000 
-1.32029e+02 -4.63807e+02        00000 
-1.45509e+02 -4.89800e+02        00000 
-1.21982e+02 -4.89152e+02        00000 
-8.67261e+01 -4.62603e+02        00000 
-9.90378e+01 -4.88657e+02        00000 
-7.65703e+01 -4.88271e+02        00000 
-4.31034e+01 -4.61925e+02        00000 
-5.45115e+01 -4.87992e+02        00000 
-3.27464e+01 -4.87804e+02        00000 
-4.04467e-01 -4.61683e+02        00000 
-1.11742e+01 -4.87713e+02        00000 
 1.03408e+01 -4.87697e+02        00000 
 4.22891e+01 -4.61855e+02        00000 
 3.19147e+01 -4.87768e+02        00000 
 5.36754e+01 -4.87929e+02        00000 
 8.59123e+01 -4.62473e+02        00000 
 7.57401e+01 -4.88183e+02        00000 
 9.82116e+01 -4.88546e+02        00000 
 1.31202e+02 -4.63676e+02        00000 
 1.21153e+02 -4.89038e+02        00000 
 1.44667e+02 -4.89672e+02        00000 
 1.78773e+02 -4.65516e+02        00000 
 1.68805e+02 -4.90484e+02        00000 
 1.93588e+02 -4.91484e+02        00000 
-1.87406e+02 -5.69146e+02        00000 
-2.01991e+02 -5.96272e+02        00000 
-1.75540e+02 -5.95774e+02        00000 
-1.37044e+02 -5.68291e+02        00000 
-1.50055e+02 -5.95393e+02        00000 
-1.25491e+02 -5.95033e+02        00000 
-8.97209e+01 -5.67699e+02        00000 
-1.01717e+02 -5.94684e+02        00000 
-7.85757e+01 -5.94371e+02        00000 
-4.45398e+01 -5.67301e+02        00000 
-5.59204e+01 -5.94103e+02        00000 
-3.36032e+01 -5.93902e+02        00000 
-4.46021e-01 -5.67124e+02        00000 
-1.14903e+01 -5.93787e+02        00000 
 1.05664e+01 -5.93768e+02        00000 
 4.36540e+01 -5.67212e+02        00000 
 3.26774e+01 -5.93844e+02        00000 
 5.50221e+01 -5.94009e+02        00000 
 8.88589e+01 -5.67548e+02        00000 
 7.76953e+01 -5.94255e+02        00000 
 1.00877e+02 -5.94546e+02        00000 
 1.36199e+02 -5.68108e+02        00000 
 1.24660e+02 -5.94879e+02        00000 
 1.49235e+02 -5.95231e+02        00000 
 1.86550e+02 -5.68995e+02        00000 
 1.74717e+02 -5.95631e+02        00000 
 2.01159e+02 -5.96152e+02        00000 
-1.48757e+01 -1.14873e+01        00000 
-2.59068e+01 -2.08063e+01        00000 
-9.58318e+00 -7.42478e+00        00000 
-1.68234e+01 -1.47498e+01        00000 
-5.46999e+00 -5.40780e+00        00000 
-1.00599e+01 -1.14345e+01        00000 
-1.76904e+00 -4.54351e+00        00000 
-4.17388e+00 -9.84235e+00        00000 
 1.81155e+00 -4.53368e+00        00000 
 1.41654e+00 -9.53006e+00        00000 
 5.52035e+00 -5.36939e+00        00000 
 7.10221e+00 -1.04170e+01        00000 
 9.63656e+00 -7.37693e+00        00000 
 1.33381e+01 -1.27629e+01        00000 
 1.49017e+01 -1.14388e+01        00000 
 2.09555e+01 -1.72757e+01        00000 
 2.59160e+01 -2.01291e+01        00000 
 3.26317e+01 -2.52383e+01        00000 
-4.75150e+01 -4.55049e+01        00000 
-5.98774e+01 -5.79077e+01        00000 
-3.18288e+01 -3.96317e+01        00000 
-4.14807e+01 -5.16587e+01        00000 
-1.83080e+01 -3.58390e+01        00000 
-2.53430e+01 -4.73591e+01        00000 
-5.97823e+00 -3.40102e+01        00000 
-1.06192e+01 -4.50205e+01        00000 
 5.98103e+00 -3.39921e+01        00000 
 3.49870e+00 -4.45436e+01        00000 
 1.83315e+01 -3.57851e+01        00000 
 1.78328e+01 -4.59095e+01        00000 
 3.18737e+01 -3.95425e+01        00000 
 3.31769e+01 -4.91713e+01        00000 
 4.75785e+01 -4.54152e+01        00000 
 5.04008e+01 -5.44288e+01        00000 
 6.60417e+01 -5.30237e+01        00000 
 7.01336e+01 -6.16253e+01        00000 
-7.61004e+01 -9.36503e+01        00000 
-8.93427e+01 -1.09597e+02        00000 
-5.25142e+01 -8.84863e+01        00000 
-6.33792e+01 -1.04182e+02        00000 
-3.07778e+01 -8.49957e+01        00000 
-3.93897e+01 -1.00424e+02        00000 
-1.01816e+01 -8.32504e+01        00000 
-1.66846e+01 -9.83178e+01        00000 
 1.00400e+01 -8.32448e+01        00000 
 5.43795e+00 -9.78898e+01        00000 
 3.06384e+01 -8.49949e+01        00000 
 2.77551e+01 -9.91474e+01        00000 
 5.23871e+01 -8.84610e+01        00000 
 5.09959e+01 -1.02082e+02        00000 
 7.60378e+01 -9.35738e+01        00000 
 7.59390e+01 -1.06646e+02        00000 
 1.02140e+02 -1.00196e+02        00000 
 1.03177e+02 -1.12881e+02        00000 
-1.00764e+02 -1.56584e+02        00000 
-1.14710e+02 -1.75774e+02        00000 
-7.02042e+01 -1.52195e+02        00000 
-8.20291e+01 -1.71182e+02        00000 
-4.14570e+01 -1.49268e+02        00000 
-5.13052e+01 -1.68029e+02        00000 
-1.37889e+01 -1.47807e+02        00000 
-2.18533e+01 -1.66291e+02        00000 
 1.35195e+01 -1.47807e+02        00000 
 7.06000e+00 -1.65933e+02        00000 
 4.11830e+01 -1.49279e+02        00000 
 3.61559e+01 -1.66984e+02        00000 
 6.99192e+01 -1.52217e+02        00000 
 6.61319e+01 -1.69435e+02        00000 
 1.00447e+02 -1.56556e+02        00000 
 9.77055e+01 -1.73278e+02        00000 
 1.33447e+02 -1.62195e+02        00000 
 1.31574e+02 -1.78538e+02        00000 
-1.21485e+02 -2.32591e+02        00000 