<?xml version="1.0" encoding="utf-8"?>
<VTKFile byte_order="LittleEndian" type="UnstructuredGrid" version="0.1">
   <UnstructuredGrid>
      <Piece NumberOfCells="1296" NumberOfPoints="685">
         <Points>
            <DataArray Name="Points" NumberOfComponents="3" format="ascii" type="Float32">
0.0000 0.0000 0.0000
0.0000 0.1111 0.0000
0.0000 0.2222 0.0000
0.0000 0.3333 0.0000
0.0000 0.4444 0.0000
0.0000 0.5556 0.0000
0.0000 0.6667 0.0000
0.0000 0.7778 0.0000
0.0000 0.8889 0.0000
0.0000 1.0000 0.0000
0.2222 0.0000 0.0000
0.2222 0.1111 0.0000
0.2222 0.2222 0.0000
0.2222 0.3333 0.0000
0.2222 0.4444 0.0000
0.2222 0.5556 0.0000
0.2222 0.6667 0.0000
0.2222 0.7778 0.0000
0.2222 0.8889 0.0000
0.2222 1.0000 0.0000
0.4444 0.0000 0.0000
0.4444 0.1111 0.0000
0.4444 0.2222 0.0000
0.4444 0.3333 0.0000
0.4444 0.4444 0.0000
0.4444 0.5556 0.0000
0.4444 0.6667 0.0000
0.4444 0.7778 0.0000
0.4444 0.8889 0.0000
0.4444 1.0000 0.0000
0.6667 0.0000 0.0000
0.6667 0.1111 0.0000
0.6667 0.2222 0.0000
0.6667 0.3333 0.0000
0.6667 0.4444 0.0000
0.6667 0.5556 0.0000
0.6667 0.6667 0.0000
0.6667 0.7778 0.0000
0.6667 0.8889 0.0000
0.6667 1.0000 0.0000
0.8889 0.0000 0.0000
0.8889 0.1111 0.0000
0.8889 0.2222 0.0000
0.8889 0.3333 0.0000
0.8889 0.4444 0.0000
0.8889 0.5556 0.0000
0.8889 0.6667 0.0000
0.8889 0.7778 0.0000
0.8889 0.8889 0.0000
0.8889 1.0000 0.0000
1.1111 0.0000 0.0000
1.1111 0.1111 0.0000
1.1111 0.2222 0.0000
1.1111 0.3333 0.0000
1.1111 0.4444 0.0000
1.1111 0.5556 0.0000
1.1111 0.6667 0.0000
1.1111 0.7778 0.0000
1.1111 0.8889 0.0000
1.1111 1.0000 0.0000
1.3333 0.0000 0.0000
1.3333 0.1111 0.0000
1.3333 0.2222 0.0000
1.3333 0.3333 0.0000
1.3333 0.4444 0.0000
1.3333 0.5556 0.0000
1.3333 0.6667 0.0000
1.3333 0.7778 0.0000
1.3333 0.8889 0.0000
1.3333 1.0000 0.0000
1.5556 0.0000 0.0000
1.5556 0.1111 0.0000
1.5556 0.2222 0.0000
1.5556 0.3333 0.0000
1.5556 0.4444 0.0000
1.5556 0.5556 0.0000
1.5556 0.6667 0.0000
1.5556 0.7778 0.0000
1.5556 0.8889 0.0000
1.5556 1.0000 0.0000
1.7778 0.0000 0.0000
1.7778 0.1111 0.0000
1.7778 0.2222 0.0000
1.7778 0.3333 0.0000
1.7778 0.4444 0.0000
1.7778 0.5556 0.0000
1.7778 0.6667 0.0000
1.7778 0.7778 0.0000
1.7778 0.8889 0.0000
1.7778 1.0000 0.0000
2.0000 0.0000 0.0000
2.0000 0.1111 0.0000
2.0000 0.2222 0.0000
2.0000 0.3333 0.0000
2.0000 0.4444 0.0000
2.0000 0.5556 0.0000
2.0000 0.6667 0.0000
2.0000 0.7778 0.0000
2.0000 0.8889 0.0000
2.0000 1.0000 0.0000
0.1111 0.0556 0.0000
0.1111 0.1667 0.0000
0.1111 0.2778 0.0000
0.1111 0.3889 0.0000
0.1111 0.5000 0.0000
0.1111 0.6111 0.0000
0.1111 0.7222 0.0000
0.1111 0.8333 0.0000
0.1111 0.9444 0.0000
0.3333 0.0556 0.0000
0.3333 0.1667 0.0000
0.3333 0.2778 0.0000
0.3333 0.3889 0.0000
0.3333 0.5000 0.0000
0.3333 0.6111 0.0000
0.3333 0.7222 0.0000
0.3333 0.8333 0.0000
0.3333 0.9444 0.0000
0.5556 0.0556 0.0000
0.5556 0.1667 0.0000
0.5556 0.2778 0.0000
0.5556 0.3889 0.0000
0.5556 0.5000 0.0000
0.5556 0.6111 0.0000
0.5556 0.7222 0.0000
0.5556 0.8333 0.0000
0.5556 0.9444 0.0000
0.7778 0.0556 0.0000
0.7778 0.1667 0.0000
0.7778 0.2778 0.0000
0.7778 0.3889 0.0000
0.7778 0.5000 0.0000
0.7778 0.6111 0.0000
0.7778 0.7222 0.0000
0.7778 0.8333 0.0000
0.7778 0.9444 0.0000
1.0000 0.0556 0.0000
1.0000 0.1667 0.0000
1.0000 0.2778 0.0000
1.0000 0.3889 0.0000
1.0000 0.5000 0.0000
1.0000 0.6111 0.0000
1.0000 0.7222 0.0000
1.0000 0.8333 0.0000
1.0000 0.9444 0.0000
1.2222 0.0556 0.0000
1.2222 0.1667 0.0000
1.2222 0.2778 0.0000
1.2222 0.3889 0.0000
1.2222 0.5000 0.0000
1.2222 0.6111 0.0000
1.2222 0.7222 0.0000
1.2222 0.8333 0.0000
1.2222 0.9444 0.0000
1.4444 0.0556 0.0000
1.4444 0.1667 0.0000
1.4444 0.2778 0.0000
1.4444 0.3889 0.0000
1.4444 0.5000 0.0000
1.4444 0.6111 0.0000
1.4444 0.7222 0.0000
1.4444 0.8333 0.0000
1.4444 0.9444 0.0000
1.6667 0.0556 0.0000
1.6667 0.1667 0.0000
1.6667 0.2778 0.0000
1.6667 0.3889 0.0000
1.6667 0.5000 0.0000
1.6667 0.6111 0.0000
1.6667 0.7222 0.0000
1.6667 0.8333 0.0000
1.6667 0.9444 0.0000
1.8889 0.0556 0.0000
1.8889 0.1667 0.0000
1.8889 0.2778 0.0000
1.8889 0.3889 0.0000
1.8889 0.5000 0.0000
1.8889 0.6111 0.0000
1.8889 0.7222 0.0000
1.8889 0.8333 0.0000
1.8889 0.9444 0.0000
0.0000 0.0556 0.0000
0.0556 0.0278 0.0000
0.0556 0.0833 0.0000
0.0000 0.1667 0.0000
0.0556 0.1389 0.0000
0.0556 0.1944 0.0000
0.0000 0.2778 0.0000
0.0556 0.2500 0.0000
0.0556 0.3056 0.0000
0.0000 0.3889 0.0000
0.0556 0.3611 0.0000
0.0556 0.4167 0.0000
0.0000 0.5000 0.0000
0.0556 0.4722 0.0000
0.0556 0.5278 0.0000
0.0000 0.6111 0.0000
0.0556 0.5833 0.0000
0.0556 0.6389 0.0000
0.0000 0.7222 0.0000
0.0556 0.6944 0.0000
0.0556 0.7500 0.0000
0.0000 0.8333 0.0000
0.0556 0.8056 0.0000
0.0556 0.8611 0.0000
0.0000 0.9444 0.0000
0.0556 0.9167 0.0000
0.0556 0.9722 0.0000
0.2222 0.0556 0.0000
0.2778 0.0278 0.0000
0.2778 0.0833 0.0000
0.2222 0.1667 0.0000
0.2778 0.1389 0.0000
0.2778 0.1944 0.0000
0.2222 0.2778 0.0000
0.2778 0.2500 0.0000
0.2778 0.3056 0.0000
0.2222 0.3889 0.0000
0.2778 0.3611 0.0000
0.2778 0.4167 0.0000
0.2222 0.5000 0.0000
0.2778 0.4722 0.0000
0.2778 0.5278 0.0000
0.2222 0.6111 0.0000
0.2778 0.5833 0.0000
0.2778 0.6389 0.0000
0.2222 0.7222 0.0000
0.2778 0.6944 0.0000
0.2778 0.7500 0.0000
0.2222 0.8333 0.0000
0.2778 0.8056 0.0000
0.2778 0.8611 0.0000
0.2222 0.9444 0.0000
0.2778 0.9167 0.0000
0.2778 0.9722 0.0000
0.4444 0.0556 0.0000
0.5000 0.0278 0.0000
0.5000 0.0833 0.0000
0.4444 0.1667 0.0000
0.5000 0.1389 0.0000
0.5000 0.1944 0.0000
0.4444 0.2778 0.0000
0.5000 0.2500 0.0000
0.5000 0.3056 0.0000
0.4444 0.3889 0.0000
0.5000 0.3611 0.0000
0.5000 0.4167 0.0000
0.4444 0.5000 0.0000
0.5000 0.4722 0.0000
0.5000 0.5278 0.0000
0.4444 0.6111 0.0000
0.5000 0.5833 0.0000
0.5000 0.6389 0.0000
0.4444 0.7222 0.0000
0.5000 0.6944 0.0000
0.5000 0.7500 0.0000
0.4444 0.8333 0.0000
0.5000 0.8056 0.0000
0.5000 0.8611 0.0000
0.4444 0.9444 0.0000
0.5000 0.9167 0.0000
0.5000 0.9722 0.0000
0.6667 0.0556 0.0000
0.7222 0.0278 0.0000
0.7222 0.0833 0.0000
0.6667 0.1667 0.0000
0.7222 0.1389 0.0000
0.7222 0.1944 0.0000
0.6667 0.2778 0.0000
0.7222 0.2500 0.0000
0.7222 0.3056 0.0000
0.6667 0.3889 0.0000
0.7222 0.3611 0.0000
0.7222 0.4167 0.0000
0.6667 0.5000 0.0000
0.7222 0.4722 0.0000
0.7222 0.5278 0.0000
0.6667 0.6111 0.0000
0.7222 0.5833 0.0000
0.7222 0.6389 0.0000
0.6667 0.7222 0.0000
0.7222 0.6944 0.0000
0.7222 0.7500 0.0000
0.6667 0.8333 0.0000
0.7222 0.8056 0.0000
0.7222 0.8611 0.0000
0.6667 0.9444 0.0000
0.7222 0.9167 0.0000
0.7222 0.9722 0.0000
0.8889 0.0556 0.0000
0.9444 0.0278 0.0000
0.9444 0.0833 0.0000
0.8889 0.1667 0.0000
0.9444 0.1389 0.0000
0.9444 0.1944 0.0000
0.8889 0.2778 0.0000
0.9444 0.2500 0.0000
0.9444 0.3056 0.0000
0.8889 0.3889 0.0000
0.9444 0.3611 0.0000
0.9444 0.4167 0.0000
0.8889 0.5000 0.0000
0.9444 0.4722 0.0000
0.9444 0.5278 0.0000
0.8889 0.6111 0.0000
0.9444 0.5833 0.0000
0.9444 0.6389 0.0000
0.8889 0.7222 0.0000
0.9444 0.6944 0.0000
0.9444 0.7500 0.0000
0.8889 0.8333 0.0000
0.9444 0.8056 0.0000
0.9444 0.8611 0.0000
0.8889 0.9444 0.0000
0.9444 0.9167 0.0000
0.9444 0.9722 0.0000
1.1111 0.0556 0.0000
1.1667 0.0278 0.0000
1.1667 0.0833 0.0000
1.1111 0.1667 0.0000
1.1667 0.1389 0.0000
1.1667 0.1944 0.0000
1.1111 0.2778 0.0000
1.1667 0.2500 0.0000
1.1667 0.3056 0.0000
1.1111 0.3889 0.0000
1.1667 0.3611 0.0000
1.1667 0.4167 0.0000
1.1111 0.5000 0.0000
1.1667 0.4722 0.0000
1.1667 0.5278 0.0000
1.1111 0.6111 0.0000
1.1667 0.5833 0.0000
1.1667 0.6389 0.0000
1.1111 0.7222 0.0000
1.1667 0.6944 0.0000
1.1667 0.7500 0.0000
1.1111 0.8333 0.0000
1.1667 0.8056 0.0000
1.1667 0.8611 0.0000
1.1111 0.9444 0.0000
1.1667 0.9167 0.0000
1.1667 0.9722 0.0000
1.3333 0.0556 0.0000
1.3889 0.0278 0.0000
1.3889 0.0833 0.0000
1.3333 0.1667 0.0000
1.3889 0.1389 0.0000
1.3889 0.1944 0.0000
1.3333 0.2778 0.0000
1.3889 0.2500 0.0000
1.3889 0.3056 0.0000
1.3333 0.3889 0.0000
1.3889 0.3611 0.0000
1.3889 0.4167 0.0000
1.3333 0.5000 0.0000
1.3889 0.4722 0.0000
1.3889 0.5278 0.0000
1.3333 0.6111 0.0000
1.3889 0.5833 0.0000
1.3889 0.6389 0.0000
1.3333 0.7222 0.0000
1.3889 0.6944 0.0000
1.3889 0.7500 0.0000
1.3333 0.8333 0.0000
1.3889 0.8056 0.0000
1.3889 0.8611 0.0000
1.3333 0.9444 0.0000
1.3889 0.9167 0.0000
1.3889 0.9722 0.0000
1.5556 0.0556 0.0000
1.6111 0.0278 0.0000
1.6111 0.0833 0.0000
1.5556 0.1667 0.0000
1.6111 0.1389 0.0000
1.6111 0.1944 0.0000
1.5556 0.2778 0.0000
1.6111 0.2500 0.0000
1.6111 0.3056 0.0000
1.5556 0.3889 0.0000
1.6111 0.3611 0.0000
1.6111 0.4167 0.0000
1.5556 0.5000 0.0000
1.6111 0.4722 0.0000
1.6111 0.5278 0.0000
1.5556 0.6111 0.0000
1.6111 0.5833 0.0000
1.6111 0.6389 0.0000
1.5556 0.7222 0.0000
1.6111 0.6944 0.0000
1.6111 0.7500 0.0000
1.5556 0.8333 0.0000
1.6111 0.8056 0.0000
1.6111 0.8611 0.0000
1.5556 0.9444 0.0000
1.6111 0.9167 0.0000
1.6111 0.9722 0.0000
1.7778 0.0556 0.0000
1.8333 0.0278 0.0000
1.8333 0.0833 0.0000
1.7778 0.1667 0.0000
1.8333 0.1389 0.0000
1.8333 0.1944 0.0000
1.7778 0.2778 0.0000
1.8333 0.2500 0.0000
1.8333 0.3056 0.0000
1.7778 0.3889 0.0000
1.8333 0.3611 0.0000
1.8333 0.4167 0.0000
1.7778 0.5000 0.0000
1.8333 0.4722 0.0000
1.8333 0.5278 0.0000
1.7778 0.6111 0.0000
1.8333 0.5833 0.0000
1.8333 0.6389 0.0000
1.7778 0.7222 0.0000
1.8333 0.6944 0.0000
1.8333 0.7500 0.0000
1.7778 0.8333 0.0000
1.8333 0.8056 0.0000
1.8333 0.8611 0.0000
1.7778 0.9444 0.0000
1.8333 0.9167 0.0000
1.8333 0.9722 0.0000
0.1111 0.1111 0.0000
0.1667 0.0833 0.0000
0.1111 0.2222 0.0000
0.1667 0.1944 0.0000
0.1111 0.3333 0.0000
0.1667 0.3056 0.0000
0.1111 0.4444 0.0000
0.1667 0.4167 0.0000
0.1111 0.5556 0.0000
0.1667 0.5278 0.0000
0.1111 0.6667 0.0000
0.1667 0.6389 0.0000
0.1111 0.7778 0.0000
0.1667 0.7500 0.0000
0.1111 0.8889 0.0000
0.1667 0.8611 0.0000
0.1111 1.0000 0.0000
0.1667 0.9722 0.0000
0.3333 0.1111 0.0000
0.3889 0.0833 0.0000
0.3333 0.2222 0.0000
0.3889 0.1944 0.0000
0.3333 0.3333 0.0000
0.3889 0.3056 0.0000
0.3333 0.4444 0.0000
0.3889 0.4167 0.0000
0.3333 0.5556 0.0000
0.3889 0.5278 0.0000
0.3333 0.6667 0.0000
0.3889 0.6389 0.0000
0.3333 0.7778 0.0000
0.3889 0.7500 0.0000
0.3333 0.8889 0.0000
0.3889 0.8611 0.0000
0.3333 1.0000 0.0000
0.3889 0.9722 0.0000
0.5556 0.1111 0.0000
[...]
         <PointData>
            <DataArray Name="fValues" NumberOfComponents="3" format="ascii" type="Float64">
 2.39017e-18 -1.07558e-17        00000 
 1.28960e-18  2.57919e-19        00000 
 1.78214e-18 -2.71463e-19        00000 
 1.28431e-19 -6.42154e-19        00000 
-5.50987e-19 -5.49980e-19        00000 
 1.92646e-19 -5.13723e-19        00000 
 9.14603e-19 -9.75039e-19        00000 
 4.49101e-19 -6.41573e-19        00000 
 1.03192e-18  5.15962e-19        00000 
 8.36559e-18 -2.39017e-18        00000 
-7.29214e-02 -5.54627e-02        00000 
-4.96148e-02 -4.26512e-02        00000 
-3.23446e-02 -3.36351e-02        00000 
-1.84402e-02 -2.84152e-02        00000 
-6.00646e-03 -2.60475e-02        00000 
 6.00546e-03 -2.60473e-02        00000 
 1.84392e-02 -2.84148e-02        00000 
 3.23436e-02 -3.36345e-02        00000 
 4.96136e-02 -4.26503e-02        00000 
 7.29197e-02 -5.54615e-02        00000 
-1.32718e-01 -1.17853e-01        00000 
-9.76710e-02 -1.06723e-01        00000 
-6.65912e-02 -9.80551e-02        00000 
-3.86694e-02 -9.22490e-02        00000 
-1.26788e-02 -8.93693e-02        00000 
 1.26764e-02 -8.93690e-02        00000 
 3.86670e-02 -9.22482e-02        00000 
 6.65888e-02 -9.80539e-02        00000 
 9.76684e-02 -1.06721e-01        00000 
 1.32715e-01 -1.17851e-01        00000 
-1.85499e-01 -2.03966e-01        00000 
-1.39019e-01 -1.94391e-01        00000 
-9.64170e-02 -1.86997e-01        00000 
-5.66714e-02 -1.82005e-01        00000 
-1.86926e-02 -1.79491e-01        00000 
 1.86883e-02 -1.79491e-01        00000 
 5.66672e-02 -1.82004e-01        00000 
 9.64130e-02 -1.86995e-01        00000 
 1.39015e-01 -1.94389e-01        00000 
 1.85495e-01 -2.03964e-01        00000 
-2.30433e-01 -3.11745e-01        00000 
-1.74012e-01 -3.03754e-01        00000 
-1.21495e-01 -2.97618e-01        00000 
-7.17714e-02 -2.93501e-01        00000 
-2.37372e-02 -2.91436e-01        00000 
 2.37310e-02 -2.91435e-01        00000 
 7.17654e-02 -2.93500e-01        00000 
 1.21489e-01 -2.97617e-01        00000 
 1.74006e-01 -3.03752e-01        00000 
 2.30428e-01 -3.11743e-01        00000 
-2.67251e-01 -4.37713e-01        00000 
-2.02653e-01 -4.31317e-01        00000 
-1.41963e-01 -4.26420e-01        00000 
-8.40583e-02 -4.23150e-01        00000 
-2.78346e-02 -4.21518e-01        00000 
 2.78268e-02 -4.21518e-01        00000 
 8.40507e-02 -4.23150e-01        00000 
 1.41955e-01 -4.26419e-01        00000 
 2.02646e-01 -4.31316e-01        00000 
 2.67244e-01 -4.37711e-01        00000 
-2.95923e-01 -5.78206e-01        00000 
-2.24942e-01 -5.73400e-01        00000 
-1.57833e-01 -5.69759e-01        00000 
-9.35418e-02 -5.67369e-01        00000 
-3.09876e-02 -5.66194e-01        00000 
 3.09783e-02 -5.66194e-01        00000 
 9.35328e-02 -5.67369e-01        00000 
 1.57824e-01 -5.69758e-01        00000 
 2.24933e-01 -5.73399e-01        00000 
 2.95914e-01 -5.78205e-01        00000 
-3.16649e-01 -7.29586e-01        00000 
-2.40899e-01 -7.26331e-01        00000 
-1.68946e-01 -7.24025e-01        00000 
-1.00043e-01 -7.22624e-01        00000 
-3.31228e-02 -7.21966e-01        00000 
 3.31130e-02 -7.21967e-01        00000 
 1.00033e-01 -7.22624e-01        00000 
 1.68936e-01 -7.24026e-01        00000 
 2.40889e-01 -7.26330e-01        00000 
 3.16639e-01 -7.29586e-01        00000 
-3.30419e-01 -8.88910e-01        00000 
-2.50430e-01 -8.87148e-01        00000 
-1.74910e-01 -8.86089e-01        00000 
-1.03338e-01 -8.85338e-01        00000 
-3.41816e-02 -8.84922e-01        00000 
 3.41714e-02 -8.84922e-01        00000 
 1.03328e-01 -8.85338e-01        00000 
 1.74900e-01 -8.86089e-01        00000 
 2.50419e-01 -8.87148e-01        00000 
 3.30408e-01 -8.88909e-01        00000 
-3.38904e-01 -1.06210e+00        00000 
-2.54400e-01 -1.05798e+00        00000 
-1.77669e-01 -1.05307e+00        00000 
-1.05090e-01 -1.04930e+00        00000 
-3.47877e-02 -1.04729e+00        00000 
 3.47772e-02 -1.04729e+00        00000 
 1.05079e-01 -1.04930e+00        00000 
 1.77658e-01 -1.05307e+00        00000 
 2.54389e-01 -1.05798e+00        00000 
 3.38892e-01 -1.06210e+00        00000 
-2.95093e-02 -2.36082e-02        00000 
-1.88341e-02 -1.44070e-02        00000 
-1.17165e-02 -9.94531e-03        00000 
-5.66792e-03 -7.81721e-03        00000 
-2.43635e-07 -7.18022e-03        00000 
 5.66746e-03 -7.81712e-03        00000 
 1.17161e-02 -9.94510e-03        00000 
 1.88336e-02 -1.44067e-02        00000 
 2.95086e-02 -2.36076e-02        00000 
-8.85419e-02 -7.75081e-02        00000 
-6.16924e-02 -6.68203e-02        00000 
-3.89638e-02 -5.92824e-02        00000 
-1.88814e-02 -5.49578e-02        00000 
-8.34531e-07 -5.35591e-02        00000 
 1.88798e-02 -5.49575e-02        00000 
 3.89621e-02 -5.92816e-02        00000 
 6.16906e-02 -6.68191e-02        00000 
 8.85398e-02 -7.75067e-02        00000 
-1.39057e-01 -1.52574e-01        00000 
-1.00195e-01 -1.43318e-01        00000 
-6.47662e-02 -1.36564e-01        00000 
-3.17622e-02 -1.32476e-01        00000 
-1.64656e-06 -1.31110e-01        00000 
 3.17589e-02 -1.32475e-01        00000 
 6.47629e-02 -1.36563e-01        00000 
 1.00192e-01 -1.43316e-01        00000 
 1.39054e-01 -1.52572e-01        00000 
-1.82581e-01 -2.50740e-01        00000 
-1.33005e-01 -2.42918e-01        00000 
-8.67745e-02 -2.37254e-01        00000 
-4.28132e-02 -2.33832e-01        00000 
-2.60582e-06 -2.32686e-01        00000 
 4.28080e-02 -2.33831e-01        00000 
 8.67695e-02 -2.37253e-01        00000 
 1.33000e-01 -2.42917e-01        00000 
 1.82576e-01 -2.50738e-01        00000 
-2.18930e-01 -3.68902e-01        00000 
-1.60297e-01 -3.62507e-01        00000 
-1.05003e-01 -3.57897e-01        00000 
-5.19422e-02 -3.55125e-01        00000 
-3.54883e-06 -3.54201e-01        00000 
 5.19353e-02 -3.55125e-01        00000 
 1.04996e-01 -3.57896e-01        00000 
 1.60291e-01 -3.62505e-01        00000 
 2.18923e-01 -3.68900e-01        00000 
-2.48034e-01 -5.03429e-01        00000 
-1.82117e-01 -4.98460e-01        00000 
-1.19535e-01 -4.94901e-01        00000 
-5.92017e-02 -4.92779e-01        00000 
-4.28901e-06 -4.92075e-01        00000 
 5.91932e-02 -4.92779e-01        00000 
 1.19527e-01 -4.94901e-01        00000 
 1.82109e-01 -4.98459e-01        00000 
 2.48026e-01 -5.03428e-01        00000 
-2.69937e-01 -6.50631e-01        00000 
-1.98437e-01 -6.47099e-01        00000 
-1.30297e-01 -6.44659e-01        00000 
-6.45323e-02 -6.43255e-01        00000 
-4.85156e-06 -6.42799e-01        00000 
 6.45227e-02 -6.43255e-01        00000 
 1.30288e-01 -6.44659e-01        00000 
 1.98427e-01 -6.47099e-01        00000 
 2.69928e-01 -6.50630e-01        00000 
-2.84903e-01 -8.06980e-01        00000 
-2.09065e-01 -8.04931e-01        00000 
-1.36970e-01 -8.03696e-01        00000 
-6.77389e-02 -8.03023e-01        00000 
-4.97751e-06 -8.02806e-01        00000 
 6.77290e-02 -8.03023e-01        00000 
 1.36960e-01 -8.03696e-01        00000 
 2.09055e-01 -8.04931e-01        00000 
 2.84893e-01 -8.06980e-01        00000 
-2.93197e-01 -9.71435e-01        00000 
-2.13771e-01 -9.70145e-01        00000 
-1.39762e-01 -9.68582e-01        00000 
-6.90849e-02 -9.67377e-01        00000 
-5.19512e-06 -9.66932e-01        00000 
 6.90744e-02 -9.67377e-01        00000 
 1.39751e-01 -9.68582e-01        00000 
 2.13760e-01 -9.70144e-01        00000 
 2.93186e-01 -9.71434e-01        00000 
-5.83991e-18 -1.06607e-18        00000 
-1.61285e-02 -1.23274e-02        00000 
-1.22430e-02 -8.68205e-03        00000 
 4.09400e-18  4.52439e-20        00000 
-9.87526e-03 -6.39941e-03        00000 
-8.00399e-03 -4.85220e-03        00000 
-1.95156e-18 -7.31836e-19        00000 
-6.36297e-03 -3.77108e-03        00000 
-4.85105e-03 -3.01503e-03        00000 
 5.79722e-19  7.01527e-19        00000 
-3.41799e-03 -2.50215e-03        00000 
-2.03326e-03 -2.18336e-03        00000 
-6.09864e-20  1.21973e-19        00000 
-6.75005e-04 -2.03041e-03        00000 
 6.74800e-04 -2.03040e-03        00000 
 2.13484e-19  4.06452e-19        00000 
 2.03305e-03 -2.18332e-03        00000 
 3.41777e-03 -2.50210e-03        00000 
 2.43945e-19 -4.87891e-19        00000 
 4.85082e-03 -3.01494e-03        00000 
 6.36275e-03 -3.77099e-03        00000 
 4.87891e-19 -1.21973e-18        00000 
 8.00377e-03 -4.85209e-03        00000 
 9.87503e-03 -6.39926e-03        00000 
-1.20679e-18  1.94453e-18        00000 
 1.22427e-02 -8.68187e-03        00000 
 1.61281e-02 -1.23271e-02        00000 
-6.05803e-02 -4.87879e-02        00000 
-8.15033e-02 -6.59737e-02        00000 
-6.84195e-02 -5.95581e-02        00000 
-4.03770e-02 -3.76020e-02        00000 
-5.65852e-02 -5.39457e-02        00000 
-4.60497e-02 -4.92872e-02        00000 
-2.51214e-02 -3.06183e-02        00000 
-3.65292e-02 -4.55734e-02        00000 
-2.77482e-02 -4.27320e-02        00000 
-1.21151e-02 -2.69169e-02        00000 
-1.94849e-02 -4.06818e-02        00000 
-1.15625e-02 -3.93545e-02        00000 
-5.12778e-07 -2.57624e-02        00000 
-3.83366e-03 -3.87028e-02        00000 
 3.83232e-03 -3.87028e-02        00000 
 1.21141e-02 -2.69167e-02        00000 
 1.15611e-02 -3.93543e-02        00000 
 1.94835e-02 -4.06814e-02        00000 
 2.51203e-02 -3.06178e-02        00000 
 2.77468e-02 -4.27314e-02        00000 
 3.65278e-02 -4.55726e-02        00000 
 4.03758e-02 -3.76012e-02        00000 
 4.60483e-02 -4.92863e-02        00000 
 5.65837e-02 -5.39447e-02        00000 
 6.05789e-02 -4.87868e-02        00000 
 6.84179e-02 -5.95569e-02        00000 
 8.15014e-02 -6.59723e-02        00000 
-1.14664e-01 -1.12025e-01        00000 
-1.36700e-01 -1.34674e-01        00000 
-1.17715e-01 -1.29048e-01        00000 
-8.16733e-02 -1.02047e-01        00000 
-9.97444e-02 -1.24151e-01        00000 
-8.27048e-02 -1.19941e-01        00000 
-5.23071e-02 -9.47848e-02        00000 
-6.64919e-02 -1.16419e-01        00000 
-5.09782e-02 -1.13596e-01        00000 
-2.55146e-02 -9.04463e-02        00000 
-3.60171e-02 -1.11480e-01        00000 
-2.14523e-02 -1.10070e-01        00000 
-1.18255e-06 -8.90110e-02        00000 
-7.12533e-03 -1.09365e-01        00000 
 7.12249e-03 -1.09365e-01        00000 
 2.55122e-02 -9.04458e-02        00000 
 2.14495e-02 -1.10069e-01        00000 
 3.60142e-02 -1.11479e-01        00000 
 5.23047e-02 -9.47838e-02        00000 
 5.09755e-02 -1.13595e-01        00000 
 6.64891e-02 -1.16418e-01        00000 
 8.16708e-02 -1.02045e-01        00000 
 8.27020e-02 -1.19940e-01        00000 
 9.97415e-02 -1.24150e-01        00000 
 1.14661e-01 -1.12023e-01        00000 
 1.17712e-01 -1.29047e-01        00000 
 1.36697e-01 -1.34672e-01        00000 
-1.61706e-01 -1.98938e-01        00000 
-1.84769e-01 -2.26863e-01        00000 
-1.60235e-01 -2.22050e-01        00000 
-1.17297e-01 -1.90401e-01        00000 
-1.36730e-01 -2.17884e-01        00000 
-1.14127e-01 -2.14320e-01        00000 
-7.62529e-02 -1.84195e-01        00000 
-9.22983e-02 -2.11344e-01        00000 
-7.11112e-02 -2.08955e-01        00000 
-3.75329e-02 -1.80435e-01        00000 
-5.04292e-02 -2.07158e-01        00000 
-3.01117e-02 -2.05957e-01        00000 
-2.12941e-06 -1.79176e-01        00000 
-1.00143e-02 -2.05356e-01        00000 
 1.00096e-02 -2.05356e-01        00000 
 3.75286e-02 -1.80435e-01        00000 
 3.01070e-02 -2.05957e-01        00000 
 5.04246e-02 -2.07157e-01        00000 
 7.62488e-02 -1.84194e-01        00000 
 7.11066e-02 -2.08954e-01        00000 
 9.22938e-02 -2.11342e-01        00000 
 1.17293e-01 -1.90399e-01        00000 
 1.14123e-01 -2.14318e-01        00000 
 1.36725e-01 -2.17882e-01        00000 
 1.61702e-01 -1.98936e-01        00000 
 1.60231e-01 -2.22048e-01        00000 
 1.84765e-01 -2.26860e-01        00000 
-2.01659e-01 -3.07545e-01        00000 
-2.25302e-01 -3.39898e-01        00000 
-1.96013e-01 -3.35918e-01        00000 
-1.47336e-01 -3.00438e-01        00000 
-1.67765e-01 -3.32479e-01        00000 
-1.40419e-01 -3.29544e-01        00000 
-9.63526e-02 -2.95304e-01        00000 
-1.13839e-01 -3.27102e-01        00000 
-8.78872e-02 -3.25147e-01        00000 
-4.76129e-02 -2.92211e-01        00000 
-6.24260e-02 -3.23680e-01        00000 
-3.73161e-02 -3.22701e-01        00000 
-3.10274e-06 -2.91177e-01        00000 
-1.24175e-02 -3.22211e-01        00000 
 1.24108e-02 -3.22211e-01        00000 
 4.76068e-02 -2.92210e-01        00000 
 3.73095e-02 -3.22700e-01        00000 
 6.24195e-02 -3.23679e-01        00000 
 9.63468e-02 -2.95303e-01        00000 
 8.78808e-02 -3.25146e-01        00000 
 1.13832e-01 -3.27100e-01        00000 
 1.47330e-01 -3.00436e-01        00000 
 1.40413e-01 -3.29543e-01        00000 
 1.67759e-01 -3.32477e-01        00000 
 2.01654e-01 -3.07543e-01        00000 
 1.96008e-01 -3.35916e-01        00000 
 2.25296e-01 -3.39896e-01        00000 
-2.34387e-01 -4.34350e-01        00000 
-2.58149e-01 -4.70214e-01        00000 
-2.24998e-01 -4.67070e-01        00000 
-1.71891e-01 -4.28667e-01        00000 
-1.92885e-01 -4.64357e-01        00000 
-1.61673e-01 -4.62047e-01        00000 
-1.12731e-01 -4.24580e-01        00000 
-1.31228e-01 -4.60129e-01        00000 
-1.01411e-01 -4.58600e-01        00000 
-5.58060e-02 -4.22130e-01        00000 
-7.20849e-02 -4.57455e-01        00000 
-4.31113e-02 -4.56694e-01        00000 
-3.92802e-06 -4.21314e-01        00000 
-1.43496e-02 -4.56313e-01        00000 
 1.43414e-02 -4.56313e-01        00000 
 5.57982e-02 -4.22129e-01        00000 
 4.31031e-02 -4.56693e-01        00000 
 7.20768e-02 -4.57455e-01        00000 
 1.12724e-01 -4.24580e-01        00000 
 1.01403e-01 -4.58599e-01        00000 
 1.31220e-01 -4.60128e-01        00000 
 1.71884e-01 -4.28666e-01        00000 
 1.61666e-01 -4.62046e-01        00000 
 1.92877e-01 -4.64356e-01        00000 
 2.34380e-01 -4.34349e-01        00000 
 2.24990e-01 -4.67069e-01        00000 
 2.58142e-01 -4.70213e-01        00000 
-2.59876e-01 -5.75676e-01        00000 
-2.83325e-01 -6.14131e-01        00000 
-2.47197e-01 -6.11817e-01        00000 
-1.90970e-01 -5.71422e-01        00000 
-2.12088e-01 -6.09834e-01        00000 
-1.77876e-01 -6.08163e-01        00000 
-1.25401e-01 -5.68409e-01        00000 
-1.44440e-01 -6.06794e-01        00000 
-1.11651e-01 -6.05717e-01        00000 
-6.21180e-02 -5.66633e-01        00000 
-7.93776e-02 -6.04921e-01        00000 
-4.74773e-02 -6.04396e-01        00000 
-4.64869e-06 -5.66048e-01        00000 
-1.58036e-02 -6.04136e-01        00000 
 1.57941e-02 -6.04136e-01        00000 
 6.21089e-02 -5.66633e-01        00000 
 4.74678e-02 -6.04396e-01        00000 
 7.93683e-02 -6.04921e-01        00000 
 1.25392e-01 -5.68409e-01        00000 
 1.11642e-01 -6.05717e-01        00000 
 1.44431e-01 -6.06794e-01        00000 
 1.90961e-01 -5.71422e-01        00000 
 1.77867e-01 -6.08163e-01        00000 
 2.12079e-01 -6.09833e-01        00000 
 2.59868e-01 -5.75675e-01        00000 
 2.47188e-01 -6.11816e-01        00000 
 2.83316e-01 -6.14131e-01        00000 
-2.78256e-01 -7.27854e-01        00000 
-3.01092e-01 -7.68055e-01        00000 
-2.62719e-01 -7.66535e-01        00000 
-2.04488e-01 -7.25055e-01        00000 
-2.25316e-01 -7.65297e-01        00000 
-1.88842e-01 -7.64316e-01        00000 
-1.34172e-01 -7.23223e-01        00000 
-1.53226e-01 -7.63554e-01        00000 
-1.18359e-01 -7.62980e-01        00000 
-6.64127e-02 -7.22210e-01        00000 
-8.40982e-02 -7.62568e-01        00000 
-5.02808e-02 -7.62301e-01        00000 
-4.91143e-06 -7.21886e-01        00000 
-1.67334e-02 -7.62170e-01        00000 
 1.67235e-02 -7.62170e-01        00000 
 6.64029e-02 -7.22210e-01        00000 
 5.02709e-02 -7.62301e-01        00000 
 8.40883e-02 -7.62568e-01        00000 
 1.34162e-01 -7.23223e-01        00000 
 1.18349e-01 -7.62980e-01        00000 
 1.53216e-01 -7.63555e-01        00000 
 2.04478e-01 -7.25055e-01        00000 
 1.88832e-01 -7.64316e-01        00000 
 2.25306e-01 -7.65297e-01        00000 
 2.78246e-01 -7.27854e-01        00000 
 2.62709e-01 -7.66535e-01        00000 
 3.01082e-01 -7.68055e-01        00000 
-2.89958e-01 -8.87890e-01        00000 
-3.12404e-01 -9.29724e-01        00000 
-2.71609e-01 -9.28966e-01        00000 
-2.12095e-01 -8.86571e-01        00000 
-2.32230e-01 -9.28384e-01        00000 
-1.94210e-01 -9.27841e-01        00000 
-1.38721e-01 -8.85678e-01        00000 
-1.57352e-01 -9.27319e-01        00000 
-1.21433e-01 -9.26842e-01        00000 
-6.85587e-02 -8.85082e-01        00000 
-8.62329e-02 -9.26447e-01        00000 
-5.15405e-02 -9.26164e-01        00000 
-5.10610e-06 -8.84867e-01        00000 
-1.71502e-02 -9.26017e-01        00000 
 1.71398e-02 -9.26017e-01        00000 
 6.85485e-02 -8.85082e-01        00000 
 5.15301e-02 -9.26164e-01        00000 
 8.62225e-02 -9.26447e-01        00000 
 1.38711e-01 -8.85678e-01        00000 
 1.21422e-01 -9.26842e-01        00000 
 1.57342e-01 -9.27318e-01        00000 
 2.12084e-01 -8.86571e-01        00000 
 1.94199e-01 -9.27840e-01        00000 
 2.32219e-01 -9.28383e-01        00000 
 2.89948e-01 -8.87890e-01        00000 
 2.71598e-01 -9.28965e-01        00000 
 3.12393e-01 -9.29724e-01        00000 
-2.33531e-02 -1.81430e-02        00000 
-4.06754e-02 -3.28410e-02        00000 
-1.50683e-02 -1.17913e-02        00000 
-2.64212e-02 -2.33441e-02        00000 
-8.61469e-03 -8.66218e-03        00000 
-1.58104e-02 -1.81722e-02        00000 
-2.81270e-03 -7.33638e-03        00000 
-6.58144e-03 -1.57130e-02        00000 
 2.81222e-03 -7.33634e-03        00000 
 2.18131e-03 -1.52525e-02        00000 
 8.61422e-03 -8.66202e-03        00000 
 1.10928e-02 -1.66642e-02        00000 
 1.50678e-02 -1.17911e-02        00000 
 2.08560e-02 -2.03438e-02        00000 
 2.33525e-02 -1.81426e-02        00000 
 3.28234e-02 -2.74068e-02        00000 
 4.06976e-02 -3.17638e-02        00000 
 5.12033e-02 -3.98776e-02        00000 
-7.45558e-02 -7.18181e-02        00000 
-9.39413e-02 -9.13145e-02        00000 
-4.98940e-02 -6.26343e-02        00000 
-6.50092e-02 -8.15367e-02        00000 
-2.86901e-02 -5.67373e-02        00000 
-3.96663e-02 -7.48418e-02        00000 
-9.36913e-03 -5.39067e-02        00000 
-1.66091e-02 -7.12078e-02        00000 
 9.36746e-03 -5.39065e-02        00000 
 5.50950e-03 -7.04908e-02        00000 
 2.86884e-02 -5.67367e-02        00000 
 2.79375e-02 -7.26513e-02        00000 
 4.98923e-02 -6.26334e-02        00000 
 5.19610e-02 -7.77976e-02        00000 
 7.45539e-02 -7.18169e-02        00000 
 7.89667e-02 -8.60499e-02        00000 
 1.03617e-01 -8.37293e-02        00000 
 1.09960e-01 -9.73321e-02        00000 
-1.19143e-01 -1.47650e-01        00000 
-1.39812e-01 -1.72731e-01        00000 
-8.21094e-02 -1.39615e-01        00000 
-9.90686e-02 -1.64314e-01        00000 
-4.80322e-02 -1.34181e-01        00000 
-6.14720e-02 -1.58451e-01        00000 
-1.58038e-02 -1.31451e-01        00000 
-2.59652e-02 -1.55172e-01        00000 
 1.58005e-02 -1.31451e-01        00000 
 8.62700e-03 -1.54514e-01        00000 
 4.80289e-02 -1.34181e-01        00000 
 4.35252e-02 -1.56485e-01        00000 
 8.21062e-02 -1.39613e-01        00000 
 7.99359e-02 -1.61062e-01        00000 
 1.19140e-01 -1.47648e-01        00000 
 1.18983e-01 -1.68198e-01        00000 
 1.60051e-01 -1.58005e-01        00000 
 1.61654e-01 -1.77951e-01        00000 
-1.57309e-01 -2.46570e-01        00000 
-1.78972e-01 -2.76594e-01        00000 
-1.09538e-01 -2.39809e-01        00000 
-1.27906e-01 -2.69545e-01        00000 
-6.45791e-02 -2.35260e-01        00000 
-7.99100e-02 -2.64668e-01        00000 
-2.13356e-02 -2.32973e-01        00000 
-3.38925e-02 -2.61950e-01        00000 
 2.13304e-02 -2.32973e-01        00000 
 1.12699e-02 -2.61405e-01        00000 
 6.45740e-02 -2.35259e-01        00000 
 5.67180e-02 -2.63038e-01        00000 
 1.09533e-01 -2.39808e-01        00000 
 1.03586e-01 -2.66836e-01        00000 
 1.57304e-01 -2.46568e-01        00000 
 1.52982e-01 -2.72791e-01        00000 
 2.08968e-01 -2.55353e-01        00000 
 2.05987e-01 -2.80990e-01        00000 
-1.89127e-01 -3.65490e-01        00000 