<?xml version="1.0" encoding="utf-8"?>
<VTKFile byte_order="LittleEndian" type="UnstructuredGrid" version="0.1">
   <UnstructuredGrid>
      <Piece NumberOfCells="1296" NumberOfPoints="685">
         <Points>
            <DataArray Name="Points" NumberOfComponents="3" format="ascii" type="Float32">
0.0000 0.0000 0.0000
0.0000 0.1111 0.0000
0.0000 0.2222 0.0000
0.0000 0.3333 0.0000
0.0000 0.4444 0.0000
0.0000 0.5556 0.0000
0.0000 0.6667 0.0000
0.0000 0.7778 0.0000
0.0000 0.8889 0.0000
0.0000 1.0000 0.0000
0.2222 0.0000 0.0000
0.2222 0.1111 0.0000
0.2222 0.2222 0.0000
0.2222 0.3333 0.0000
0.2222 0.4444 0.0000
0.2222 0.5556 0.0000
0.2222 0.6667 0.0000
0.2222 0.7778 0.0000
0.2222 0.8889 0.0000
0.2222 1.0000 0.0000
0.4444 0.0000 0.0000
0.4444 0.1111 0.0000
0.4444 0.2222 0.0000
0.4444 0.3333 0.0000
0.4444 0.4444 0.0000
0.4444 0.5556 0.0000
0.4444 0.6667 0.0000
0.4444 0.7778 0.0000
0.4444 0.8889 0.0000
0.4444 1.0000 0.0000
0.6667 0.0000 0.0000
0.6667 0.1111 0.0000
0.6667 0.2222 0.0000
0.6667 0.3333 0.0000
0.6667 0.4444 0.0000
0.6667 0.5556 0.0000
0.6667 0.6667 0.0000
0.6667 0.7778 0.0000
0.6667 0.8889 0.0000
0.6667 1.0000 0.0000
0.8889 0.0000 0.0000
0.8889 0.1111 0.0000
0.8889 0.2222 0.0000
0.8889 0.3333 0.0000
0.8889 0.4444 0.0000
0.8889 0.5556 0.0000
0.8889 0.6667 0.0000
0.8889 0.7778 0.0000
0.8889 0.8889 0.0000
0.8889 1.0000 0.0000
1.1111 0.0000 0.0000
1.1111 0.1111 0.0000
1.1111 0.2222 0.0000
1.1111 0.3333 0.0000
1.1111 0.4444 0.0000
1.1111 0.5556 0.0000
1.1111 0.6667 0.0000
1.1111 0.7778 0.0000
1.1111 0.8889 0.0000
1.1111 1.0000 0.0000
1.3333 0.0000 0.0000
1.3333 0.1111 0.0000
1.3333 0.2222 0.0000
1.3333 0.3333 0.0000
1.3333 0.4444 0.0000
1.3333 0.5556 0.0000
1.3333 0.6667 0.0000
1.3333 0.7778 0.0000
1.3333 0.8889 0.0000
1.3333 1.0000 0.0000
1.5556 0.0000 0.0000
1.5556 0.1111 0.0000
1.5556 0.2222 0.0000
1.5556 0.3333 0.0000
1.5556 0.4444 0.0000
1.5556 0.5556 0.0000
1.5556 0.6667 0.0000
1.5556 0.7778 0.0000
1.5556 0.8889 0.0000
1.5556 1.0000 0.0000
1.7778 0.0000 0.0000
1.7778 0.1111 0.0000
1.7778 0.2222 0.0000
1.7778 0.3333 0.0000
1.7778 0.4444 0.0000
1.7778 0.5556 0.0000
1.7778 0.6667 0.0000
1.7778 0.7778 0.0000
1.7778 0.8889 0.0000
1.7778 1.0000 0.0000
2.0000 0.0000 0.0000
2.0000 0.1111 0.0000
2.0000 0.2222 0.0000
2.0000 0.3333 0.0000
2.0000 0.4444 0.0000
2.0000 0.5556 0.0000
2.0000 0.6667 0.0000
2.0000 0.7778 0.0000
2.0000 0.8889 0.0000
2.0000 1.0000 0.0000
0.1111 0.0556 0.0000
0.1111 0.1667 0.0000
0.1111 0.2778 0.0000
0.1111 0.3889 0.0000
0.1111 0.5000 0.0000
0.1111 0.6111 0.0000
0.1111 0.7222 0.0000
0.1111 0.8333 0.0000
0.1111 0.9444 0.0000
0.3333 0.0556 0.0000
0.3333 0.1667 0.0000
0.3333 0.2778 0.0000
0.3333 0.3889 0.0000
0.3333 0.5000 0.0000
0.3333 0.6111 0.0000
0.3333 0.7222 0.0000
0.3333 0.8333 0.0000
0.3333 0.9444 0.0000
0.5556 0.0556 0.0000
0.5556 0.1667 0.0000
0.5556 0.2778 0.0000
0.5556 0.3889 0.0000
0.5556 0.5000 0.0000
0.5556 0.6111 0.0000
0.5556 0.7222 0.0000
0.5556 0.8333 0.0000
0.5556 0.9444 0.0000
0.7778 0.0556 0.0000
0.7778 0.1667 0.0000
0.7778 0.2778 0.0000
0.7778 0.3889 0.0000
0.7778 0.5000 0.0000
0.7778 0.6111 0.0000
0.7778 0.7222 0.0000
0.7778 0.8333 0.0000
0.7778 0.9444 0.0000
1.0000 0.0556 0.0000
1.0000 0.1667 0.0000
1.0000 0.2778 0.0000
1.0000 0.3889 0.0000
1.0000 0.5000 0.0000
1.0000 0.6111 0.0000
1.0000 0.7222 0.0000
1.0000 0.8333 0.0000
1.0000 0.9444 0.0000
1.2222 0.0556 0.0000
1.2222 0.1667 0.0000
1.2222 0.2778 0.0000
1.2222 0.3889 0.0000
1.2222 0.5000 0.0000
1.2222 0.6111 0.0000
1.2222 0.7222 0.0000
1.2222 0.8333 0.0000
1.2222 0.9444 0.0000
1.4444 0.0556 0.0000
1.4444 0.1667 0.0000
1.4444 0.2778 0.0000
1.4444 0.3889 0.0000
1.4444 0.5000 0.0000
1.4444 0.6111 0.0000
1.4444 0.7222 0.0000
1.4444 0.8333 0.0000
1.4444 0.9444 0.0000
1.6667 0.0556 0.0000
1.6667 0.1667 0.0000
1.6667 0.2778 0.0000
1.6667 0.3889 0.0000
1.6667 0.5000 0.0000
1.6667 0.6111 0.0000
1.6667 0.7222 0.0000
1.6667 0.8333 0.0000
1.6667 0.9444 0.0000
1.8889 0.0556 0.0000
1.8889 0.1667 0.0000
1.8889 0.2778 0.0000
1.8889 0.3889 0.0000
1.8889 0.5000 0.0000
1.8889 0.6111 0.0000
1.8889 0.7222 0.0000
1.8889 0.8333 0.0000
1.8889 0.9444 0.0000
0.0000 0.0556 0.0000
0.0556 0.0278 0.0000
0.0556 0.0833 0.0000
0.0000 0.1667 0.0000
0.0556 0.1389 0.0000
0.0556 0.1944 0.0000
0.0000 0.2778 0.0000
0.0556 0.2500 0.0000
0.0556 0.3056 0.0000
0.0000 0.3889 0.0000
0.0556 0.3611 0.0000
0.0556 0.4167 0.0000
0.0000 0.5000 0.0000
0.0556 0.4722 0.0000
0.0556 0.5278 0.0000
0.0000 0.6111 0.0000
0.0556 0.5833 0.0000
0.0556 0.6389 0.0000
0.0000 0.7222 0.0000
0.0556 0.6944 0.0000
0.0556 0.7500 0.0000
0.0000 0.8333 0.0000
0.0556 0.8056 0.0000
0.0556 0.8611 0.0000
0.0000 0.9444 0.0000
0.0556 0.9167 0.0000
0.0556 0.9722 0.0000
0.2222 0.0556 0.0000
0.2778 0.0278 0.0000
0.2778 0.0833 0.0000
0.2222 0.1667 0.0000
0.2778 0.1389 0.0000
0.2778 0.1944 0.0000
0.2222 0.2778 0.0000
0.2778 0.2500 0.0000
0.2778 0.3056 0.0000
0.2222 0.3889 0.0000
0.2778 0.3611 0.0000
0.2778 0.4167 0.0000
0.2222 0.5000 0.0000
0.2778 0.4722 0.0000
0.2778 0.5278 0.0000
0.2222 0.6111 0.0000
0.2778 0.5833 0.0000
0.2778 0.6389 0.0000
0.2222 0.7222 0.0000
0.2778 0.6944 0.0000
0.2778 0.7500 0.0000
0.2222 0.8333 0.0000
0.2778 0.8056 0.0000
0.2778 0.8611 0.0000
0.2222 0.9444 0.0000
0.2778 0.9167 0.0000
0.2778 0.9722 0.0000
0.4444 0.0556 0.0000
0.5000 0.0278 0.0000
0.5000 0.0833 0.0000
0.4444 0.1667 0.0000
0.5000 0.1389 0.0000
0.5000 0.1944 0.0000
0.4444 0.2778 0.0000
0.5000 0.2500 0.0000
0.5000 0.3056 0.0000
0.4444 0.3889 0.0000
0.5000 0.3611 0.0000
0.5000 0.4167 0.0000
0.4444 0.5000 0.0000
0.5000 0.4722 0.0000
0.5000 0.5278 0.0000
0.4444 0.6111 0.0000
0.5000 0.5833 0.0000
0.5000 0.6389 0.0000
0.4444 0.7222 0.0000
0.5000 0.6944 0.0000
0.5000 0.7500 0.0000
0.4444 0.8333 0.0000
0.5000 0.8056 0.0000
0.5000 0.8611 0.0000
0.4444 0.9444 0.0000
0.5000 0.9167 0.0000
0.5000 0.9722 0.0000
0.6667 0.0556 0.0000
0.7222 0.0278 0.0000
0.7222 0.0833 0.0000
0.6667 0.1667 0.0000
0.7222 0.1389 0.0000
0.7222 0.1944 0.0000
0.6667 0.2778 0.0000
0.7222 0.2500 0.0000
0.7222 0.3056 0.0000
0.6667 0.3889 0.0000
0.7222 0.3611 0.0000
0.7222 0.4167 0.0000
0.6667 0.5000 0.0000
0.7222 0.4722 0.0000
0.7222 0.5278 0.0000
0.6667 0.6111 0.0000
0.7222 0.5833 0.0000
0.7222 0.6389 0.0000
0.6667 0.7222 0.0000
0.7222 0.6944 0.0000
0.7222 0.7500 0.0000
0.6667 0.8333 0.0000
0.7222 0.8056 0.0000
0.7222 0.8611 0.0000
0.6667 0.9444 0.0000
0.7222 0.9167 0.0000
0.7222 0.9722 0.0000
0.8889 0.0556 0.0000
0.9444 0.0278 0.0000
0.9444 0.0833 0.0000
0.8889 0.1667 0.0000
0.9444 0.1389 0.0000
0.9444 0.1944 0.0000
0.8889 0.2778 0.0000
0.9444 0.2500 0.0000
0.9444 0.3056 0.0000
0.8889 0.3889 0.0000
0.9444 0.3611 0.0000
0.9444 0.4167 0.0000
0.8889 0.5000 0.0000
0.9444 0.4722 0.0000
0.9444 0.5278 0.0000
0.8889 0.6111 0.0000
0.9444 0.5833 0.0000
0.9444 0.6389 0.0000
0.8889 0.7222 0.0000
0.9444 0.6944 0.0000
0.9444 0.7500 0.0000
0.8889 0.8333 0.0000
0.9444 0.8056 0.0000
0.9444 0.8611 0.0000
0.8889 0.9444 0.0000
0.9444 0.9167 0.0000
0.9444 0.9722 0.0000
1.1111 0.0556 0.0000
1.1667 0.0278 0.0000
1.1667 0.0833 0.0000
1.1111 0.1667 0.0000
1.1667 0.1389 0.0000
1.1667 0.1944 0.0000
1.1111 0.2778 0.0000
1.1667 0.2500 0.0000
1.1667 0.3056 0.0000
1.1111 0.3889 0.0000
1.1667 0.3611 0.0000
1.1667 0.4167 0.0000
1.1111 0.5000 0.0000
1.1667 0.4722 0.0000
1.1667 0.5278 0.0000
1.1111 0.6111 0.0000
1.1667 0.5833 0.0000
1.1667 0.6389 0.0000
1.1111 0.7222 0.0000
1.1667 0.6944 0.0000
1.1667 0.7500 0.0000
1.1111 0.8333 0.0000
1.1667 0.8056 0.0000
1.1667 0.8611 0.0000
1.1111 0.9444 0.0000
1.1667 0.9167 0.0000
1.1667 0.9722 0.0000
1.3333 0.0556 0.0000
1.3889 0.0278 0.0000
1.3889 0.0833 0.0000
1.3333 0.1667 0.0000
1.3889 0.1389 0.0000
1.3889 0.1944 0.0000
1.3333 0.2778 0.0000
1.3889 0.2500 0.0000
1.3889 0.3056 0.0000
1.3333 0.3889 0.0000
1.3889 0.3611 0.0000
1.3889 0.4167 0.0000
1.3333 0.5000 0.0000
1.3889 0.4722 0.0000
1.3889 0.5278 0.0000
1.3333 0.6111 0.0000
1.3889 0.5833 0.0000
1.3889 0.6389 0.0000
1.3333 0.7222 0.0000
1.3889 0.6944 0.0000
1.3889 0.7500 0.0000
1.3333 0.8333 0.0000
1.3889 0.8056 0.0000
1.3889 0.8611 0.0000
1.3333 0.9444 0.0000
1.3889 0.9167 0.0000
1.3889 0.9722 0.0000
1.5556 0.0556 0.0000
1.6111 0.0278 0.0000
1.6111 0.0833 0.0000
1.5556 0.1667 0.0000
1.6111 0.1389 0.0000
1.6111 0.1944 0.0000
1.5556 0.2778 0.0000
1.6111 0.2500 0.0000
1.6111 0.3056 0.0000
1.5556 0.3889 0.0000
1.6111 0.3611 0.0000
1.6111 0.4167 0.0000
1.5556 0.5000 0.0000
1.6111 0.4722 0.0000
1.6111 0.5278 0.0000
1.5556 0.6111 0.0000
1.6111 0.5833 0.0000
1.6111 0.6389 0.0000
1.5556 0.7222 0.0000
1.6111 0.6944 0.0000
1.6111 0.7500 0.0000
1.5556 0.8333 0.0000
1.6111 0.8056 0.0000
1.6111 0.8611 0.0000
1.5556 0.9444 0.0000
1.6111 0.9167 0.0000
1.6111 0.9722 0.0000
1.7778 0.0556 0.0000
1.8333 0.0278 0.0000
1.8333 0.0833 0.0000
1.7778 0.1667 0.0000
1.8333 0.1389 0.0000
1.8333 0.1944 0.0000
1.7778 0.2778 0.0000
1.8333 0.2500 0.0000
1.8333 0.3056 0.0000
1.7778 0.3889 0.0000
1.8333 0.3611 0.0000
1.8333 0.4167 0.0000
1.7778 0.5000 0.0000
1.8333 0.4722 0.0000
1.8333 0.5278 0.0000
1.7778 0.6111 0.0000
1.8333 0.5833 0.0000
1.8333 0.6389 0.0000
1.7778 0.7222 0.0000
1.8333 0.6944 0.0000
1.8333 0.7500 0.0000
1.7778 0.8333 0.0000
1.8333 0.8056 0.0000
1.8333 0.8611 0.0000
1.7778 0.9444 0.0000
1.8333 0.9167 0.0000
1.8333 0.9722 0.0000
0.1111 0.1111 0.0000
0.1667 0.0833 0.0000
0.1111 0.2222 0.0000
0.1667 0.1944 0.0000
0.1111 0.3333 0.0000
0.1667 0.3056 0.0000
0.1111 0.4444 0.0000
0.1667 0.4167 0.0000
0.1111 0.5556 0.0000
0.1667 0.5278 0.0000
0.1111 0.6667 0.0000
0.1667 0.6389 0.0000
0.1111 0.7778 0.0000
0.1667 0.7500 0.0000
0.1111 0.8889 0.0000
0.1667 0.8611 0.0000
0.1111 1.0000 0.0000
0.1667 0.9722 0.0000
0.3333 0.1111 0.0000
0.3889 0.0833 0.0000
0.3333 0.2222 0.0000
0.3889 0.1944 0.0000
0.3333 0.3333 0.0000
0.3889 0.3056 0.0000
0.3333 0.4444 0.0000
0.3889 0.4167 0.0000
0.3333 0.5556 0.0000
0.3889 0.5278 0.0000
0.3333 0.6667 0.0000
0.3889 0.6389 0.0000
0.3333 0.7778 0.0000
0.3889 0.7500 0.0000
0.3333 0.8889 0.0000
0.3889 0.8611 0.0000
0.3333 1.0000 0.0000
0.3889 0.9722 0.0000
0.5556 0.1111 0.0000
[...]
         <PointData>
            <DataArray Name="fValues" NumberOfComponents="3" format="ascii" type="Float64">
 1.22377e-15 -6.11883e-16        00000 
 2.11287e-15 -4.62191e-16        00000 
-3.21138e-16  1.83858e-16        00000 
-6.57565e-16 -7.23322e-16        00000 
-3.06087e-16 -1.02115e-16        00000 
       00000 -1.31513e-16        00000 
 7.53987e-16 -1.06858e-15        00000 
 5.25576e-16  3.28485e-16        00000 
 3.17007e-15 -1.58503e-15        00000 
-2.44753e-15 -1.22377e-15        00000 
-4.91683e+01 -3.73108e+01        00000 
-3.34793e+01 -2.86687e+01        00000 
-2.18241e+01 -2.25921e+01        00000 
-1.24321e+01 -1.90826e+01        00000 
-4.05517e+00 -1.74949e+01        00000 
 4.04976e+00 -1.75045e+01        00000 
 1.24404e+01 -1.91133e+01        00000 
 2.17930e+01 -2.26460e+01        00000 
 3.34328e+01 -2.87371e+01        00000 
 4.91421e+01 -3.73808e+01        00000 
-8.95356e+01 -7.93194e+01        00000 
-6.58992e+01 -7.18061e+01        00000 
-4.49196e+01 -6.59594e+01        00000 
-2.60756e+01 -6.20385e+01        00000 
-8.53078e+00 -6.01037e+01        00000 
 8.58647e+00 -6.01239e+01        00000 
 2.61220e+01 -6.20855e+01        00000 
 4.49447e+01 -6.60221e+01        00000 
 6.58849e+01 -7.18800e+01        00000 
 8.94860e+01 -7.93980e+01        00000 
-1.25176e+02 -1.37389e+02        00000 
-9.38115e+01 -1.30927e+02        00000 
-6.50499e+01 -1.25936e+02        00000 
-3.82089e+01 -1.22567e+02        00000 
-1.25615e+01 -1.20865e+02        00000 
 1.26902e+01 -1.20849e+02        00000 
 3.83187e+01 -1.22541e+02        00000 
 6.51244e+01 -1.25906e+02        00000 
 9.38607e+01 -1.30897e+02        00000 
 1.25188e+02 -1.37377e+02        00000 
-1.55529e+02 -2.10155e+02        00000 
-1.17450e+02 -2.04751e+02        00000 
-8.19810e+01 -2.00600e+02        00000 
-4.84084e+01 -1.97806e+02        00000 
-1.59890e+01 -1.96392e+02        00000 
 1.60757e+01 -1.96364e+02        00000 
 4.85172e+01 -1.97736e+02        00000 
 8.20829e+01 -2.00506e+02        00000 
 1.17528e+02 -2.04644e+02        00000 
 1.55601e+02 -2.10047e+02        00000 
-1.80433e+02 -2.95143e+02        00000 
-1.36824e+02 -2.90813e+02        00000 
-9.58523e+01 -2.87492e+02        00000 
-5.67598e+01 -2.85264e+02        00000 
-1.87973e+01 -2.84149e+02        00000 
 1.88120e+01 -2.84135e+02        00000 
 5.68098e+01 -2.85232e+02        00000 
 9.59239e+01 -2.87439e+02        00000 
 1.36910e+02 -2.90757e+02        00000 
 1.80525e+02 -2.95096e+02        00000 
-1.99925e+02 -3.90044e+02        00000 
-1.51976e+02 -3.86771e+02        00000 
-1.06643e+02 -3.84302e+02        00000 
-6.32245e+01 -3.82684e+02        00000 
-2.09649e+01 -3.81882e+02        00000 
 2.08988e+01 -3.81866e+02        00000 
 6.31906e+01 -3.82639e+02        00000 
 1.06651e+02 -3.84246e+02        00000 
 1.51999e+02 -3.86702e+02        00000 
 1.99960e+02 -3.89953e+02        00000 
-2.14091e+02 -4.92366e+02        00000 
-1.62865e+02 -4.90141e+02        00000 
-1.14227e+02 -4.88572e+02        00000 
-6.76777e+01 -4.87611e+02        00000 
-2.24749e+01 -4.87154e+02        00000 
 2.22801e+01 -4.87148e+02        00000 
 6.75232e+01 -4.87587e+02        00000 
 1.14122e+02 -4.88520e+02        00000 
 1.62771e+02 -4.90064e+02        00000 
 2.13970e+02 -4.92262e+02        00000 
-2.23524e+02 -6.00106e+02        00000 
-1.69419e+02 -5.98893e+02        00000 
-1.18356e+02 -5.98162e+02        00000 
-6.99770e+01 -5.97637e+02        00000 
-2.32250e+01 -5.97349e+02        00000 
 2.29786e+01 -5.97356e+02        00000 
 6.97106e+01 -5.97642e+02        00000 
 1.18095e+02 -5.98143e+02        00000 
 1.69175e+02 -5.98836e+02        00000 
 2.23293e+02 -6.00010e+02        00000 
-2.29349e+02 -7.17345e+02        00000 
-1.72146e+02 -7.14530e+02        00000 
-1.20262e+02 -7.11194e+02        00000 
-7.11769e+01 -7.08636e+02        00000 
-2.36437e+01 -7.07265e+02        00000 
 2.33808e+01 -7.07248e+02        00000 
 7.08986e+01 -7.08603e+02        00000 
 1.19951e+02 -7.11168e+02        00000 
 1.71838e+02 -7.14517e+02        00000 
 2.29060e+02 -7.17332e+02        00000 
-1.99022e+01 -1.58823e+01        00000 
-1.27116e+01 -9.66771e+00        00000 
-7.90362e+00 -6.66281e+00        00000 
-3.82240e+00 -5.24104e+00        00000 
-5.17828e-04 -4.81689e+00        00000 
 3.82240e+00 -5.24901e+00        00000 
 7.89266e+00 -6.69664e+00        00000 
 1.26832e+01 -9.70374e+00        00000 
 1.98834e+01 -1.59064e+01        00000 
-5.97308e+01 -5.21241e+01        00000 
-4.16277e+01 -4.49211e+01        00000 
-2.62790e+01 -3.98424e+01        00000 
-1.27279e+01 -3.69289e+01        00000 
 6.14980e-03 -3.60016e+01        00000 
 1.27510e+01 -3.69649e+01        00000 
 2.62864e+01 -3.98956e+01        00000 
 4.15988e+01 -4.50000e+01        00000 
 5.96864e+01 -5.22217e+01        00000 
-9.38282e+01 -1.02729e+02        00000 
-6.76054e+01 -9.64761e+01        00000 
-4.36882e+01 -9.19137e+01        00000 
-2.13970e+01 -8.91542e+01        00000 
 5.15425e-02 -8.82371e+01        00000 
 2.14892e+01 -8.91689e+01        00000 
 4.37545e+01 -9.19319e+01        00000 
 6.76345e+01 -9.64916e+01        00000 
 9.38261e+01 -1.02744e+02        00000 
-1.23222e+02 -1.68977e+02        00000 
-8.97533e+01 -1.63685e+02        00000 
-5.85302e+01 -1.59857e+02        00000 
-2.88547e+01 -1.57537e+02        00000 
 5.84486e-02 -1.56744e+02        00000 
 2.89759e+01 -1.57491e+02        00000 
 5.86427e+01 -1.59790e+02        00000 
 8.98364e+01 -1.63612e+02        00000 
 1.23280e+02 -1.68891e+02        00000 
-1.47784e+02 -2.48703e+02        00000 
-1.08199e+02 -2.44384e+02        00000 
-7.08661e+01 -2.41259e+02        00000 
-3.50529e+01 -2.39364e+02        00000 
 2.07832e-02 -2.38718e+02        00000 
 3.51115e+01 -2.39322e+02        00000 
 7.09507e+01 -2.41183e+02        00000 
 1.08286e+02 -2.44296e+02        00000 
 1.47866e+02 -2.48618e+02        00000 
-1.67512e+02 -3.39513e+02        00000 
-1.23003e+02 -3.36136e+02        00000 
-8.07449e+01 -3.33719e+02        00000 
-3.99986e+01 -3.32275e+02        00000 
-1.73775e-02 -3.31796e+02        00000 
 3.99983e+01 -3.32259e+02        00000 
 8.07786e+01 -3.33680e+02        00000 
 1.23058e+02 -3.36083e+02        00000 
 1.67581e+02 -3.39441e+02        00000 
-1.82436e+02 -4.38975e+02        00000 
-1.34113e+02 -4.36576e+02        00000 
-8.80768e+01 -4.34927e+02        00000 
-4.36599e+01 -4.33976e+02        00000 
-6.77223e-02 -4.33653e+02        00000 
 4.35437e+01 -4.33943e+02        00000 
 8.80198e+01 -4.34870e+02        00000 
 1.34085e+02 -4.36506e+02        00000 
 1.82400e+02 -4.38888e+02        00000 
-1.92686e+02 -5.44684e+02        00000 
-1.41395e+02 -5.43280e+02        00000 
-9.26687e+01 -5.42426e+02        00000 
-4.58899e+01 -5.41956e+02        00000 
-1.17269e-01 -5.41809e+02        00000 
 4.56579e+01 -5.41962e+02        00000 
 9.24621e+01 -5.42408e+02        00000 
 1.41218e+02 -5.43224e+02        00000 
 1.92506e+02 -5.44595e+02        00000 
-1.98379e+02 -6.55933e+02        00000 
-1.44655e+02 -6.55059e+02        00000 
-9.46153e+01 -6.53989e+02        00000 
-4.68228e+01 -6.53168e+02        00000 
-1.20388e-01 -6.52861e+02        00000 
 4.65641e+01 -6.53156e+02        00000 
 9.43263e+01 -6.53975e+02        00000 
 1.44360e+02 -6.55036e+02        00000 
 1.98102e+02 -6.55903e+02        00000 
-3.51505e-15  1.38857e-15        00000 
-1.08748e+01 -8.29827e+00        00000 
-8.25941e+00 -5.83705e+00        00000 
 1.55232e-15  2.19157e-16        00000 
-6.66177e+00 -4.29436e+00        00000 
-5.40287e+00 -3.25125e+00        00000 
-1.24900e-15  1.24900e-16        00000 
-4.29685e+00 -2.52239e+00        00000 
-3.27161e+00 -2.01505e+00        00000 
 5.10145e-17  6.41520e-16        00000 
-2.30622e+00 -1.67448e+00        00000 
-1.37213e+00 -1.46165e+00        00000 
 9.36751e-17 -6.86950e-16        00000 
-4.58570e-01 -1.36294e+00        00000 
 4.52512e-01 -1.36360e+00        00000 
-2.50565e-16 -3.21504e-16        00000 
 1.36733e+00 -1.46805e+00        00000 
 2.29898e+00 -1.68232e+00        00000 
 4.99600e-16 -6.24500e-16        00000 
 3.26513e+00 -2.03040e+00        00000 
 4.28429e+00 -2.54009e+00        00000 
-2.49800e-16 -4.99600e-16        00000 
 5.38809e+00 -3.26743e+00        00000 
 6.64771e+00 -4.31039e+00        00000 
-5.76376e-16  2.72803e-17        00000 
 8.24573e+00 -5.84733e+00        00000 
 1.08678e+01 -8.30659e+00        00000 
-4.08662e+01 -3.28109e+01        00000 
-5.49756e+01 -4.43725e+01        00000 
-4.61641e+01 -4.00442e+01        00000 
-2.72497e+01 -2.52662e+01        00000 
-3.81855e+01 -3.62597e+01        00000 
-3.10736e+01 -3.31222e+01        00000 
-1.69416e+01 -2.05627e+01        00000 
-2.46412e+01 -3.06235e+01        00000 
-1.87095e+01 -2.87109e+01        00000 
-8.16656e+00 -1.80762e+01        00000 
-1.31341e+01 -2.73348e+01        00000 
-7.79694e+00 -2.64454e+01        00000 
-5.67734e-03 -1.73065e+01        00000 
-2.58786e+00 -2.60114e+01        00000 
 2.58686e+00 -2.60172e+01        00000 
 8.17406e+00 -1.80979e+01        00000 
 7.80472e+00 -2.64647e+01        00000 
 1.31512e+01 -2.73665e+01        00000 
 1.69365e+01 -2.06057e+01        00000 
 1.87169e+01 -2.87536e+01        00000 
 2.46289e+01 -3.06763e+01        00000 
 2.72044e+01 -2.53264e+01        00000 
 3.10398e+01 -3.31874e+01        00000 
 3.81414e+01 -3.63395e+01        00000 
 4.08234e+01 -3.28777e+01        00000 
 4.61151e+01 -4.01307e+01        00000 
 5.49291e+01 -4.44603e+01        00000 
-7.73637e+01 -7.53884e+01        00000 
-9.22325e+01 -9.06612e+01        00000 
-7.94269e+01 -8.68614e+01        00000 
-5.51044e+01 -6.86528e+01        00000 
-6.73019e+01 -8.35547e+01        00000 
-5.57970e+01 -8.07123e+01        00000 
-3.52825e+01 -6.37508e+01        00000 
-4.48564e+01 -7.83333e+01        00000 
-3.43847e+01 -7.64286e+01        00000 
-1.71963e+01 -6.08218e+01        00000 
-2.42811e+01 -7.49987e+01        00000 
-1.44444e+01 -7.40501e+01        00000 
 2.79517e-02 -5.98736e+01        00000 
-4.76667e+00 -7.35811e+01        00000 
 4.84774e+00 -7.35914e+01        00000 
 1.72433e+01 -6.08607e+01        00000 
 1.45165e+01 -7.40739e+01        00000 
 2.43423e+01 -7.50341e+01        00000 
 3.53161e+01 -6.38064e+01        00000 
 3.44362e+01 -7.64671e+01        00000 
 4.48964e+01 -7.83771e+01        00000 
 5.51052e+01 -6.87215e+01        00000 
 5.58255e+01 -8.07549e+01        00000 
 6.73076e+01 -8.35996e+01        00000 
 7.73296e+01 -7.54602e+01        00000 
 7.94149e+01 -8.69060e+01        00000 
 9.22033e+01 -9.07072e+01        00000 
-1.09123e+02 -1.33998e+02        00000 
-1.24693e+02 -1.52855e+02        00000 
-1.08135e+02 -1.49599e+02        00000 
-7.91484e+01 -1.28236e+02        00000 
-9.22655e+01 -1.46784e+02        00000 
-7.70065e+01 -1.44375e+02        00000 
-5.14349e+01 -1.24045e+02        00000 
-6.22647e+01 -1.42368e+02        00000 
-4.79580e+01 -1.40759e+02        00000 
-2.52851e+01 -1.21506e+02        00000 
-3.39920e+01 -1.39545e+02        00000 
-2.02728e+01 -1.38727e+02        00000 
 6.40682e-02 -1.20645e+02        00000 
-6.69922e+00 -1.38309e+02        00000 
 6.82785e+00 -1.38299e+02        00000 
 2.54053e+01 -1.21486e+02        00000 
 2.03999e+01 -1.38699e+02        00000 
 3.41128e+01 -1.39502e+02        00000 
 5.15290e+01 -1.24016e+02        00000 
 4.80678e+01 -1.40710e+02        00000 
 6.23597e+01 -1.42319e+02        00000 
 7.92089e+01 -1.28202e+02        00000 
 7.70873e+01 -1.44322e+02        00000 
 9.23368e+01 -1.46731e+02        00000 
 1.09154e+02 -1.33970e+02        00000 
 1.08188e+02 -1.49547e+02        00000 
 1.24732e+02 -1.52797e+02        00000 
-1.36111e+02 -2.07317e+02        00000 
-1.52079e+02 -2.29143e+02        00000 
-1.32308e+02 -2.26451e+02        00000 
-9.94387e+01 -2.02507e+02        00000 
-1.13237e+02 -2.24127e+02        00000 
-9.47677e+01 -2.22145e+02        00000 
-6.50018e+01 -1.99030e+02        00000 
-7.68173e+01 -2.20492e+02        00000 
-5.92986e+01 -2.19163e+02        00000 
-3.21094e+01 -1.96923e+02        00000 
-4.21148e+01 -2.18161e+02        00000 
-2.51683e+01 -2.17491e+02        00000 
 4.13112e-02 -1.96204e+02        00000 
-8.35258e+00 -2.17145e+02        00000 
 8.41543e+00 -2.17133e+02        00000 
 3.22039e+01 -1.96878e+02        00000 
 2.52354e+01 -2.17455e+02        00000 
 4.22006e+01 -2.18103e+02        00000 
 6.51065e+01 -1.98947e+02        00000 
 5.93937e+01 -2.19086e+02        00000 
 7.69141e+01 -2.20404e+02        00000 
 9.95287e+01 -2.02406e+02        00000 
 9.48654e+01 -2.22047e+02        00000 
 1.13322e+02 -2.24028e+02        00000 
 1.36182e+02 -2.07203e+02        00000 
 1.32386e+02 -2.26353e+02        00000 
 1.52154e+02 -2.29040e+02        00000 
-1.58252e+02 -2.92869e+02        00000 
-1.74317e+02 -3.17088e+02        00000 
-1.51932e+02 -3.14955e+02        00000 
-1.16057e+02 -2.89019e+02        00000 
-1.30248e+02 -3.13114e+02        00000 
-1.09178e+02 -3.11544e+02        00000 
-7.61198e+01 -2.86241e+02        00000 
-8.86259e+01 -3.10243e+02        00000 
-6.84942e+01 -3.09199e+02        00000 
-3.76855e+01 -2.84568e+02        00000 
-4.86916e+01 -3.08422e+02        00000 
-2.91241e+01 -3.07904e+02        00000 
-2.52488e-04 -2.84007e+02        00000 
-9.69683e+00 -3.07639e+02        00000 
 9.68606e+00 -3.07636e+02        00000 
 3.77153e+01 -2.84546e+02        00000 
 2.91284e+01 -3.07889e+02        00000 
 4.87101e+01 -3.08398e+02        00000 
 7.61791e+01 -2.86197e+02        00000 
 6.85303e+01 -3.09165e+02        00000 
 8.86773e+01 -3.10199e+02        00000 
 1.16134e+02 -2.88961e+02        00000 
 1.09245e+02 -3.11493e+02        00000 
 1.30326e+02 -3.13058e+02        00000 
 1.58336e+02 -2.92815e+02        00000 
 1.52014e+02 -3.14895e+02        00000 
 1.74400e+02 -3.17026e+02        00000 
-1.75571e+02 -3.88321e+02        00000 
-1.91447e+02 -4.14312e+02        00000 
-1.67036e+02 -4.12737e+02        00000 
-1.29029e+02 -3.85428e+02        00000 
-1.43316e+02 -4.11391e+02        00000 
-1.20201e+02 -4.10262e+02        00000 
-8.47398e+01 -3.83389e+02        00000 
-9.76135e+01 -4.09337e+02        00000 
-7.54683e+01 -4.08610e+02        00000 
-4.19973e+01 -3.82185e+02        00000 
-5.36707e+01 -4.08073e+02        00000 
-3.21236e+01 -4.07713e+02        00000 
-3.70791e-02 -3.81779e+02        00000 
-1.07263e+01 -4.07528e+02        00000 
 1.06203e+01 -4.07517e+02        00000 
 4.19409e+01 -3.82152e+02        00000 
 3.20259e+01 -4.07683e+02        00000 
 5.35954e+01 -4.08029e+02        00000 
 8.47283e+01 -3.83338e+02        00000 
 7.54219e+01 -4.08555e+02        00000 
 9.75935e+01 -4.09275e+02        00000 
 1.29046e+02 -3.85368e+02        00000 
 1.20196e+02 -4.10197e+02        00000 
 1.43314e+02 -4.11324e+02        00000 
 1.75605e+02 -3.88243e+02        00000 
 1.67035e+02 -4.12665e+02        00000 
 1.91452e+02 -4.14225e+02        00000 
-1.88128e+02 -4.91181e+02        00000 
-2.03606e+02 -5.18370e+02        00000 
-1.77653e+02 -5.17329e+02        00000 
-1.38249e+02 -4.89275e+02        00000 
-1.52359e+02 -5.16481e+02        00000 
-1.27697e+02 -5.15811e+02        00000 
-9.07317e+01 -4.88024e+02        00000 
-1.03630e+02 -5.15290e+02        00000 
-8.00755e+01 -5.14894e+02        00000 
-4.49670e+01 -4.87327e+02        00000 
-5.69291e+01 -5.14606e+02        00000 
-3.40841e+01 -5.14423e+02        00000 
-1.02629e-01 -4.87096e+02        00000 
-1.14168e+01 -5.14332e+02        00000 
 1.11921e+01 -5.14332e+02        00000 
 4.47814e+01 -4.87311e+02        00000 
 3.38661e+01 -5.14421e+02        00000 
 5.67283e+01 -5.14599e+02        00000 
 9.06004e+01 -4.87984e+02        00000 
 7.98953e+01 -5.14874e+02        00000 
 1.03470e+02 -5.15258e+02        00000 
 1.38155e+02 -4.89207e+02        00000 
 1.27559e+02 -5.15762e+02        00000 
 1.52223e+02 -5.16415e+02        00000 
 1.88019e+02 -4.91090e+02        00000 
 1.77516e+02 -5.17247e+02        00000 
 2.03455e+02 -5.18272e+02        00000 
-1.96155e+02 -5.99405e+02        00000 
-2.11361e+02 -6.27709e+02        00000 
-1.83763e+02 -6.27191e+02        00000 
-1.43494e+02 -5.98496e+02        00000 
-1.57128e+02 -6.26792e+02        00000 
-1.31418e+02 -6.26418e+02        00000 
-9.38902e+01 -5.97875e+02        00000 
-1.06500e+02 -6.26060e+02        00000 
-8.22144e+01 -6.25730e+02        00000 
-4.64638e+01 -5.97457e+02        00000 
-5.84195e+01 -6.25460e+02        00000 
-3.49615e+01 -6.25266e+02        00000 
-1.21457e-01 -5.97316e+02        00000 
-1.17105e+01 -6.25167e+02        00000 
 1.14694e+01 -6.25166e+02        00000 
 4.62047e+01 -5.97465e+02        00000 
 3.47070e+01 -6.25267e+02        00000 
 5.81498e+01 -6.25459e+02        00000 
 9.36275e+01 -5.97872e+02        00000 
 8.19341e+01 -6.25729e+02        00000 
 1.06218e+02 -6.26048e+02        00000 
 1.43242e+02 -5.98459e+02        00000 
 1.31138e+02 -6.26397e+02        00000 
 1.56850e+02 -6.26757e+02        00000 
 1.95916e+02 -5.99327e+02        00000 
 1.83494e+02 -6.27140e+02        00000 
 2.11106e+02 -6.27651e+02        00000 
-1.57577e+01 -1.21925e+01        00000 
-2.74437e+01 -2.20819e+01        00000 
-1.01718e+01 -7.90658e+00        00000 
-1.78325e+01 -1.56722e+01        00000 
-5.80690e+00 -5.80331e+00        00000 
-1.06606e+01 -1.21924e+01        00000 
-1.89865e+00 -4.92065e+00        00000 
-4.44053e+00 -1.05447e+01        00000 
 1.89117e+00 -4.92467e+00        00000 
 1.46737e+00 -1.02373e+01        00000 
 5.80544e+00 -5.82455e+00        00000 
 7.48329e+00 -1.12018e+01        00000 
 1.01476e+01 -7.94275e+00        00000 
 1.40526e+01 -1.36964e+01        00000 
 1.57307e+01 -1.22222e+01        00000 
 2.21116e+01 -1.84624e+01        00000 
 2.74247e+01 -2.14005e+01        00000 
 3.45036e+01 -2.68731e+01        00000 
-5.03054e+01 -4.82885e+01        00000 
-6.33786e+01 -6.14224e+01        00000 
-3.36610e+01 -4.21020e+01        00000 
-4.38578e+01 -5.48265e+01        00000 
-1.93420e+01 -3.81254e+01        00000 
-2.67482e+01 -5.03078e+01        00000 
-6.31509e+00 -3.62274e+01        00000 
-1.11892e+01 -4.78607e+01        00000 
 6.33231e+00 -3.62473e+01        00000 
 3.73646e+00 -4.73970e+01        00000 
 1.93632e+01 -3.81712e+01        00000 
 1.88693e+01 -4.88790e+01        00000 
 3.36506e+01 -4.21676e+01        00000 
 3.50637e+01 -5.23710e+01        00000 
 5.02657e+01 -4.83776e+01        00000 
 5.32599e+01 -5.79550e+01        00000 
 6.98375e+01 -5.64221e+01        00000 
 7.41355e+01 -6.55758e+01        00000 
-8.03930e+01 -9.94021e+01        00000 
-9.43442e+01 -1.16319e+02        00000 
-5.53985e+01 -9.39767e+01        00000 
-6.68435e+01 -1.10636e+02        00000 
-3.23879e+01 -9.03063e+01        00000 
-4.14584e+01 -1.06678e+02        00000 
-1.06182e+01 -8.84667e+01        00000 
-1.74757e+01 -1.04463e+02        00000 
 1.07158e+01 -8.84743e+01        00000 
 5.88460e+00 -1.04012e+02        00000 
 3.24641e+01 -9.03248e+01        00000 
 2.94423e+01 -1.05344e+02        00000 
 5.54449e+01 -9.39928e+01        00000 
 5.39987e+01 -1.08433e+02        00000 
 8.04044e+01 -9.94175e+01        00000 
 8.03294e+01 -1.13248e+02        00000 
 1.07970e+02 -1.06417e+02        00000 
 1.09089e+02 -1.19842e+02        00000 
-1.06164e+02 -1.66157e+02        00000 
-1.20793e+02 -1.86429e+02        00000 
-7.39052e+01 -1.61584e+02        00000 
-8.63106e+01 -1.81658e+02        00000 
-4.35463e+01 -1.58509e+02        00000 
-5.38952e+01 -1.78358e+02        00000 
-1.43504e+01 -1.56950e+02        00000 
-2.28372e+01 -1.76504e+02        00000 
 1.44690e+01 -1.56925e+02        00000 
 7.66069e+00 -1.76110e+02        00000 
 4.36659e+01 -1.58451e+02        00000 
 3.83645e+01 -1.77188e+02        00000 
 7.39998e+01 -1.61513e+02        00000 
 6.99914e+01 -1.79740e+02        00000 
 1.06232e+02 -1.66077e+02        00000 
 1.03332e+02 -1.83757e+02        00000 
 1.41082e+02 -1.72014e+02        00000 
 1.39094e+02 -1.89294e+02        00000 
-1.27666e+02 -2.46400e+02        00000 