<?xml version="1.0" encoding="utf-8"?>
<VTKFile byte_order="LittleEndian" type="UnstructuredGrid" version="0.1">
   <UnstructuredGrid>
      <Piece NumberOfCells="1296" NumberOfPoints="685">
         <Points>
            <DataArray Name="Points" NumberOfComponents="3" format="ascii" type="Float32">
0.0000 0.0000 0.0000
0.0000 0.1111 0.0000
0.0000 0.2222 0.0000
0.0000 0.3333 0.0000
0.0000 0.4444 0.0000
0.0000 0.5556 0.0000
0.0000 0.6667 0.0000
0.0000 0.7778 0.0000
0.0000 0.8889 0.0000
0.0000 1.0000 0.0000
0.2222 0.0000 0.0000
0.2222 0.1111 0.0000
0.2222 0.2222 0.0000
0.2222 0.3333 0.0000
0.2222 0.4444 0.0000
0.2222 0.5556 0.0000
0.2222 0.6667 0.0000
0.2222 0.7778 0.0000
0.2222 0.8889 0.0000
0.2222 1.0000 0.0000
0.4444 0.0000 0.0000
0.4444 0.1111 0.0000
0.4444 0.2222 0.0000
0.4444 0.3333 0.0000
0.4444 0.4444 0.0000
0.4444 0.5556 0.0000
0.4444 0.6667 0.0000
0.4444 0.7778 0.0000
0.4444 0.8889 0.0000
0.4444 1.0000 0.0000
0.6667 0.0000 0.0000
0.6667 0.1111 0.0000
0.6667 0.2222 0.0000
0.6667 0.3333 0.0000
0.6667 0.4444 0.0000
0.6667 0.5556 0.0000
0.6667 0.6667 0.0000
0.6667 0.7778 0.0000
0.6667 0.8889 0.0000
0.6667 1.0000 0.0000
0.8889 0.0000 0.0000
0.8889 0.1111 0.0000
0.8889 0.2222 0.0000
0.8889 0.3333 0.0000
0.8889 0.4444 0.0000
0.8889 0.5556 0.0000
0.8889 0.6667 0.0000
0.8889 0.7778 0.0000
0.8889 0.8889 0.0000
0.8889 1.0000 0.0000
1.1111 0.0000 0.0000
1.1111 0.1111 0.0000
1.1111 0.2222 0.0000
1.1111 0.3333 0.0000
1.1111 0.4444 0.0000
1.1111 0.5556 0.0000
1.1111 0.6667 0.0000
1.1111 0.7778 0.0000
1.1111 0.8889 0.0000
1.1111 1.0000 0.0000
1.3333 0.0000 0.0000
1.3333 0.1111 0.0000
1.3333 0.2222 0.0000
1.3333 0.3333 0.0000
1.3333 0.4444 0.0000
1.3333 0.5556 0.0000
1.3333 0.6667 0.0000
1.3333 0.7778 0.0000
1.3333 0.8889 0.0000
1.3333 1.0000 0.0000
1.5556 0.0000 0.0000
1.5556 0.1111 0.0000
1.5556 0.2222 0.0000
1.5556 0.3333 0.0000
1.5556 0.4444 0.0000
1.5556 0.5556 0.0000
1.5556 0.6667 0.0000
1.5556 0.7778 0.0000
1.5556 0.8889 0.0000
1.5556 1.0000 0.0000
1.7778 0.0000 0.0000
1.7778 0.1111 0.0000
1.7778 0.2222 0.0000
1.7778 0.3333 0.0000
1.7778 0.4444 0.0000
1.7778 0.5556 0.0000
1.7778 0.6667 0.0000
1.7778 0.7778 0.0000
1.7778 0.8889 0.0000
1.7778 1.0000 0.0000
2.0000 0.0000 0.0000
2.0000 0.1111 0.0000
2.0000 0.2222 0.0000
2.0000 0.3333 0.0000
2.0000 0.4444 0.0000
2.0000 0.5556 0.0000
2.0000 0.6667 0.0000
2.0000 0.7778 0.0000
2.0000 0.8889 0.0000
2.0000 1.0000 0.0000
0.1111 0.0556 0.0000
0.1111 0.1667 0.0000
0.1111 0.2778 0.0000
0.1111 0.3889 0.0000
0.1111 0.5000 0.0000
0.1111 0.6111 0.0000
0.1111 0.7222 0.0000
0.1111 0.8333 0.0000
0.1111 0.9444 0.0000
0.3333 0.0556 0.0000
0.3333 0.1667 0.0000
0.3333 0.2778 0.0000
0.3333 0.3889 0.0000
0.3333 0.5000 0.0000
0.3333 0.6111 0.0000
0.3333 0.7222 0.0000
0.3333 0.8333 0.0000
0.3333 0.9444 0.0000
0.5556 0.0556 0.0000
0.5556 0.1667 0.0000
0.5556 0.2778 0.0000
0.5556 0.3889 0.0000
0.5556 0.5000 0.0000
0.5556 0.6111 0.0000
0.5556 0.7222 0.0000
0.5556 0.8333 0.0000
0.5556 0.9444 0.0000
0.7778 0.0556 0.0000
0.7778 0.1667 0.0000
0.7778 0.2778 0.0000
0.7778 0.3889 0.0000
0.7778 0.5000 0.0000
0.7778 0.6111 0.0000
0.7778 0.7222 0.0000
0.7778 0.8333 0.0000
0.7778 0.9444 0.0000
1.0000 0.0556 0.0000
1.0000 0.1667 0.0000
1.0000 0.2778 0.0000
1.0000 0.3889 0.0000
1.0000 0.5000 0.0000
1.0000 0.6111 0.0000
1.0000 0.7222 0.0000
1.0000 0.8333 0.0000
1.0000 0.9444 0.0000
1.2222 0.0556 0.0000
1.2222 0.1667 0.0000
1.2222 0.2778 0.0000
1.2222 0.3889 0.0000
1.2222 0.5000 0.0000
1.2222 0.6111 0.0000
1.2222 0.7222 0.0000
1.2222 0.8333 0.0000
1.2222 0.9444 0.0000
1.4444 0.0556 0.0000
1.4444 0.1667 0.0000
1.4444 0.2778 0.0000
1.4444 0.3889 0.0000
1.4444 0.5000 0.0000
1.4444 0.6111 0.0000
1.4444 0.7222 0.0000
1.4444 0.8333 0.0000
1.4444 0.9444 0.0000
1.6667 0.0556 0.0000
1.6667 0.1667 0.0000
1.6667 0.2778 0.0000
1.6667 0.3889 0.0000
1.6667 0.5000 0.0000
1.6667 0.6111 0.0000
1.6667 0.7222 0.0000
1.6667 0.8333 0.0000
1.6667 0.9444 0.0000
1.8889 0.0556 0.0000
1.8889 0.1667 0.0000
1.8889 0.2778 0.0000
1.8889 0.3889 0.0000
1.8889 0.5000 0.0000
1.8889 0.6111 0.0000
1.8889 0.7222 0.0000
1.8889 0.8333 0.0000
1.8889 0.9444 0.0000
0.0000 0.0556 0.0000
0.0556 0.0278 0.0000
0.0556 0.0833 0.0000
0.0000 0.1667 0.0000
0.0556 0.1389 0.0000
0.0556 0.1944 0.0000
0.0000 0.2778 0.0000
0.0556 0.2500 0.0000
0.0556 0.3056 0.0000
0.0000 0.3889 0.0000
0.0556 0.3611 0.0000
0.0556 0.4167 0.0000
0.0000 0.5000 0.0000
0.0556 0.4722 0.0000
0.0556 0.5278 0.0000
0.0000 0.6111 0.0000
0.0556 0.5833 0.0000
0.0556 0.6389 0.0000
0.0000 0.7222 0.0000
0.0556 0.6944 0.0000
0.0556 0.7500 0.0000
0.0000 0.8333 0.0000
0.0556 0.8056 0.0000
0.0556 0.8611 0.0000
0.0000 0.9444 0.0000
0.0556 0.9167 0.0000
0.0556 0.9722 0.0000
0.2222 0.0556 0.0000
0.2778 0.0278 0.0000
0.2778 0.0833 0.0000
0.2222 0.1667 0.0000
0.2778 0.1389 0.0000
0.2778 0.1944 0.0000
0.2222 0.2778 0.0000
0.2778 0.2500 0.0000
0.2778 0.3056 0.0000
0.2222 0.3889 0.0000
0.2778 0.3611 0.0000
0.2778 0.4167 0.0000
0.2222 0.5000 0.0000
0.2778 0.4722 0.0000
0.2778 0.5278 0.0000
0.2222 0.6111 0.0000
0.2778 0.5833 0.0000
0.2778 0.6389 0.0000
0.2222 0.7222 0.0000
0.2778 0.6944 0.0000
0.2778 0.7500 0.0000
0.2222 0.8333 0.0000
0.2778 0.8056 0.0000
0.2778 0.8611 0.0000
0.2222 0.9444 0.0000
0.2778 0.9167 0.0000
0.2778 0.9722 0.0000
0.4444 0.0556 0.0000
0.5000 0.0278 0.0000
0.5000 0.0833 0.0000
0.4444 0.1667 0.0000
0.5000 0.1389 0.0000
0.5000 0.1944 0.0000
0.4444 0.2778 0.0000
0.5000 0.2500 0.0000
0.5000 0.3056 0.0000
0.4444 0.3889 0.0000
0.5000 0.3611 0.0000
0.5000 0.4167 0.0000
0.4444 0.5000 0.0000
0.5000 0.4722 0.0000
0.5000 0.5278 0.0000
0.4444 0.6111 0.0000
0.5000 0.5833 0.0000
0.5000 0.6389 0.0000
0.4444 0.7222 0.0000
0.5000 0.6944 0.0000
0.5000 0.7500 0.0000
0.4444 0.8333 0.0000
0.5000 0.8056 0.0000
0.5000 0.8611 0.0000
0.4444 0.9444 0.0000
0.5000 0.9167 0.0000
0.5000 0.9722 0.0000
0.6667 0.0556 0.0000
0.7222 0.0278 0.0000
0.7222 0.0833 0.0000
0.6667 0.1667 0.0000
0.7222 0.1389 0.0000
0.7222 0.1944 0.0000
0.6667 0.2778 0.0000
0.7222 0.2500 0.0000
0.7222 0.3056 0.0000
0.6667 0.3889 0.0000
0.7222 0.3611 0.0000
0.7222 0.4167 0.0000
0.6667 0.5000 0.0000
0.7222 0.4722 0.0000
0.7222 0.5278 0.0000
0.6667 0.6111 0.0000
0.7222 0.5833 0.0000
0.7222 0.6389 0.0000
0.6667 0.7222 0.0000
0.7222 0.6944 0.0000
0.7222 0.7500 0.0000
0.6667 0.8333 0.0000
0.7222 0.8056 0.0000
0.7222 0.8611 0.0000
0.6667 0.9444 0.0000
0.7222 0.9167 0.0000
0.7222 0.9722 0.0000
0.8889 0.0556 0.0000
0.9444 0.0278 0.0000
0.9444 0.0833 0.0000
0.8889 0.1667 0.0000
0.9444 0.1389 0.0000
0.9444 0.1944 0.0000
0.8889 0.2778 0.0000
0.9444 0.2500 0.0000
0.9444 0.3056 0.0000
0.8889 0.3889 0.0000
0.9444 0.3611 0.0000
0.9444 0.4167 0.0000
0.8889 0.5000 0.0000
0.9444 0.4722 0.0000
0.9444 0.5278 0.0000
0.8889 0.6111 0.0000
0.9444 0.5833 0.0000
0.9444 0.6389 0.0000
0.8889 0.7222 0.0000
0.9444 0.6944 0.0000
0.9444 0.7500 0.0000
0.8889 0.8333 0.0000
0.9444 0.8056 0.0000
0.9444 0.8611 0.0000
0.8889 0.9444 0.0000
0.9444 0.9167 0.0000
0.9444 0.9722 0.0000
1.1111 0.0556 0.0000
1.1667 0.0278 0.0000
1.1667 0.0833 0.0000
1.1111 0.1667 0.0000
1.1667 0.1389 0.0000
1.1667 0.1944 0.0000
1.1111 0.2778 0.0000
1.1667 0.2500 0.0000
1.1667 0.3056 0.0000
1.1111 0.3889 0.0000
1.1667 0.3611 0.0000
1.1667 0.4167 0.0000
1.1111 0.5000 0.0000
1.1667 0.4722 0.0000
1.1667 0.5278 0.0000
1.1111 0.6111 0.0000
1.1667 0.5833 0.0000
1.1667 0.6389 0.0000
1.1111 0.7222 0.0000
1.1667 0.6944 0.0000
1.1667 0.7500 0.0000
1.1111 0.8333 0.0000
1.1667 0.8056 0.0000
1.1667 0.8611 0.0000
1.1111 0.9444 0.0000
1.1667 0.9167 0.0000
1.1667 0.9722 0.0000
1.3333 0.0556 0.0000
1.3889 0.0278 0.0000
1.3889 0.0833 0.0000
1.3333 0.1667 0.0000
1.3889 0.1389 0.0000
1.3889 0.1944 0.0000
1.3333 0.2778 0.0000
1.3889 0.2500 0.0000
1.3889 0.3056 0.0000
1.3333 0.3889 0.0000
1.3889 0.3611 0.0000
1.3889 0.4167 0.0000
1.3333 0.5000 0.0000
1.3889 0.4722 0.0000
1.3889 0.5278 0.0000
1.3333 0.6111 0.0000
1.3889 0.5833 0.0000
1.3889 0.6389 0.0000
1.3333 0.7222 0.0000
1.3889 0.6944 0.0000
1.3889 0.7500 0.0000
1.3333 0.8333 0.0000
1.3889 0.8056 0.0000
1.3889 0.8611 0.0000
1.3333 0.9444 0.0000
1.3889 0.9167 0.0000
1.3889 0.9722 0.0000
1.5556 0.0556 0.0000
1.6111 0.0278 0.0000
1.6111 0.0833 0.0000
1.5556 0.1667 0.0000
1.6111 0.1389 0.0000
1.6111 0.1944 0.0000
1.5556 0.2778 0.0000
1.6111 0.2500 0.0000
1.6111 0.3056 0.0000
1.5556 0.3889 0.0000
1.6111 0.3611 0.0000
1.6111 0.4167 0.0000
1.5556 0.5000 0.0000
1.6111 0.4722 0.0000
1.6111 0.5278 0.0000
1.5556 0.6111 0.0000
1.6111 0.5833 0.0000
1.6111 0.6389 0.0000
1.5556 0.7222 0.0000
1.6111 0.6944 0.0000
1.6111 0.7500 0.0000
1.5556 0.8333 0.0000
1.6111 0.8056 0.0000
1.6111 0.8611 0.0000
1.5556 0.9444 0.0000
1.6111 0.9167 0.0000
1.6111 0.9722 0.0000
1.7778 0.0556 0.0000
1.8333 0.0278 0.0000
1.8333 0.0833 0.0000
1.7778 0.1667 0.0000
1.8333 0.1389 0.0000
1.8333 0.1944 0.0000
1.7778 0.2778 0.0000
1.8333 0.2500 0.0000
1.8333 0.3056 0.0000
1.7778 0.3889 0.0000
1.8333 0.3611 0.0000
1.8333 0.4167 0.0000
1.7778 0.5000 0.0000
1.8333 0.4722 0.0000
1.8333 0.5278 0.0000
1.7778 0.6111 0.0000
1.8333 0.5833 0.0000
1.8333 0.6389 0.0000
1.7778 0.7222 0.0000
1.8333 0.6944 0.0000
1.8333 0.7500 0.0000
1.7778 0.8333 0.0000
1.8333 0.8056 0.0000
1.8333 0.8611 0.0000
1.7778 0.9444 0.0000
1.8333 0.9167 0.0000
1.8333 0.9722 0.0000
0.1111 0.1111 0.0000
0.1667 0.0833 0.0000
0.1111 0.2222 0.0000
0.1667 0.1944 0.0000
0.1111 0.3333 0.0000
0.1667 0.3056 0.0000
0.1111 0.4444 0.0000
0.1667 0.4167 0.0000
0.1111 0.5556 0.0000
0.1667 0.5278 0.0000
0.1111 0.6667 0.0000
0.1667 0.6389 0.0000
0.1111 0.7778 0.0000
0.1667 0.7500 0.0000
0.1111 0.8889 0.0000
0.1667 0.8611 0.0000
0.1111 1.0000 0.0000
0.1667 0.9722 0.0000
0.3333 0.1111 0.0000
0.3889 0.0833 0.0000
0.3333 0.2222 0.0000
0.3889 0.1944 0.0000
0.3333 0.3333 0.0000
0.3889 0.3056 0.0000
0.3333 0.4444 0.0000
0.3889 0.4167 0.0000
0.3333 0.5556 0.0000
0.3889 0.5278 0.0000
0.3333 0.6667 0.0000
0.3889 0.6389 0.0000
0.3333 0.7778 0.0000
0.3889 0.7500 0.0000
0.3333 0.8889 0.0000
0.3889 0.8611 0.0000
0.3333 1.0000 0.0000
0.3889 0.9722 0.0000
0.5556 0.1111 0.0000
[...]
         <PointData>
            <DataArray Name="fValues" NumberOfComponents="3" format="ascii" type="Float64">
 2.44753e-15 -1.22377e-15        00000 
-3.30136e-17 -1.65068e-16        00000 
 8.12742e-16  3.72550e-16        00000 
-6.57565e-16 -3.61661e-16        00000 
-1.66968e-16 -3.19754e-16        00000 
-2.30148e-16  3.28783e-17        00000 
-3.87308e-16  4.12579e-18        00000 
 1.77382e-15  2.79212e-16        00000 
 1.05669e-15 -1.05669e-15        00000 
 1.22377e-15  1.22377e-15        00000 
-3.62910e+01 -2.67118e+01        00000 
-2.49075e+01 -2.02582e+01        00000 
-1.62118e+01 -1.57454e+01        00000 
-9.22599e+00 -1.30231e+01        00000 
-2.94408e+00 -1.17422e+01        00000 
 3.16393e+00 -1.16076e+01        00000 
 9.52608e+00 -1.27956e+01        00000 
 1.65515e+01 -1.54589e+01        00000 
 2.50833e+01 -2.00329e+01        00000 
 3.63975e+01 -2.64676e+01        00000 
-6.66417e+01 -5.72779e+01        00000 
-4.93388e+01 -5.15820e+01        00000 
-3.39235e+01 -4.70980e+01        00000 
-1.98627e+01 -4.40579e+01        00000 
-6.56268e+00 -4.25003e+01        00000 
 6.37928e+00 -4.24468e+01        00000 
 1.96087e+01 -4.38770e+01        00000 
 3.38194e+01 -4.67329e+01        00000 
 4.94506e+01 -5.09753e+01        00000 
 6.69071e+01 -5.65701e+01        00000 
-9.44004e+01 -9.97119e+01        00000 
-7.11242e+01 -9.45708e+01        00000 
-4.95957e+01 -9.06802e+01        00000 
-2.94548e+01 -8.80953e+01        00000 
-9.93536e+00 -8.67796e+01        00000 
 9.24581e+00 -8.67479e+01        00000 
 2.85930e+01 -8.80378e+01        00000 
 4.87585e+01 -9.06921e+01        00000 
 7.04336e+01 -9.44959e+01        00000 
 9.37836e+01 -9.93665e+01        00000 
-1.19136e+02 -1.54060e+02        00000 
-9.02173e+01 -1.49573e+02        00000 
-6.32487e+01 -1.46216e+02        00000 
-3.76902e+01 -1.44033e+02        00000 
-1.29545e+01 -1.42890e+02        00000 
 1.15259e+01 -1.42847e+02        00000 
 3.62710e+01 -1.43869e+02        00000 
 6.16832e+01 -1.46052e+02        00000 
 8.83936e+01 -1.49287e+02        00000 
 1.16841e+02 -1.53407e+02        00000 
-1.39489e+02 -2.18475e+02        00000 
-1.06216e+02 -2.14852e+02        00000 
-7.46427e+01 -2.12001e+02        00000 
-4.45968e+01 -2.10087e+02        00000 
-1.54486e+01 -2.09131e+02        00000 
 1.34282e+01 -2.09014e+02        00000 
 4.24698e+01 -2.09741e+02        00000 
 7.23332e+01 -2.11346e+02        00000 
 1.03516e+02 -2.13888e+02        00000 
 1.36632e+02 -2.17308e+02        00000 
-1.55799e+02 -2.90760e+02        00000 
-1.19021e+02 -2.88005e+02        00000 
-8.39544e+01 -2.85916e+02        00000 
-5.02290e+01 -2.84448e+02        00000 
-1.75006e+01 -2.83677e+02        00000 
 1.48017e+01 -2.83506e+02        00000 
 4.73573e+01 -2.83984e+02        00000 
 8.08102e+01 -2.85191e+02        00000 
 1.15864e+02 -2.87175e+02        00000 
 1.52841e+02 -2.89888e+02        00000 
-1.68334e+02 -3.69909e+02        00000 
-1.28269e+02 -3.67959e+02        00000 
-9.04468e+01 -3.66654e+02        00000 
-5.41586e+01 -3.65833e+02        00000 
-1.90331e+01 -3.65350e+02        00000 
 1.56662e+01 -3.65212e+02        00000 
 5.08485e+01 -3.65393e+02        00000 
 8.71861e+01 -3.66098e+02        00000 
 1.25187e+02 -3.67421e+02        00000 
 1.65205e+02 -3.69392e+02        00000 
-1.76873e+02 -4.54723e+02        00000 
-1.33976e+02 -4.53681e+02        00000 
-9.38668e+01 -4.53103e+02        00000 
-5.61487e+01 -4.52694e+02        00000 
-1.98217e+01 -4.52402e+02        00000 
 1.60419e+01 -4.52266e+02        00000 
 5.24899e+01 -4.52340e+02        00000 
 9.05139e+01 -4.52610e+02        00000 
 1.30888e+02 -4.53212e+02        00000 
 1.73984e+02 -4.54403e+02        00000 
-1.82498e+02 -5.49306e+02        00000 
-1.36328e+02 -5.46658e+02        00000 
-9.53419e+01 -5.43565e+02        00000 
-5.71442e+01 -5.41282e+02        00000 
-2.01919e+01 -5.40119e+02        00000 
 1.63076e+01 -5.40067e+02        00000 
 5.34679e+01 -5.41360e+02        00000 
 9.21320e+01 -5.43851e+02        00000 
 1.33553e+02 -5.47056e+02        00000 
 1.79641e+02 -5.49668e+02        00000 
-1.47131e+01 -1.13463e+01        00000 
-9.41573e+00 -6.65597e+00        00000 
-5.78316e+00 -4.37225e+00        00000 
-2.77533e+00 -3.19573e+00        00000 
 9.66614e-02 -2.80645e+00        00000 
 2.93293e+00 -3.11539e+00        00000 
 6.02688e+00 -4.23774e+00        00000 
 9.55706e+00 -6.54272e+00        00000 
 1.48172e+01 -1.12170e+01        00000 
-4.44629e+01 -3.72901e+01        00000 
-3.10828e+01 -3.18709e+01        00000 
-1.97040e+01 -2.79747e+01        00000 
-9.55377e+00 -2.56907e+01        00000 
 3.81580e-02 -2.49085e+01        00000 
 9.64826e+00 -2.55293e+01        00000 
 1.99240e+01 -2.76563e+01        00000 
 3.13284e+01 -3.14691e+01        00000 
 4.46213e+01 -3.69037e+01        00000 
-7.04322e+01 -7.41328e+01        00000 
-5.11231e+01 -6.92820e+01        00000 
-3.33137e+01 -6.57692e+01        00000 
-1.65058e+01 -6.36533e+01        00000 
-2.40164e-01 -6.29184e+01        00000 
 1.60449e+01 -6.36104e+01        00000 
 3.27629e+01 -6.57123e+01        00000 
 5.07471e+01 -6.90856e+01        00000 
 7.03734e+01 -7.37923e+01        00000 
-9.39284e+01 -1.22954e+02        00000 
-6.86254e+01 -1.18646e+02        00000 
-4.50748e+01 -1.15625e+02        00000 
-2.25392e+01 -1.13862e+02        00000 
-5.56041e-01 -1.13270e+02        00000 
 2.14688e+01 -1.13850e+02        00000 
 4.39441e+01 -1.15676e+02        00000 
 6.74177e+01 -1.18694e+02        00000 
 9.25766e+01 -1.22740e+02        00000 
-1.14005e+02 -1.82893e+02        00000 
-8.36449e+01 -1.79309e+02        00000 
-5.50659e+01 -1.76792e+02        00000 
-2.77020e+01 -1.75273e+02        00000 
-8.44931e-01 -1.74678e+02        00000 
 2.60721e+01 -1.75037e+02        00000 
 5.33652e+01 -1.76394e+02        00000 
 8.16705e+01 -1.78807e+02        00000 
 1.11509e+02 -1.82172e+02        00000 
-1.30337e+02 -2.52046e+02        00000 
-9.61399e+01 -2.49226e+02        00000 
-6.34499e+01 -2.47111e+02        00000 
-3.19726e+01 -2.45825e+02        00000 
-1.16149e+00 -2.45293e+02        00000 
 2.95523e+01 -2.45503e+02        00000 
 6.07652e+01 -2.46515e+02        00000 
 9.32420e+01 -2.48377e+02        00000 
 1.27360e+02 -2.51149e+02        00000 
-1.43023e+02 -3.28295e+02        00000 
-1.05649e+02 -3.26337e+02        00000 
-6.98601e+01 -3.24890e+02        00000 
-3.52665e+01 -3.23965e+02        00000 
-1.50469e+00 -3.23551e+02        00000 
 3.21974e+01 -3.23602e+02        00000 
 6.66468e+01 -3.24233e+02        00000 
 1.02398e+02 -3.25546e+02        00000 
 1.39956e+02 -3.27585e+02        00000 
-1.52062e+02 -4.10762e+02        00000 
-1.11797e+02 -4.09551e+02        00000 
-7.37793e+01 -4.08842e+02        00000 
-3.73412e+01 -4.08386e+02        00000 
-1.77542e+00 -4.08182e+02        00000 
 3.37611e+01 -4.08197e+02        00000 
 7.03853e+01 -4.08460e+02        00000 
 1.08610e+02 -4.09072e+02        00000 
 1.48973e+02 -4.10251e+02        00000 
-1.57150e+02 -4.99212e+02        00000 
-1.14462e+02 -4.98450e+02        00000 
-7.52970e+01 -4.97587e+02        00000 
-3.81863e+01 -4.96830e+02        00000 
-1.95213e+00 -4.96486e+02        00000 
 3.43261e+01 -4.96691e+02        00000 
 7.17984e+01 -4.97395e+02        00000 
 1.11396e+02 -4.98346e+02        00000 
 1.54340e+02 -4.99237e+02        00000 
-1.82035e-15 -7.52711e-16        00000 
-7.99802e+00 -5.96016e+00        00000 
-6.09531e+00 -4.11790e+00        00000 
 1.36334e-15  3.12609e-16        00000 
-4.91868e+00 -2.93828e+00        00000 
-3.97602e+00 -2.13374e+00        00000 
-2.49800e-16  2.49800e-16        00000 
-3.14064e+00 -1.57738e+00        00000 
-2.36255e+00 -1.18541e+00        00000 
 9.02781e-17 -7.16078e-17        00000 
-1.65834e+00 -8.99775e-01        00000 
-9.56106e-01 -6.98148e-01        00000 
 3.12250e-17 -1.56125e-16        00000 
-2.61206e-01 -6.23561e-01        00000 
 3.88513e-01 -6.09499e-01        00000 
 6.89052e-16 -9.43627e-17        00000 
 1.07323e+00 -7.02487e-01        00000 
 1.75337e+00 -8.57901e-01        00000 
 1.24900e-16 -6.86950e-16        00000 
 2.50141e+00 -1.12795e+00        00000 
 3.26104e+00 -1.53859e+00        00000 
 1.24900e-15  3.74700e-16        00000 
 4.06918e+00 -2.11010e+00        00000 
 4.98784e+00 -2.88679e+00        00000 
-4.53033e-16  1.75757e-15        00000 
 6.15502e+00 -4.05903e+00        00000 
 8.04190e+00 -5.90450e+00        00000 
-3.03369e+01 -2.33395e+01        00000 
-4.07978e+01 -3.17087e+01        00000 
-3.43442e+01 -2.84762e+01        00000 
-2.02822e+01 -1.77564e+01        00000 
-2.84338e+01 -2.56468e+01        00000 
-2.31925e+01 -2.33159e+01        00000 
-1.25732e+01 -1.41785e+01        00000 
-1.83896e+01 -2.13880e+01        00000 
-1.39476e+01 -1.99325e+01        00000 
-6.03294e+00 -1.22046e+01        00000 
-9.78700e+00 -1.88722e+01        00000 
-5.78468e+00 -1.81569e+01        00000 
 1.10520e-01 -1.15200e+01        00000 
-1.87572e+00 -1.77607e+01        00000 
 2.03748e+00 -1.76990e+01        00000 
 6.26342e+00 -1.20309e+01        00000 
 5.97513e+00 -1.80018e+01        00000 
 1.00224e+01 -1.86495e+01        00000 
 1.29230e+01 -1.39277e+01        00000 
 1.42656e+01 -1.96596e+01        00000 
 1.87158e+01 -2.10797e+01        00000 
 2.05142e+01 -1.74804e+01        00000 
 2.34734e+01 -2.29778e+01        00000 
 2.86600e+01 -2.53714e+01        00000 
 3.04586e+01 -2.31111e+01        00000 
 3.45175e+01 -2.81920e+01        00000 
 4.09055e+01 -3.14568e+01        00000 
-5.77304e+01 -5.43123e+01        00000 
-6.88806e+01 -6.54776e+01        00000 
-5.95235e+01 -6.25415e+01        00000 
-4.14423e+01 -4.91816e+01        00000 
-5.06499e+01 -5.99989e+01        00000 
-4.21847e+01 -5.78183e+01        00000 
-2.67515e+01 -4.53710e+01        00000 
-3.40425e+01 -5.59851e+01        00000 
-2.61932e+01 -5.45199e+01        00000 
-1.31138e+01 -4.30739e+01        00000 
-1.85896e+01 -5.34301e+01        00000 
-1.11437e+01 -5.26766e+01        00000 
-1.05439e-01 -4.22678e+01        00000 
-3.85140e+00 -5.22914e+01        00000 
 3.47700e+00 -5.22608e+01        00000 
 1.29055e+01 -4.29839e+01        00000 
 1.08056e+01 -5.26132e+01        00000 
 1.82266e+01 -5.33178e+01        00000 
 2.65363e+01 -4.51378e+01        00000 
 2.57977e+01 -5.44120e+01        00000 
 3.36733e+01 -5.57963e+01        00000 
 4.14343e+01 -4.86806e+01        00000 
 4.19270e+01 -5.75073e+01        00000 
 5.05307e+01 -5.95749e+01        00000 
 5.79179e+01 -5.36179e+01        00000 
 5.95725e+01 -6.20355e+01        00000 
 6.90845e+01 -6.49205e+01        00000 
-8.25466e+01 -9.69861e+01        00000 
-9.46031e+01 -1.11041e+02        00000 
-8.21610e+01 -1.08425e+02        00000 
-6.01664e+01 -9.24593e+01        00000 
-7.02461e+01 -1.06173e+02        00000 
-5.87515e+01 -1.04262e+02        00000 
-3.94209e+01 -8.92327e+01        00000 
-4.76893e+01 -1.02698e+02        00000 
-3.69239e+01 -1.01456e+02        00000 
-1.96198e+01 -8.72655e+01        00000 
-2.63366e+01 -1.00520e+02        00000 
-1.59065e+01 -9.99095e+01        00000 
-3.87940e-01 -8.65978e+01        00000 
-5.58532e+00 -9.95714e+01        00000 
 4.67866e+00 -9.95925e+01        00000 
 1.88295e+01 -8.72298e+01        00000 
 1.50059e+01 -9.99085e+01        00000 
 2.53775e+01 -1.00527e+02        00000 
 3.85135e+01 -8.92179e+01        00000 
 3.59341e+01 -1.01475e+02        00000 
 4.66775e+01 -1.02770e+02        00000 
 5.93848e+01 -9.24558e+01        00000 
 5.77813e+01 -1.04326e+02        00000 
 6.92750e+01 -1.06174e+02        00000 
 8.18695e+01 -9.67944e+01        00000 
 8.12243e+01 -1.08319e+02        00000 
 9.36001e+01 -1.10780e+02        00000 
-1.04471e+02 -1.51755e+02        00000 
-1.16915e+02 -1.68253e+02        00000 
-1.01905e+02 -1.65990e+02        00000 
-7.65105e+01 -1.47742e+02        00000 
-8.72814e+01 -1.64067e+02        00000 
-7.31959e+01 -1.62453e+02        00000 
-5.03045e+01 -1.44983e+02        00000 
-5.94690e+01 -1.61144e+02        00000 
-4.61039e+01 -1.60105e+02        00000 
-2.52566e+01 -1.43336e+02        00000 
-3.29852e+01 -1.59318e+02        00000 
-2.00891e+01 -1.58786e+02        00000 
-7.24370e-01 -1.42739e+02        00000 
-7.18872e+00 -1.58466e+02        00000 
 5.61037e+00 -1.58436e+02        00000 
 2.38756e+01 -1.43221e+02        00000 
 1.85314e+01 -1.58634e+02        00000 
 3.15072e+01 -1.59088e+02        00000 
 4.88796e+01 -1.44827e+02        00000 
 4.45730e+01 -1.59814e+02        00000 
 5.78750e+01 -1.60819e+02        00000 
 7.48603e+01 -1.47543e+02        00000 
 7.14306e+01 -1.62129e+02        00000 
 8.53652e+01 -1.63686e+02        00000 
 1.02417e+02 -1.51244e+02        00000 
 9.97154e+01 -1.65484e+02        00000 
 1.14511e+02 -1.67556e+02        00000 
-1.22633e+02 -2.16576e+02        00000 
-1.35190e+02 -2.35049e+02        00000 
-1.18101e+02 -2.33296e+02        00000 
-9.02151e+01 -2.13316e+02        00000 
-1.01443e+02 -2.31733e+02        00000 
-8.51946e+01 -2.30376e+02        00000 
-5.94517e+01 -2.10928e+02        00000 
-6.93162e+01 -2.29237e+02        00000 
-5.37956e+01 -2.28343e+02        00000 
-2.99506e+01 -2.09502e+02        00000 
-3.85382e+01 -2.27675e+02        00000 
-2.34801e+01 -2.27232e+02        00000 
-1.01065e+00 -2.08972e+02        00000 
-8.52580e+00 -2.26955e+02        00000 
 6.37055e+00 -2.26894e+02        00000 
 2.79259e+01 -2.09276e+02        00000 
 2.12932e+01 -2.27012e+02        00000 
 3.62713e+01 -2.27328e+02        00000 
 5.72753e+01 -2.10437e+02        00000 
 5.13919e+01 -2.27873e+02        00000 
 6.68039e+01 -2.28630e+02        00000 
 8.77661e+01 -2.12492e+02        00000 
 8.25456e+01 -2.29612e+02        00000 
 9.86852e+01 -2.30823e+02        00000 
 1.19792e+02 -2.15506e+02        00000 
 1.15202e+02 -2.32298e+02        00000 
 1.32283e+02 -2.34067e+02        00000 
-1.37168e+02 -2.89301e+02        00000 
-1.49669e+02 -3.09322e+02        00000 
-1.30876e+02 -3.08006e+02        00000 
-1.01308e+02 -2.86862e+02        00000 
-1.12576e+02 -3.06893e+02        00000 
-9.46602e+01 -3.05918e+02        00000 
-6.69767e+01 -2.85105e+02        00000 
-7.71279e+01 -3.05117e+02        00000 
-5.99069e+01 -3.04445e+02        00000 
-3.38152e+01 -2.84022e+02        00000 
-4.29259e+01 -3.03931e+02        00000 
-2.62441e+01 -3.03579e+02        00000 
-1.36128e+00 -2.83527e+02        00000 
-9.65800e+00 -3.03357e+02        00000 
 6.82213e+00 -3.03287e+02        00000 
 3.09871e+01 -2.83659e+02        00000 
 2.33392e+01 -3.03292e+02        00000 
 3.99982e+01 -3.03503e+02        00000 
 6.38970e+01 -2.84484e+02        00000 
 5.68324e+01 -3.03849e+02        00000 
 7.39259e+01 -3.04427e+02        00000 
 9.81045e+01 -2.86068e+02        00000 
 9.14395e+01 -3.05157e+02        00000 
 1.09389e+02 -3.06077e+02        00000 
 1.34092e+02 -2.88468e+02        00000 
 1.27781e+02 -3.07218e+02        00000 
 1.46662e+02 -3.08575e+02        00000 
-1.47999e+02 -3.68846e+02        00000 
-1.60398e+02 -3.90166e+02        00000 
-1.40044e+02 -3.89264e+02        00000 
-1.09093e+02 -3.67220e+02        00000 
-1.20252e+02 -3.88503e+02        00000 
-1.01001e+02 -3.87950e+02        00000 
-7.21125e+01 -3.66173e+02        00000 
-8.22791e+01 -3.87536e+02        00000 
-6.38777e+01 -3.87178e+02        00000 
-3.64719e+01 -3.65546e+02        00000 
-4.58642e+01 -3.86917e+02        00000 
-2.81085e+01 -3.86702e+02        00000 
-1.66954e+00 -3.65242e+02        00000 
-1.05137e+01 -3.86603e+02        00000 
 7.04410e+00 -3.86529e+02        00000 
 3.31295e+01 -3.65265e+02        00000 
 2.46134e+01 -3.86566e+02        00000 
 4.24320e+01 -3.86648e+02        00000 
 6.88674e+01 -3.65655e+02        00000 
 6.05449e+01 -3.86804e+02        00000 
 7.90007e+01 -3.87074e+02        00000 
 1.05924e+02 -3.66694e+02        00000 
 9.77975e+01 -3.87473e+02        00000 
 1.17094e+02 -3.88015e+02        00000 
 1.44922e+02 -3.68304e+02        00000 
 1.36938e+02 -3.88734e+02        00000 
 1.57331e+02 -3.89646e+02        00000 
-1.55147e+02 -4.54094e+02        00000 
-1.67407e+02 -4.76662e+02        00000 
-1.45372e+02 -4.76220e+02        00000 
-1.13569e+02 -4.53363e+02        00000 
-1.24279e+02 -4.75889e+02        00000 
-1.04053e+02 -4.75604e+02        00000 
-7.47792e+01 -4.52877e+02        00000 
-8.45623e+01 -4.75320e+02        00000 
-6.56569e+01 -4.75069e+02        00000 
-3.78548e+01 -4.52522e+02        00000 
-4.71676e+01 -4.74838e+02        00000 
-2.89505e+01 -4.74637e+02        00000 
-1.88144e+00 -4.52287e+02        00000 
-1.09348e+01 -4.74501e+02        00000 
 7.06913e+00 -4.74446e+02        00000 
 3.41546e+01 -4.52268e+02        00000 
 2.51174e+01 -4.74480e+02        00000 
 4.34338e+01 -4.74568e+02        00000 
 7.12704e+01 -4.52420e+02        00000 
 6.20453e+01 -4.74754e+02        00000 
 8.11900e+01 -4.74964e+02        00000 
 1.10375e+02 -4.52848e+02        00000 
 1.00852e+02 -4.75258e+02        00000 
 1.21280e+02 -4.75570e+02        00000 
 1.52152e+02 -4.53716e+02        00000 
 1.42481e+02 -4.75982e+02        00000 
 1.64573e+02 -4.76493e+02        00000 
-1.17149e+01 -8.57039e+00        00000 
-2.03876e+01 -1.56757e+01        00000 
-7.47612e+00 -5.32101e+00        00000 
-1.32109e+01 -1.08607e+01        00000 
-4.24450e+00 -3.67026e+00        00000 
-7.87714e+00 -8.18529e+00        00000 
-1.31672e+00 -2.91924e+00        00000 
-3.22381e+00 -6.84095e+00        00000 
 1.51270e+00 -2.87103e+00        00000 
 1.23192e+00 -6.52597e+00        00000 
 4.46232e+00 -3.54810e+00        00000 
 5.74401e+00 -7.22826e+00        00000 
 7.72737e+00 -5.20953e+00        00000 
 1.07075e+01 -9.13699e+00        00000 
 1.18068e+01 -8.44519e+00        00000 
 1.66424e+01 -1.27387e+01        00000 
 2.02141e+01 -1.52926e+01        00000 
 2.56062e+01 -1.90247e+01        00000 
-3.75019e+01 -3.44116e+01        00000 
-4.72741e+01 -4.40948e+01        00000 
-2.52209e+01 -2.97041e+01        00000 
-3.29253e+01 -3.90866e+01        00000 
-1.45262e+01 -2.66092e+01        00000 
-2.02083e+01 -3.55652e+01        00000 
-4.72925e+00 -2.51030e+01        00000 
-8.47624e+00 -3.36276e+01        00000 
 4.80861e+00 -2.50229e+01        00000 
 2.78422e+00 -3.31975e+01        00000 
 1.46712e+01 -2.63928e+01        00000 
 1.41989e+01 -3.42463e+01        00000 
 2.54619e+01 -2.93247e+01        00000 
 2.64487e+01 -3.67485e+01        00000 
 3.77198e+01 -3.40145e+01        00000 
 4.00343e+01 -4.08669e+01        00000 
 5.19597e+01 -4.00557e+01        00000 
 5.54168e+01 -4.65667e+01        00000 
-6.05638e+01 -7.15310e+01        00000 
-7.12035e+01 -8.39635e+01        00000 
-4.20497e+01 -6.73627e+01        00000 
-5.07704e+01 -7.95304e+01        00000 
-2.48140e+01 -6.45087e+01        00000 
-3.17680e+01 -7.64882e+01        00000 
-8.35032e+00 -6.31203e+01        00000 
-1.36001e+01 -7.48023e+01        00000 
 7.87874e+00 -6.30910e+01        00000 
 4.15623e+00 -7.44154e+01        00000 
 2.42876e+01 -6.44908e+01        00000 
 2.19653e+01 -7.54224e+01        00000 
 4.15728e+01 -6.72389e+01        00000 
 4.04105e+01 -7.78005e+01        00000 
 6.03460e+01 -7.12724e+01        00000 
 6.02755e+01 -8.14644e+01        00000 
 8.08835e+01 -7.65434e+01        00000 
 8.17662e+01 -8.64104e+01        00000 
-8.10160e+01 -1.20653e+02        00000 
-9.24321e+01 -1.35969e+02        00000 
-5.66527e+01 -1.16971e+02        00000 
-6.63070e+01 -1.32029e+02        00000 
-3.37008e+01 -1.14591e+02        00000 
-4.17215e+01 -1.29443e+02        00000 
-1.14997e+01 -1.13448e+02        00000 
-1.80843e+01 -1.28044e+02        00000 
 1.04430e+01 -1.13433e+02        00000 
 5.18213e+00 -1.27709e+02        00000 
 3.25923e+01 -1.14623e+02        00000 
 2.85530e+01 -1.28545e+02        00000 
 5.54871e+01 -1.17073e+02        00000 
 5.25204e+01 -1.30559e+02        00000 
 7.97479e+01 -1.20591e+02        00000 
 7.76356e+01 -1.33718e+02        00000 
 1.05896e+02 -1.25136e+02        00000 
 1.04482e+02 -1.37951e+02        00000 
-9.86111e+01 -1.80995e+02        00000 