<?xml version="1.0" encoding="utf-8"?>
<VTKFile byte_order="LittleEndian" type="UnstructuredGrid" version="0.1">
   <UnstructuredGrid>
      <Piece NumberOfCells="1296" NumberOfPoints="685">
         <Points>
            <DataArray Name="Points" NumberOfComponents="3" format="ascii" type="Float32">
0.0000 0.0000 0.0000
0.0000 0.1111 0.0000
0.0000 0.2222 0.0000
0.0000 0.3333 0.0000
0.0000 0.4444 0.0000
0.0000 0.5556 0.0000
0.0000 0.6667 0.0000
0.0000 0.7778 0.0000
0.0000 0.8889 0.0000
0.0000 1.0000 0.0000
0.2222 0.0000 0.0000
0.2222 0.1111 0.0000
0.2222 0.2222 0.0000
0.2222 0.3333 0.0000
0.2222 0.4444 0.0000
0.2222 0.5556 0.0000
0.2222 0.6667 0.0000
0.2222 0.7778 0.0000
0.2222 0.8889 0.0000
0.2222 1.0000 0.0000
0.4444 0.0000 0.0000
0.4444 0.1111 0.0000
0.4444 0.2222 0.0000
0.4444 0.3333 0.0000
0.4444 0.4444 0.0000
0.4444 0.5556 0.0000
0.4444 0.6667 0.0000
0.4444 0.7778 0.0000
0.4444 0.8889 0.0000
0.4444 1.0000 0.0000
0.6667 0.0000 0.0000
0.6667 0.1111 0.0000
0.6667 0.2222 0.0000
0.6667 0.3333 0.0000
0.6667 0.4444 0.0000
0.6667 0.5556 0.0000
0.6667 0.6667 0.0000
0.6667 0.7778 0.0000
0.6667 0.8889 0.0000
0.6667 1.0000 0.0000
0.8889 0.0000 0.0000
0.8889 0.1111 0.0000
0.8889 0.2222 0.0000
0.8889 0.3333 0.0000
0.8889 0.4444 0.0000
0.8889 0.5556 0.0000
0.8889 0.6667 0.0000
0.8889 0.7778 0.0000
0.8889 0.8889 0.0000
0.8889 1.0000 0.0000
1.1111 0.0000 0.0000
1.1111 0.1111 0.0000
1.1111 0.2222 0.0000
1.1111 0.3333 0.0000
1.1111 0.4444 0.0000
1.1111 0.5556 0.0000
1.1111 0.6667 0.0000
1.1111 0.7778 0.0000
1.1111 0.8889 0.0000
1.1111 1.0000 0.0000
1.3333 0.0000 0.0000
1.3333 0.1111 0.0000
1.3333 0.2222 0.0000
1.3333 0.3333 0.0000
1.3333 0.4444 0.0000
1.3333 0.5556 0.0000
1.3333 0.6667 0.0000
1.3333 0.7778 0.0000
1.3333 0.8889 0.0000
1.3333 1.0000 0.0000
1.5556 0.0000 0.0000
1.5556 0.1111 0.0000
1.5556 0.2222 0.0000
1.5556 0.3333 0.0000
1.5556 0.4444 0.0000
1.5556 0.5556 0.0000
1.5556 0.6667 0.0000
1.5556 0.7778 0.0000
1.5556 0.8889 0.0000
1.5556 1.0000 0.0000
1.7778 0.0000 0.0000
1.7778 0.1111 0.0000
1.7778 0.2222 0.0000
1.7778 0.3333 0.0000
1.7778 0.4444 0.0000
1.7778 0.5556 0.0000
1.7778 0.6667 0.0000
1.7778 0.7778 0.0000
1.7778 0.8889 0.0000
1.7778 1.0000 0.0000
2.0000 0.0000 0.0000
2.0000 0.1111 0.0000
2.0000 0.2222 0.0000
2.0000 0.3333 0.0000
2.0000 0.4444 0.0000
2.0000 0.5556 0.0000
2.0000 0.6667 0.0000
2.0000 0.7778 0.0000
2.0000 0.8889 0.0000
2.0000 1.0000 0.0000
0.1111 0.0556 0.0000
0.1111 0.1667 0.0000
0.1111 0.2778 0.0000
0.1111 0.3889 0.0000
0.1111 0.5000 0.0000
0.1111 0.6111 0.0000
0.1111 0.7222 0.0000
0.1111 0.8333 0.0000
0.1111 0.9444 0.0000
0.3333 0.0556 0.0000
0.3333 0.1667 0.0000
0.3333 0.2778 0.0000
0.3333 0.3889 0.0000
0.3333 0.5000 0.0000
0.3333 0.6111 0.0000
0.3333 0.7222 0.0000
0.3333 0.8333 0.0000
0.3333 0.9444 0.0000
0.5556 0.0556 0.0000
0.5556 0.1667 0.0000
0.5556 0.2778 0.0000
0.5556 0.3889 0.0000
0.5556 0.5000 0.0000
0.5556 0.6111 0.0000
0.5556 0.7222 0.0000
0.5556 0.8333 0.0000
0.5556 0.9444 0.0000
0.7778 0.0556 0.0000
0.7778 0.1667 0.0000
0.7778 0.2778 0.0000
0.7778 0.3889 0.0000
0.7778 0.5000 0.0000
0.7778 0.6111 0.0000
0.7778 0.7222 0.0000
0.7778 0.8333 0.0000
0.7778 0.9444 0.0000
1.0000 0.0556 0.0000
1.0000 0.1667 0.0000
1.0000 0.2778 0.0000
1.0000 0.3889 0.0000
1.0000 0.5000 0.0000
1.0000 0.6111 0.0000
1.0000 0.7222 0.0000
1.0000 0.8333 0.0000
1.0000 0.9444 0.0000
1.2222 0.0556 0.0000
1.2222 0.1667 0.0000
1.2222 0.2778 0.0000
1.2222 0.3889 0.0000
1.2222 0.5000 0.0000
1.2222 0.6111 0.0000
1.2222 0.7222 0.0000
1.2222 0.8333 0.0000
1.2222 0.9444 0.0000
1.4444 0.0556 0.0000
1.4444 0.1667 0.0000
1.4444 0.2778 0.0000
1.4444 0.3889 0.0000
1.4444 0.5000 0.0000
1.4444 0.6111 0.0000
1.4444 0.7222 0.0000
1.4444 0.8333 0.0000
1.4444 0.9444 0.0000
1.6667 0.0556 0.0000
1.6667 0.1667 0.0000
1.6667 0.2778 0.0000
1.6667 0.3889 0.0000
1.6667 0.5000 0.0000
1.6667 0.6111 0.0000
1.6667 0.7222 0.0000
1.6667 0.8333 0.0000
1.6667 0.9444 0.0000
1.8889 0.0556 0.0000
1.8889 0.1667 0.0000
1.8889 0.2778 0.0000
1.8889 0.3889 0.0000
1.8889 0.5000 0.0000
1.8889 0.6111 0.0000
1.8889 0.7222 0.0000
1.8889 0.8333 0.0000
1.8889 0.9444 0.0000
0.0000 0.0556 0.0000
0.0556 0.0278 0.0000
0.0556 0.0833 0.0000
0.0000 0.1667 0.0000
0.0556 0.1389 0.0000
0.0556 0.1944 0.0000
0.0000 0.2778 0.0000
0.0556 0.2500 0.0000
0.0556 0.3056 0.0000
0.0000 0.3889 0.0000
0.0556 0.3611 0.0000
0.0556 0.4167 0.0000
0.0000 0.5000 0.0000
0.0556 0.4722 0.0000
0.0556 0.5278 0.0000
0.0000 0.6111 0.0000
0.0556 0.5833 0.0000
0.0556 0.6389 0.0000
0.0000 0.7222 0.0000
0.0556 0.6944 0.0000
0.0556 0.7500 0.0000
0.0000 0.8333 0.0000
0.0556 0.8056 0.0000
0.0556 0.8611 0.0000
0.0000 0.9444 0.0000
0.0556 0.9167 0.0000
0.0556 0.9722 0.0000
0.2222 0.0556 0.0000
0.2778 0.0278 0.0000
0.2778 0.0833 0.0000
0.2222 0.1667 0.0000
0.2778 0.1389 0.0000
0.2778 0.1944 0.0000
0.2222 0.2778 0.0000
0.2778 0.2500 0.0000
0.2778 0.3056 0.0000
0.2222 0.3889 0.0000
0.2778 0.3611 0.0000
0.2778 0.4167 0.0000
0.2222 0.5000 0.0000
0.2778 0.4722 0.0000
0.2778 0.5278 0.0000
0.2222 0.6111 0.0000
0.2778 0.5833 0.0000
0.2778 0.6389 0.0000
0.2222 0.7222 0.0000
0.2778 0.6944 0.0000
0.2778 0.7500 0.0000
0.2222 0.8333 0.0000
0.2778 0.8056 0.0000
0.2778 0.8611 0.0000
0.2222 0.9444 0.0000
0.2778 0.9167 0.0000
0.2778 0.9722 0.0000
0.4444 0.0556 0.0000
0.5000 0.0278 0.0000
0.5000 0.0833 0.0000
0.4444 0.1667 0.0000
0.5000 0.1389 0.0000
0.5000 0.1944 0.0000
0.4444 0.2778 0.0000
0.5000 0.2500 0.0000
0.5000 0.3056 0.0000
0.4444 0.3889 0.0000
0.5000 0.3611 0.0000
0.5000 0.4167 0.0000
0.4444 0.5000 0.0000
0.5000 0.4722 0.0000
0.5000 0.5278 0.0000
0.4444 0.6111 0.0000
0.5000 0.5833 0.0000
0.5000 0.6389 0.0000
0.4444 0.7222 0.0000
0.5000 0.6944 0.0000
0.5000 0.7500 0.0000
0.4444 0.8333 0.0000
0.5000 0.8056 0.0000
0.5000 0.8611 0.0000
0.4444 0.9444 0.0000
0.5000 0.9167 0.0000
0.5000 0.9722 0.0000
0.6667 0.0556 0.0000
0.7222 0.0278 0.0000
0.7222 0.0833 0.0000
0.6667 0.1667 0.0000
0.7222 0.1389 0.0000
0.7222 0.1944 0.0000
0.6667 0.2778 0.0000
0.7222 0.2500 0.0000
0.7222 0.3056 0.0000
0.6667 0.3889 0.0000
0.7222 0.3611 0.0000
0.7222 0.4167 0.0000
0.6667 0.5000 0.0000
0.7222 0.4722 0.0000
0.7222 0.5278 0.0000
0.6667 0.6111 0.0000
0.7222 0.5833 0.0000
0.7222 0.6389 0.0000
0.6667 0.7222 0.0000
0.7222 0.6944 0.0000
0.7222 0.7500 0.0000
0.6667 0.8333 0.0000
0.7222 0.8056 0.0000
0.7222 0.8611 0.0000
0.6667 0.9444 0.0000
0.7222 0.9167 0.0000
0.7222 0.9722 0.0000
0.8889 0.0556 0.0000
0.9444 0.0278 0.0000
0.9444 0.0833 0.0000
0.8889 0.1667 0.0000
0.9444 0.1389 0.0000
0.9444 0.1944 0.0000
0.8889 0.2778 0.0000
0.9444 0.2500 0.0000
0.9444 0.3056 0.0000
0.8889 0.3889 0.0000
0.9444 0.3611 0.0000
0.9444 0.4167 0.0000
0.8889 0.5000 0.0000
0.9444 0.4722 0.0000
0.9444 0.5278 0.0000
0.8889 0.6111 0.0000
0.9444 0.5833 0.0000
0.9444 0.6389 0.0000
0.8889 0.7222 0.0000
0.9444 0.6944 0.0000
0.9444 0.7500 0.0000
0.8889 0.8333 0.0000
0.9444 0.8056 0.0000
0.9444 0.8611 0.0000
0.8889 0.9444 0.0000
0.9444 0.9167 0.0000
0.9444 0.9722 0.0000
1.1111 0.0556 0.0000
1.1667 0.0278 0.0000
1.1667 0.0833 0.0000
1.1111 0.1667 0.0000
1.1667 0.1389 0.0000
1.1667 0.1944 0.0000
1.1111 0.2778 0.0000
1.1667 0.2500 0.0000
1.1667 0.3056 0.0000
1.1111 0.3889 0.0000
1.1667 0.3611 0.0000
1.1667 0.4167 0.0000
1.1111 0.5000 0.0000
1.1667 0.4722 0.0000
1.1667 0.5278 0.0000
1.1111 0.6111 0.0000
1.1667 0.5833 0.0000
1.1667 0.6389 0.0000
1.1111 0.7222 0.0000
1.1667 0.6944 0.0000
1.1667 0.7500 0.0000
1.1111 0.8333 0.0000
1.1667 0.8056 0.0000
1.1667 0.8611 0.0000
1.1111 0.9444 0.0000
1.1667 0.9167 0.0000
1.1667 0.9722 0.0000
1.3333 0.0556 0.0000
1.3889 0.0278 0.0000
1.3889 0.0833 0.0000
1.3333 0.1667 0.0000
1.3889 0.1389 0.0000
1.3889 0.1944 0.0000
1.3333 0.2778 0.0000
1.3889 0.2500 0.0000
1.3889 0.3056 0.0000
1.3333 0.3889 0.0000
1.3889 0.3611 0.0000
1.3889 0.4167 0.0000
1.3333 0.5000 0.0000
1.3889 0.4722 0.0000
1.3889 0.5278 0.0000
1.3333 0.6111 0.0000
1.3889 0.5833 0.0000
1.3889 0.6389 0.0000
1.3333 0.7222 0.0000
1.3889 0.6944 0.0000
1.3889 0.7500 0.0000
1.3333 0.8333 0.0000
1.3889 0.8056 0.0000
1.3889 0.8611 0.0000
1.3333 0.9444 0.0000
1.3889 0.9167 0.0000
1.3889 0.9722 0.0000
1.5556 0.0556 0.0000
1.6111 0.0278 0.0000
1.6111 0.0833 0.0000
1.5556 0.1667 0.0000
1.6111 0.1389 0.0000
1.6111 0.1944 0.0000
1.5556 0.2778 0.0000
1.6111 0.2500 0.0000
1.6111 0.3056 0.0000
1.5556 0.3889 0.0000
1.6111 0.3611 0.0000
1.6111 0.4167 0.0000
1.5556 0.5000 0.0000
1.6111 0.4722 0.0000
1.6111 0.5278 0.0000
1.5556 0.6111 0.0000
1.6111 0.5833 0.0000
1.6111 0.6389 0.0000
1.5556 0.7222 0.0000
1.6111 0.6944 0.0000
1.6111 0.7500 0.0000
1.5556 0.8333 0.0000
1.6111 0.8056 0.0000
1.6111 0.8611 0.0000
1.5556 0.9444 0.0000
1.6111 0.9167 0.0000
1.6111 0.9722 0.0000
1.7778 0.0556 0.0000
1.8333 0.0278 0.0000
1.8333 0.0833 0.0000
1.7778 0.1667 0.0000
1.8333 0.1389 0.0000
1.8333 0.1944 0.0000
1.7778 0.2778 0.0000
1.8333 0.2500 0.0000
1.8333 0.3056 0.0000
1.7778 0.3889 0.0000
1.8333 0.3611 0.0000
1.8333 0.4167 0.0000
1.7778 0.5000 0.0000
1.8333 0.4722 0.0000
1.8333 0.5278 0.0000
1.7778 0.6111 0.0000
1.8333 0.5833 0.0000
1.8333 0.6389 0.0000
1.7778 0.7222 0.0000
1.8333 0.6944 0.0000
1.8333 0.7500 0.0000
1.7778 0.8333 0.0000
1.8333 0.8056 0.0000
1.8333 0.8611 0.0000
1.7778 0.9444 0.0000
1.8333 0.9167 0.0000
1.8333 0.9722 0.0000
0.1111 0.1111 0.0000
0.1667 0.0833 0.0000
0.1111 0.2222 0.0000
0.1667 0.1944 0.0000
0.1111 0.3333 0.0000
0.1667 0.3056 0.0000
0.1111 0.4444 0.0000
0.1667 0.4167 0.0000
0.1111 0.5556 0.0000
0.1667 0.5278 0.0000
0.1111 0.6667 0.0000
0.1667 0.6389 0.0000
0.1111 0.7778 0.0000
0.1667 0.7500 0.0000
0.1111 0.8889 0.0000
0.1667 0.8611 0.0000
0.1111 1.0000 0.0000
0.1667 0.9722 0.0000
0.3333 0.1111 0.0000
0.3889 0.0833 0.0000
0.3333 0.2222 0.0000
0.3889 0.1944 0.0000
0.3333 0.3333 0.0000
0.3889 0.3056 0.0000
0.3333 0.4444 0.0000
0.3889 0.4167 0.0000
0.3333 0.5556 0.0000
0.3889 0.5278 0.0000
0.3333 0.6667 0.0000
0.3889 0.6389 0.0000
0.3333 0.7778 0.0000
0.3889 0.7500 0.0000
0.3333 0.8889 0.0000
0.3889 0.8611 0.0000
0.3333 1.0000 0.0000
0.3889 0.9722 0.0000
0.5556 0.1111 0.0000
[...]
         <PointData>
            <DataArray Name="fValues" NumberOfComponents="3" format="ascii" type="Float64">
 1.22377e-15  6.11883e-16        00000 
-3.96164e-16  6.60273e-16        00000 
 1.25651e-15 -1.90691e-16        00000 
-1.31513e-15  1.31513e-16        00000 
-2.48583e-16 -9.28318e-16        00000 
 1.97270e-16 -3.28783e-16        00000 
-2.18667e-16  6.51874e-16        00000 
 1.44534e-15 -7.88365e-16        00000 
 2.11338e-15  3.96259e-16        00000 
-3.67130e-15        00000        00000 
-4.95626e+01 -3.76615e+01        00000 
-3.37440e+01 -2.89511e+01        00000 
-2.20090e+01 -2.28172e+01        00000 
-1.25543e+01 -1.92682e+01        00000 
-4.09957e+00 -1.76565e+01        00000 
 4.06158e+00 -1.76575e+01        00000 
 1.25067e+01 -1.92705e+01        00000 
 2.19468e+01 -2.28147e+01        00000 
 3.36727e+01 -2.89398e+01        00000 
 4.94864e+01 -3.76458e+01        00000 
-9.02205e+01 -8.00023e+01        00000 
-6.64159e+01 -7.24403e+01        00000 
-4.52918e+01 -6.65599e+01        00000 
-2.63159e+01 -6.26163e+01        00000 
-8.65644e+00 -6.06562e+01        00000 
 8.59117e+00 -6.06524e+01        00000 
 2.62397e+01 -6.26124e+01        00000 
 4.51987e+01 -6.65570e+01        00000 
 6.63125e+01 -7.24426e+01        00000 
 9.01142e+01 -8.00062e+01        00000 
-1.26110e+02 -1.38508e+02        00000 
-9.45252e+01 -1.32001e+02        00000 
-6.55714e+01 -1.26973e+02        00000 
-3.85682e+01 -1.23577e+02        00000 
-1.27547e+01 -1.21863e+02        00000 
 1.26596e+01 -1.21854e+02        00000 
 3.84637e+01 -1.23559e+02        00000 
 6.54640e+01 -1.26957e+02        00000 
 9.44194e+01 -1.31987e+02        00000 
 1.26008e+02 -1.38502e+02        00000 
-1.56648e+02 -2.11748e+02        00000 
-1.18313e+02 -2.06315e+02        00000 
-8.26301e+01 -2.02145e+02        00000 
-4.88432e+01 -1.99342e+02        00000 
-1.62056e+01 -1.97932e+02        00000 
 1.60748e+01 -1.97919e+02        00000 
 4.87435e+01 -1.99318e+02        00000 
 8.25516e+01 -2.02124e+02        00000 
 1.18258e+02 -2.06307e+02        00000 
 1.56601e+02 -2.11755e+02        00000 
-1.81686e+02 -2.97343e+02        00000 
-1.37779e+02 -2.92994e+02        00000 
-9.65324e+01 -2.89664e+02        00000 
-5.71826e+01 -2.87440e+02        00000 
-1.89640e+01 -2.86343e+02        00000 
 1.88799e+01 -2.86356e+02        00000 
 5.71188e+01 -2.87472e+02        00000 
 9.65033e+01 -2.89695e+02        00000 
 1.37777e+02 -2.93024e+02        00000 
 1.81706e+02 -2.97383e+02        00000 
-2.01225e+02 -3.92883e+02        00000 
-1.52956e+02 -3.89605e+02        00000 
-1.07326e+02 -3.87123e+02        00000 
-6.36137e+01 -3.85501e+02        00000 
-2.10780e+01 -3.84709e+02        00000 
 2.10493e+01 -3.84722e+02        00000 
 6.35862e+01 -3.85533e+02        00000 
 1.07320e+02 -3.87166e+02        00000 
 1.52975e+02 -3.89648e+02        00000 
 2.01265e+02 -3.92926e+02        00000 
-2.15393e+02 -4.95873e+02        00000 
-1.63850e+02 -4.93644e+02        00000 
-1.14902e+02 -4.92072e+02        00000 
-6.80391e+01 -4.91121e+02        00000 
-2.25275e+01 -4.90678e+02        00000 
 2.25219e+01 -4.90688e+02        00000 
 6.80332e+01 -4.91149e+02        00000 
 1.14902e+02 -4.92113e+02        00000 
 1.63855e+02 -4.93686e+02        00000 
 2.15391e+02 -4.95905e+02        00000 
-2.24821e+02 -6.04287e+02        00000 
-1.70379e+02 -6.03086e+02        00000 
-1.18980e+02 -6.02374e+02        00000 
-7.02877e+01 -6.01869e+02        00000 
-2.32520e+01 -6.01595e+02        00000 
 2.32455e+01 -6.01600e+02        00000 
 7.02790e+01 -6.01884e+02        00000 
 1.18959e+02 -6.02401e+02        00000 
 1.70339e+02 -6.03127e+02        00000 
 2.24771e+02 -6.04321e+02        00000 
-2.30645e+02 -7.22234e+02        00000 
-1.73082e+02 -7.19421e+02        00000 
-1.20853e+02 -7.16071e+02        00000 
-7.14738e+01 -7.13489e+02        00000 
-2.36592e+01 -7.12114e+02        00000 
 2.36629e+01 -7.12116e+02        00000 
 7.14673e+01 -7.13492e+02        00000 
 1.20858e+02 -7.16073e+02        00000 
 1.73046e+02 -7.19432e+02        00000 
 2.30565e+02 -7.22266e+02        00000 
-2.00615e+01 -1.60357e+01        00000 
-1.28149e+01 -9.77444e+00        00000 
-7.97502e+00 -6.73832e+00        00000 
-3.85885e+00 -5.29354e+00        00000 
-4.26317e-03 -4.86447e+00        00000 
 3.84128e+00 -5.29535e+00        00000 
 7.94947e+00 -6.74383e+00        00000 
 1.27795e+01 -9.77568e+00        00000 
 2.00220e+01 -1.60224e+01        00000 
-6.02001e+01 -5.26104e+01        00000 
-4.19674e+01 -4.53463e+01        00000 
-2.65118e+01 -4.02238e+01        00000 
-1.28615e+01 -3.72828e+01        00000 
-2.50989e-02 -3.63294e+01        00000 
 1.28029e+01 -3.72866e+01        00000 
 2.64384e+01 -4.02286e+01        00000 
 4.18757e+01 -4.53470e+01        00000 
 6.01036e+01 -5.26037e+01        00000 
-9.45442e+01 -1.03589e+02        00000 
-6.81322e+01 -9.72944e+01        00000 
-4.40542e+01 -9.27044e+01        00000 
-2.16303e+01 -8.99233e+01        00000 
-3.78467e-02 -8.89958e+01        00000 
 2.15483e+01 -8.99195e+01        00000 
 4.39585e+01 -9.26954e+01        00000 
 6.80291e+01 -9.72847e+01        00000 
 9.44344e+01 -1.03577e+02        00000 
-1.24131e+02 -1.70296e+02        00000 
-9.04463e+01 -1.64978e+02        00000 
-5.90320e+01 -1.61121e+02        00000 
-2.91638e+01 -1.58789e+02        00000 
-5.70899e-02 -1.57994e+02        00000 
 2.90486e+01 -1.58760e+02        00000 
 5.89286e+01 -1.61090e+02        00000 
 9.03512e+01 -1.64955e+02        00000 
 1.24051e+02 -1.70289e+02        00000 
-1.48840e+02 -2.50583e+02        00000 
-1.08994e+02 -2.46235e+02        00000 
-7.14204e+01 -2.43101e+02        00000 
-3.53679e+01 -2.41215e+02        00000 
-6.19519e-02 -2.40591e+02        00000 
 3.52652e+01 -2.41219e+02        00000 
 7.13527e+01 -2.43102e+02        00000 
 1.08957e+02 -2.46240e+02        00000 
 1.48818e+02 -2.50592e+02        00000 
-1.68640e+02 -3.42023e+02        00000 
-1.23824e+02 -3.38637e+02        00000 
-8.12887e+01 -3.36217e+02        00000 
-4.02682e+01 -3.34780e+02        00000 
-2.41326e-02 -3.34313e+02        00000 
 4.02236e+01 -3.34804e+02        00000 
 8.12628e+01 -3.36254e+02        00000 
 1.23826e+02 -3.38679e+02        00000 
 1.68666e+02 -3.42066e+02        00000 
-1.83578e+02 -4.42138e+02        00000 
-1.34953e+02 -4.39727e+02        00000 
-8.86102e+01 -4.38067e+02        00000 
-4.38859e+01 -4.37117e+02        00000 
-6.18760e-03 -4.36813e+02        00000 
 4.38722e+01 -4.37137e+02        00000 
 8.85990e+01 -4.38107e+02        00000 
 1.34955e+02 -4.39775e+02        00000 
 1.83599e+02 -4.42187e+02        00000 
-1.93820e+02 -5.48539e+02        00000 
-1.42211e+02 -5.47134e+02        00000 
-9.31603e+01 -5.46294e+02        00000 
-4.60764e+01 -5.45841e+02        00000 
-2.17257e-03 -5.45700e+02        00000 
 4.60701e+01 -5.45859e+02        00000 
 9.31498e+01 -5.46324e+02        00000 
 1.42193e+02 -5.47171e+02        00000 
 1.93796e+02 -5.48568e+02        00000 
-1.99497e+02 -6.60467e+02        00000 
-1.45423e+02 -6.59595e+02        00000 
-9.50603e+01 -6.58534e+02        00000 
-4.69845e+01 -6.57716e+02        00000 
 1.44376e-03 -6.57418e+02        00000 
 4.69801e+01 -6.57725e+02        00000 
 9.50537e+01 -6.58549e+02        00000 
 1.45402e+02 -6.59627e+02        00000 
 1.99440e+02 -6.60513e+02        00000 
-4.49786e-16  6.62674e-16        00000 
-1.09643e+01 -8.37731e+00        00000 
-8.32713e+00 -5.89791e+00        00000 
 2.28858e-15  1.28078e-15        00000 
-6.71723e+00 -4.34343e+00        00000 
-5.44709e+00 -3.28911e+00        00000 
 1.74860e-15 -2.49800e-16        00000 
-4.33121e+00 -2.55279e+00        00000 
-3.30125e+00 -2.03852e+00        00000 
-3.33270e-16  2.98196e-17        00000 
-2.32635e+00 -1.69164e+00        00000 
-1.38681e+00 -1.47503e+00        00000 
-3.12250e-17 -6.86950e-16        00000 
-4.61633e-01 -1.37398e+00        00000 
 4.54508e-01 -1.37578e+00        00000 
 4.11145e-16 -2.95996e-16        00000 
 1.37671e+00 -1.47915e+00        00000 
 2.31537e+00 -1.69470e+00        00000 
 1.24900e-16  3.74700e-16        00000 
 3.28970e+00 -2.04160e+00        00000 
 4.31832e+00 -2.55598e+00        00000 
 1.24900e-15 -1.24900e-15        00000 
 5.43176e+00 -3.29150e+00        00000 
 6.69924e+00 -4.34351e+00        00000 
-1.94970e-15  1.75431e-15        00000 
 8.30554e+00 -5.89317e+00        00000 
 1.09430e+01 -8.36665e+00        00000 
-4.11880e+01 -3.31245e+01        00000 
-5.54078e+01 -4.47900e+01        00000 
-4.65259e+01 -4.04269e+01        00000 
-2.74719e+01 -2.55179e+01        00000 
-3.84905e+01 -3.66098e+01        00000 
-3.13315e+01 -3.34421e+01        00000 
-1.70952e+01 -2.07649e+01        00000 
-2.48555e+01 -3.09160e+01        00000 
-1.88839e+01 -2.89835e+01        00000 
-8.25177e+00 -1.82460e+01        00000 
-1.32664e+01 -2.75902e+01        00000 
-7.88134e+00 -2.66870e+01        00000 
-1.78692e-02 -1.74624e+01        00000 
-2.62587e+00 -2.62439e+01        00000 
 2.58186e+00 -2.62443e+01        00000 
 8.20936e+00 -1.82511e+01        00000 
 7.83325e+00 -2.66900e+01        00000 
 1.32130e+01 -2.75956e+01        00000 
 1.70421e+01 -2.07669e+01        00000 
 1.88234e+01 -2.89882e+01        00000 
 2.47855e+01 -3.09195e+01        00000 
 2.74015e+01 -2.55105e+01        00000 
 3.12532e+01 -3.34400e+01        00000 
 3.84082e+01 -3.66046e+01        00000 
 4.11125e+01 -3.31073e+01        00000 
 4.64410e+01 -4.04177e+01        00000 
 5.53200e+01 -4.47725e+01        00000 
-7.79608e+01 -7.60431e+01        00000 
-9.29379e+01 -9.14289e+01        00000 
-8.00387e+01 -8.76039e+01        00000 
-5.55472e+01 -6.92681e+01        00000 
-6.78254e+01 -8.42756e+01        00000 
-5.62418e+01 -8.14171e+01        00000 
-3.55863e+01 -6.43383e+01        00000 
-4.52261e+01 -7.90262e+01        00000 
-3.46849e+01 -7.71117e+01        00000 
-1.73800e+01 -6.13884e+01        00000 
-2.45188e+01 -7.56701e+01        00000 
-1.46229e+01 -7.47114e+01        00000 
-3.22881e-02 -6.04108e+01        00000 
-4.87881e+00 -7.42308e+01        00000 
 4.81045e+00 -7.42311e+01        00000 
 1.73075e+01 -6.13866e+01        00000 
 1.45485e+01 -7.47080e+01        00000 
 2.44370e+01 -7.56655e+01        00000 
 3.54992e+01 -6.43359e+01        00000 
 3.45951e+01 -7.71030e+01        00000 
 4.51298e+01 -7.90182e+01        00000 
 5.54439e+01 -6.92663e+01        00000 
 5.61455e+01 -8.14095e+01        00000 
 6.77221e+01 -8.42715e+01        00000 
 7.78535e+01 -7.60444e+01        00000 
 7.99302e+01 -8.75998e+01        00000 
 9.28253e+01 -9.14248e+01        00000 
-1.09944e+02 -1.35094e+02        00000 
-1.25616e+02 -1.54071e+02        00000 
-1.08947e+02 -1.50798e+02        00000 
-7.97618e+01 -1.29289e+02        00000 
-9.29713e+01 -1.47965e+02        00000 
-7.76124e+01 -1.45540e+02        00000 
-5.18690e+01 -1.25066e+02        00000 
-6.27798e+01 -1.43516e+02        00000 
-4.83833e+01 -1.41891e+02        00000 
-2.55633e+01 -1.22508e+02        00000 
-3.43318e+01 -1.40667e+02        00000 
-2.05227e+01 -1.39846e+02        00000 
-4.52961e-02 -1.21646e+02        00000 
-6.85856e+00 -1.39428e+02        00000 
 6.75551e+00 -1.39422e+02        00000 
 2.54635e+01 -1.22494e+02        00000 
 2.04168e+01 -1.39827e+02        00000 
 3.42244e+01 -1.40639e+02        00000 
 5.17643e+01 -1.25048e+02        00000 
 4.82756e+01 -1.41860e+02        00000 
 6.26712e+01 -1.43488e+02        00000 
 7.96564e+01 -1.29272e+02        00000 
 7.75089e+01 -1.45516e+02        00000 
 9.28739e+01 -1.47945e+02        00000 
 1.09838e+02 -1.35080e+02        00000 
 1.08848e+02 -1.50783e+02        00000 
 1.25524e+02 -1.54062e+02        00000 
-1.37097e+02 -2.08895e+02        00000 
-1.53165e+02 -2.30877e+02        00000 
-1.33265e+02 -2.28169e+02        00000 
-1.00189e+02 -2.04062e+02        00000 
-1.14069e+02 -2.25830e+02        00000 
-9.54870e+01 -2.23835e+02        00000 
-6.55442e+01 -2.00571e+02        00000 
-7.74277e+01 -2.22177e+02        00000 
-5.97941e+01 -2.20846e+02        00000 
-3.24297e+01 -1.98462e+02        00000 
-4.24948e+01 -2.19846e+02        00000 
-2.54313e+01 -2.19178e+02        00000 
-6.89954e-02 -1.97750e+02        00000 
-8.50867e+00 -2.18843e+02        00000 
 8.37492e+00 -2.18840e+02        00000 
 3.23138e+01 -1.98444e+02        00000 
 2.53109e+01 -2.19172e+02        00000 
 4.23912e+01 -2.19834e+02        00000 
 6.54561e+01 -2.00546e+02        00000 
 5.97065e+01 -2.20833e+02        00000 
 7.73550e+01 -2.22163e+02        00000 
 1.00121e+02 -2.04048e+02        00000 
 9.54312e+01 -2.23827e+02        00000 
 1.14025e+02 -2.25826e+02        00000 
 1.37047e+02 -2.08892e+02        00000 
 1.33226e+02 -2.28172e+02        00000 
 1.53130e+02 -2.30880e+02        00000 
-1.59352e+02 -2.95058e+02        00000 
-1.75510e+02 -3.19440e+02        00000 
-1.52974e+02 -3.17300e+02        00000 
-1.16872e+02 -2.91194e+02        00000 
-1.31139e+02 -3.15452e+02        00000 
-1.09927e+02 -3.13880e+02        00000 
-7.66701e+01 -2.88414e+02        00000 
-8.92390e+01 -3.12576e+02        00000 
-6.89745e+01 -3.11534e+02        00000 
-3.79780e+01 -2.86753e+02        00000 
-4.90364e+01 -3.10759e+02        00000 
-2.93393e+01 -3.10247e+02        00000 
-4.42185e-02 -2.86213e+02        00000 
-9.78597e+00 -3.09995e+02        00000 
 9.71894e+00 -3.10004e+02        00000 
 3.79028e+01 -2.86777e+02        00000 
 2.92755e+01 -3.10271e+02        00000 
 4.89786e+01 -3.10793e+02        00000 
 7.66220e+01 -2.88444e+02        00000 
 6.89265e+01 -3.11574e+02        00000 
 8.92105e+01 -3.12614e+02        00000 
 1.16856e+02 -2.91223e+02        00000 
 1.09917e+02 -3.13919e+02        00000 
 1.31143e+02 -3.15489e+02        00000 
 1.59360e+02 -2.95088e+02        00000 
 1.52985e+02 -3.17337e+02        00000 
 1.75536e+02 -3.19479e+02        00000 
-1.76710e+02 -3.91157e+02        00000 
-1.92667e+02 -4.17313e+02        00000 
-1.68099e+02 -4.15734e+02        00000 
-1.29857e+02 -3.88256e+02        00000 
-1.44226e+02 -4.14380e+02        00000 
-1.20960e+02 -4.13241e+02        00000 
-8.52750e+01 -3.86206e+02        00000 
-9.82233e+01 -4.12309e+02        00000 
-7.59272e+01 -4.11579e+02        00000 
-4.22449e+01 -3.85005e+02        00000 
-5.39799e+01 -4.11041e+02        00000 
-3.22889e+01 -4.10688e+02        00000 
-1.35076e-02 -3.84617e+02        00000 
-1.07505e+01 -4.10516e+02        00000 
 1.07319e+01 -4.10522e+02        00000 
 4.22171e+01 -3.85026e+02        00000 
 3.22674e+01 -4.10708e+02        00000 
 5.39588e+01 -4.11072e+02        00000 
 8.52584e+01 -3.86243e+02        00000 
 7.59110e+01 -4.11619e+02        00000 
 9.82163e+01 -4.12355e+02        00000 
 1.29865e+02 -3.88298e+02        00000 
 1.20964e+02 -4.13288e+02        00000 
 1.44238e+02 -4.14428e+02        00000 
 1.76744e+02 -3.91200e+02        00000 
 1.68122e+02 -4.15783e+02        00000 
 1.92703e+02 -4.17358e+02        00000 
-1.89266e+02 -4.94684e+02        00000 
-2.04820e+02 -5.22050e+02        00000 
-1.78708e+02 -5.21009e+02        00000 
-1.39080e+02 -4.92771e+02        00000 
-1.53260e+02 -5.20162e+02        00000 
-1.28442e+02 -5.19491e+02        00000 
-9.12494e+01 -4.91527e+02        00000 
-1.04214e+02 -5.18974e+02        00000 
-8.04988e+01 -5.18584e+02        00000 
-4.51691e+01 -4.90842e+02        00000 
-5.71996e+01 -5.18306e+02        00000 
-3.41990e+01 -5.18126e+02        00000 
-5.22189e-03 -4.90626e+02        00000 
-1.13799e+01 -5.18038e+02        00000 
 1.13790e+01 -5.18044e+02        00000 
 4.51634e+01 -4.90859e+02        00000 
 3.41962e+01 -5.18141e+02        00000 
 5.71958e+01 -5.18328e+02        00000 
 9.12438e+01 -4.91563e+02        00000 
 8.04959e+01 -5.18615e+02        00000 
 1.04207e+02 -5.19012e+02        00000 
 1.39084e+02 -4.92816e+02        00000 
 1.28438e+02 -5.19532e+02        00000 
 1.53254e+02 -5.20201e+02        00000 
 1.89269e+02 -4.94723e+02        00000 
 1.78703e+02 -5.21046e+02        00000 
 2.04808e+02 -5.22080e+02        00000 
-1.97282e+02 -6.03593e+02        00000 
-2.12570e+02 -6.32069e+02        00000 
-1.84797e+02 -6.31552e+02        00000 
-1.44286e+02 -6.02698e+02        00000 
-1.57990e+02 -6.31158e+02        00000 
-1.32112e+02 -6.30793e+02        00000 
-9.43550e+01 -6.02097e+02        00000 
-1.07030e+02 -6.30442e+02        00000 
-8.25913e+01 -6.30121e+02        00000 
-4.66327e+01 -6.01697e+02        00000 
-5.86488e+01 -6.29855e+02        00000 
-3.50554e+01 -6.29666e+02        00000 
-3.15380e-03 -6.01560e+02        00000 
-1.16626e+01 -6.29569e+02        00000 
 1.16626e+01 -6.29572e+02        00000 
 4.66268e+01 -6.01708e+02        00000 
 3.50515e+01 -6.29674e+02        00000 
 5.86445e+01 -6.29865e+02        00000 
 9.43434e+01 -6.02117e+02        00000 
 8.25839e+01 -6.30134e+02        00000 
 1.07019e+02 -6.30461e+02        00000 
 1.44256e+02 -6.02734e+02        00000 
 1.32091e+02 -6.30821e+02        00000 
 1.57956e+02 -6.31196e+02        00000 
 1.97237e+02 -6.03631e+02        00000 
 1.84749e+02 -6.31592e+02        00000 
 2.12512e+02 -6.32113e+02        00000 
-1.58856e+01 -1.23186e+01        00000 
-2.76600e+01 -2.22991e+01        00000 
-1.02568e+01 -7.99643e+00        00000 
-1.79806e+01 -1.58390e+01        00000 
-5.86380e+00 -5.86794e+00        00000 
-1.07612e+01 -1.23212e+01        00000 
-1.91687e+00 -4.97017e+00        00000 
-4.48502e+00 -1.06487e+01        00000 
 1.90241e+00 -4.97062e+00        00000 
 1.47011e+00 -1.03354e+01        00000 
 5.84086e+00 -5.86958e+00        00000 
 7.52067e+00 -1.12984e+01        00000 
 1.02262e+01 -7.99830e+00        00000 
 1.41510e+01 -1.37994e+01        00000 
 1.58447e+01 -1.23126e+01        00000 
 2.22741e+01 -1.85952e+01        00000 
 2.76160e+01 -2.15577e+01        00000 
 3.47441e+01 -2.70625e+01        00000 
-5.07049e+01 -4.87436e+01        00000 
-6.38777e+01 -6.19788e+01        00000 
-3.39456e+01 -4.25034e+01        00000 
-4.42190e+01 -5.53404e+01        00000 
-1.95267e+01 -3.84941e+01        00000 
-2.69906e+01 -5.07942e+01        00000 
-6.39390e+00 -3.65680e+01        00000 
-1.13208e+01 -4.83215e+01        00000 
 6.34364e+00 -3.65682e+01        00000 
 3.71931e+00 -4.78294e+01        00000 
 1.94613e+01 -3.84978e+01        00000 
 1.89531e+01 -4.93052e+01        00000 
 3.38618e+01 -4.25068e+01        00000 
 3.52649e+01 -5.28040e+01        00000 
 5.06105e+01 -4.87403e+01        00000 
 5.36077e+01 -5.84053e+01        00000 
 7.03411e+01 -5.68332e+01        00000 
 7.46536e+01 -6.60685e+01        00000 
-8.10118e+01 -1.00240e+02        00000 
-9.50623e+01 -1.17286e+02        00000 
-5.58393e+01 -9.47782e+01        00000 
-6.73690e+01 -1.11563e+02        00000 
-3.26863e+01 -9.10846e+01        00000 
-4.18222e+01 -1.07575e+02        00000 
-1.07841e+01 -8.92282e+01        00000 
-1.76950e+01 -1.05344e+02        00000 
 1.07043e+01 -8.92273e+01        00000 
 5.82310e+00 -1.04893e+02        00000 
 3.25947e+01 -9.10786e+01        00000 
 2.95379e+01 -1.06227e+02        00000 
 5.57393e+01 -9.47689e+01        00000 
 5.42650e+01 -1.09340e+02        00000 
 8.09045e+01 -1.00230e+02        00000 
 8.08026e+01 -1.14191e+02        00000 
 1.08697e+02 -1.07269e+02        00000 
 1.09798e+02 -1.20823e+02        00000 
-1.06959e+02 -1.67461e+02        00000 
-1.21681e+02 -1.87864e+02        00000 
-7.45022e+01 -1.62862e+02        00000 
-8.69854e+01 -1.83069e+02        00000 
-4.39518e+01 -1.59761e+02        00000 
-5.43702e+01 -1.79750e+02        00000 
-1.45633e+01 -1.58197e+02        00000 
-2.31033e+01 -1.77896e+02        00000 
 1.44469e+01 -1.58180e+02        00000 
 7.60099e+00 -1.77508e+02        00000 
 4.38439e+01 -1.59729e+02        00000 
 3.85096e+01 -1.78611e+02        00000 
 7.43995e+01 -1.62833e+02        00000 
 7.03685e+01 -1.81200e+02        00000 
 1.06874e+02 -1.67444e+02        00000 
 1.03952e+02 -1.85262e+02        00000 
 1.41988e+02 -1.73433e+02        00000 
 1.39980e+02 -1.90850e+02        00000 
-1.28585e+02 -2.48261e+02        00000 