<?xml version="1.0" encoding="utf-8"?>
<VTKFile byte_order="LittleEndian" type="UnstructuredGrid" version="0.1">
   <UnstructuredGrid>
      <Piece NumberOfCells="1296" NumberOfPoints="685">
         <Points>
            <DataArray Name="Points" NumberOfComponents="3" format="ascii" type="Float32">
0.0000 0.0000 0.0000
0.0000 0.1111 0.0000
0.0000 0.2222 0.0000
0.0000 0.3333 0.0000
0.0000 0.4444 0.0000
0.0000 0.5556 0.0000
0.0000 0.6667 0.0000
0.0000 0.7778 0.0000
0.0000 0.8889 0.0000
0.0000 1.0000 0.0000
0.2222 0.0000 0.0000
0.2222 0.1111 0.0000
0.2222 0.2222 0.0000
0.2222 0.3333 0.0000
0.2222 0.4444 0.0000
0.2222 0.5556 0.0000
0.2222 0.6667 0.0000
0.2222 0.7778 0.0000
0.2222 0.8889 0.0000
0.2222 1.0000 0.0000
0.4444 0.0000 0.0000
0.4444 0.1111 0.0000
0.4444 0.2222 0.0000
0.4444 0.3333 0.0000
0.4444 0.4444 0.0000
0.4444 0.5556 0.0000
0.4444 0.6667 0.0000
0.4444 0.7778 0.0000
0.4444 0.8889 0.0000
0.4444 1.0000 0.0000
0.6667 0.0000 0.0000
0.6667 0.1111 0.0000
0.6667 0.2222 0.0000
0.6667 0.3333 0.0000
0.6667 0.4444 0.0000
0.6667 0.5556 0.0000
0.6667 0.6667 0.0000
0.6667 0.7778 0.0000
0.6667 0.8889 0.0000
0.6667 1.0000 0.0000
0.8889 0.0000 0.0000
0.8889 0.1111 0.0000
0.8889 0.2222 0.0000
0.8889 0.3333 0.0000
0.8889 0.4444 0.0000
0.8889 0.5556 0.0000
0.8889 0.6667 0.0000
0.8889 0.7778 0.0000
0.8889 0.8889 0.0000
0.8889 1.0000 0.0000
1.1111 0.0000 0.0000
1.1111 0.1111 0.0000
1.1111 0.2222 0.0000
1.1111 0.3333 0.0000
1.1111 0.4444 0.0000
1.1111 0.5556 0.0000
1.1111 0.6667 0.0000
1.1111 0.7778 0.0000
1.1111 0.8889 0.0000
1.1111 1.0000 0.0000
1.3333 0.0000 0.0000
1.3333 0.1111 0.0000
1.3333 0.2222 0.0000
1.3333 0.3333 0.0000
1.3333 0.4444 0.0000
1.3333 0.5556 0.0000
1.3333 0.6667 0.0000
1.3333 0.7778 0.0000
1.3333 0.8889 0.0000
1.3333 1.0000 0.0000
1.5556 0.0000 0.0000
1.5556 0.1111 0.0000
1.5556 0.2222 0.0000
1.5556 0.3333 0.0000
1.5556 0.4444 0.0000
1.5556 0.5556 0.0000
1.5556 0.6667 0.0000
1.5556 0.7778 0.0000
1.5556 0.8889 0.0000
1.5556 1.0000 0.0000
1.7778 0.0000 0.0000
1.7778 0.1111 0.0000
1.7778 0.2222 0.0000
1.7778 0.3333 0.0000
1.7778 0.4444 0.0000
1.7778 0.5556 0.0000
1.7778 0.6667 0.0000
1.7778 0.7778 0.0000
1.7778 0.8889 0.0000
1.7778 1.0000 0.0000
2.0000 0.0000 0.0000
2.0000 0.1111 0.0000
2.0000 0.2222 0.0000
2.0000 0.3333 0.0000
2.0000 0.4444 0.0000
2.0000 0.5556 0.0000
2.0000 0.6667 0.0000
2.0000 0.7778 0.0000
2.0000 0.8889 0.0000
2.0000 1.0000 0.0000
0.1111 0.0556 0.0000
0.1111 0.1667 0.0000
0.1111 0.2778 0.0000
0.1111 0.3889 0.0000
0.1111 0.5000 0.0000
0.1111 0.6111 0.0000
0.1111 0.7222 0.0000
0.1111 0.8333 0.0000
0.1111 0.9444 0.0000
0.3333 0.0556 0.0000
0.3333 0.1667 0.0000
0.3333 0.2778 0.0000
0.3333 0.3889 0.0000
0.3333 0.5000 0.0000
0.3333 0.6111 0.0000
0.3333 0.7222 0.0000
0.3333 0.8333 0.0000
0.3333 0.9444 0.0000
0.5556 0.0556 0.0000
0.5556 0.1667 0.0000
0.5556 0.2778 0.0000
0.5556 0.3889 0.0000
0.5556 0.5000 0.0000
0.5556 0.6111 0.0000
0.5556 0.7222 0.0000
0.5556 0.8333 0.0000
0.5556 0.9444 0.0000
0.7778 0.0556 0.0000
0.7778 0.1667 0.0000
0.7778 0.2778 0.0000
0.7778 0.3889 0.0000
0.7778 0.5000 0.0000
0.7778 0.6111 0.0000
0.7778 0.7222 0.0000
0.7778 0.8333 0.0000
0.7778 0.9444 0.0000
1.0000 0.0556 0.0000
1.0000 0.1667 0.0000
1.0000 0.2778 0.0000
1.0000 0.3889 0.0000
1.0000 0.5000 0.0000
1.0000 0.6111 0.0000
1.0000 0.7222 0.0000
1.0000 0.8333 0.0000
1.0000 0.9444 0.0000
1.2222 0.0556 0.0000
1.2222 0.1667 0.0000
1.2222 0.2778 0.0000
1.2222 0.3889 0.0000
1.2222 0.5000 0.0000
1.2222 0.6111 0.0000
1.2222 0.7222 0.0000
1.2222 0.8333 0.0000
1.2222 0.9444 0.0000
1.4444 0.0556 0.0000
1.4444 0.1667 0.0000
1.4444 0.2778 0.0000
1.4444 0.3889 0.0000
1.4444 0.5000 0.0000
1.4444 0.6111 0.0000
1.4444 0.7222 0.0000
1.4444 0.8333 0.0000
1.4444 0.9444 0.0000
1.6667 0.0556 0.0000
1.6667 0.1667 0.0000
1.6667 0.2778 0.0000
1.6667 0.3889 0.0000
1.6667 0.5000 0.0000
1.6667 0.6111 0.0000
1.6667 0.7222 0.0000
1.6667 0.8333 0.0000
1.6667 0.9444 0.0000
1.8889 0.0556 0.0000
1.8889 0.1667 0.0000
1.8889 0.2778 0.0000
1.8889 0.3889 0.0000
1.8889 0.5000 0.0000
1.8889 0.6111 0.0000
1.8889 0.7222 0.0000
1.8889 0.8333 0.0000
1.8889 0.9444 0.0000
0.0000 0.0556 0.0000
0.0556 0.0278 0.0000
0.0556 0.0833 0.0000
0.0000 0.1667 0.0000
0.0556 0.1389 0.0000
0.0556 0.1944 0.0000
0.0000 0.2778 0.0000
0.0556 0.2500 0.0000
0.0556 0.3056 0.0000
0.0000 0.3889 0.0000
0.0556 0.3611 0.0000
0.0556 0.4167 0.0000
0.0000 0.5000 0.0000
0.0556 0.4722 0.0000
0.0556 0.5278 0.0000
0.0000 0.6111 0.0000
0.0556 0.5833 0.0000
0.0556 0.6389 0.0000
0.0000 0.7222 0.0000
0.0556 0.6944 0.0000
0.0556 0.7500 0.0000
0.0000 0.8333 0.0000
0.0556 0.8056 0.0000
0.0556 0.8611 0.0000
0.0000 0.9444 0.0000
0.0556 0.9167 0.0000
0.0556 0.9722 0.0000
0.2222 0.0556 0.0000
0.2778 0.0278 0.0000
0.2778 0.0833 0.0000
0.2222 0.1667 0.0000
0.2778 0.1389 0.0000
0.2778 0.1944 0.0000
0.2222 0.2778 0.0000
0.2778 0.2500 0.0000
0.2778 0.3056 0.0000
0.2222 0.3889 0.0000
0.2778 0.3611 0.0000
0.2778 0.4167 0.0000
0.2222 0.5000 0.0000
0.2778 0.4722 0.0000
0.2778 0.5278 0.0000
0.2222 0.6111 0.0000
0.2778 0.5833 0.0000
0.2778 0.6389 0.0000
0.2222 0.7222 0.0000
0.2778 0.6944 0.0000
0.2778 0.7500 0.0000
0.2222 0.8333 0.0000
0.2778 0.8056 0.0000
0.2778 0.8611 0.0000
0.2222 0.9444 0.0000
0.2778 0.9167 0.0000
0.2778 0.9722 0.0000
0.4444 0.0556 0.0000
0.5000 0.0278 0.0000
0.5000 0.0833 0.0000
0.4444 0.1667 0.0000
0.5000 0.1389 0.0000
0.5000 0.1944 0.0000
0.4444 0.2778 0.0000
0.5000 0.2500 0.0000
0.5000 0.3056 0.0000
0.4444 0.3889 0.0000
0.5000 0.3611 0.0000
0.5000 0.4167 0.0000
0.4444 0.5000 0.0000
0.5000 0.4722 0.0000
0.5000 0.5278 0.0000
0.4444 0.6111 0.0000
0.5000 0.5833 0.0000
0.5000 0.6389 0.0000
0.4444 0.7222 0.0000
0.5000 0.6944 0.0000
0.5000 0.7500 0.0000
0.4444 0.8333 0.0000
0.5000 0.8056 0.0000
0.5000 0.8611 0.0000
0.4444 0.9444 0.0000
0.5000 0.9167 0.0000
0.5000 0.9722 0.0000
0.6667 0.0556 0.0000
0.7222 0.0278 0.0000
0.7222 0.0833 0.0000
0.6667 0.1667 0.0000
0.7222 0.1389 0.0000
0.7222 0.1944 0.0000
0.6667 0.2778 0.0000
0.7222 0.2500 0.0000
0.7222 0.3056 0.0000
0.6667 0.3889 0.0000
0.7222 0.3611 0.0000
0.7222 0.4167 0.0000
0.6667 0.5000 0.0000
0.7222 0.4722 0.0000
0.7222 0.5278 0.0000
0.6667 0.6111 0.0000
0.7222 0.5833 0.0000
0.7222 0.6389 0.0000
0.6667 0.7222 0.0000
0.7222 0.6944 0.0000
0.7222 0.7500 0.0000
0.6667 0.8333 0.0000
0.7222 0.8056 0.0000
0.7222 0.8611 0.0000
0.6667 0.9444 0.0000
0.7222 0.9167 0.0000
0.7222 0.9722 0.0000
0.8889 0.0556 0.0000
0.9444 0.0278 0.0000
0.9444 0.0833 0.0000
0.8889 0.1667 0.0000
0.9444 0.1389 0.0000
0.9444 0.1944 0.0000
0.8889 0.2778 0.0000
0.9444 0.2500 0.0000
0.9444 0.3056 0.0000
0.8889 0.3889 0.0000
0.9444 0.3611 0.0000
0.9444 0.4167 0.0000
0.8889 0.5000 0.0000
0.9444 0.4722 0.0000
0.9444 0.5278 0.0000
0.8889 0.6111 0.0000
0.9444 0.5833 0.0000
0.9444 0.6389 0.0000
0.8889 0.7222 0.0000
0.9444 0.6944 0.0000
0.9444 0.7500 0.0000
0.8889 0.8333 0.0000
0.9444 0.8056 0.0000
0.9444 0.8611 0.0000
0.8889 0.9444 0.0000
0.9444 0.9167 0.0000
0.9444 0.9722 0.0000
1.1111 0.0556 0.0000
1.1667 0.0278 0.0000
1.1667 0.0833 0.0000
1.1111 0.1667 0.0000
1.1667 0.1389 0.0000
1.1667 0.1944 0.0000
1.1111 0.2778 0.0000
1.1667 0.2500 0.0000
1.1667 0.3056 0.0000
1.1111 0.3889 0.0000
1.1667 0.3611 0.0000
1.1667 0.4167 0.0000
1.1111 0.5000 0.0000
1.1667 0.4722 0.0000
1.1667 0.5278 0.0000
1.1111 0.6111 0.0000
1.1667 0.5833 0.0000
1.1667 0.6389 0.0000
1.1111 0.7222 0.0000
1.1667 0.6944 0.0000
1.1667 0.7500 0.0000
1.1111 0.8333 0.0000
1.1667 0.8056 0.0000
1.1667 0.8611 0.0000
1.1111 0.9444 0.0000
1.1667 0.9167 0.0000
1.1667 0.9722 0.0000
1.3333 0.0556 0.0000
1.3889 0.0278 0.0000
1.3889 0.0833 0.0000
1.3333 0.1667 0.0000
1.3889 0.1389 0.0000
1.3889 0.1944 0.0000
1.3333 0.2778 0.0000
1.3889 0.2500 0.0000
1.3889 0.3056 0.0000
1.3333 0.3889 0.0000
1.3889 0.3611 0.0000
1.3889 0.4167 0.0000
1.3333 0.5000 0.0000
1.3889 0.4722 0.0000
1.3889 0.5278 0.0000
1.3333 0.6111 0.0000
1.3889 0.5833 0.0000
1.3889 0.6389 0.0000
1.3333 0.7222 0.0000
1.3889 0.6944 0.0000
1.3889 0.7500 0.0000
1.3333 0.8333 0.0000
1.3889 0.8056 0.0000
1.3889 0.8611 0.0000
1.3333 0.9444 0.0000
1.3889 0.9167 0.0000
1.3889 0.9722 0.0000
1.5556 0.0556 0.0000
1.6111 0.0278 0.0000
1.6111 0.0833 0.0000
1.5556 0.1667 0.0000
1.6111 0.1389 0.0000
1.6111 0.1944 0.0000
1.5556 0.2778 0.0000
1.6111 0.2500 0.0000
1.6111 0.3056 0.0000
1.5556 0.3889 0.0000
1.6111 0.3611 0.0000
1.6111 0.4167 0.0000
1.5556 0.5000 0.0000
1.6111 0.4722 0.0000
1.6111 0.5278 0.0000
1.5556 0.6111 0.0000
1.6111 0.5833 0.0000
1.6111 0.6389 0.0000
1.5556 0.7222 0.0000
1.6111 0.6944 0.0000
1.6111 0.7500 0.0000
1.5556 0.8333 0.0000
1.6111 0.8056 0.0000
1.6111 0.8611 0.0000
1.5556 0.9444 0.0000
1.6111 0.9167 0.0000
1.6111 0.9722 0.0000
1.7778 0.0556 0.0000
1.8333 0.0278 0.0000
1.8333 0.0833 0.0000
1.7778 0.1667 0.0000
1.8333 0.1389 0.0000
1.8333 0.1944 0.0000
1.7778 0.2778 0.0000
1.8333 0.2500 0.0000
1.8333 0.3056 0.0000
1.7778 0.3889 0.0000
1.8333 0.3611 0.0000
1.8333 0.4167 0.0000
1.7778 0.5000 0.0000
1.8333 0.4722 0.0000
1.8333 0.5278 0.0000
1.7778 0.6111 0.0000
1.8333 0.5833 0.0000
1.8333 0.6389 0.0000
1.7778 0.7222 0.0000
1.8333 0.6944 0.0000
1.8333 0.7500 0.0000
1.7778 0.8333 0.0000
1.8333 0.8056 0.0000
1.8333 0.8611 0.0000
1.7778 0.9444 0.0000
1.8333 0.9167 0.0000
1.8333 0.9722 0.0000
0.1111 0.1111 0.0000
0.1667 0.0833 0.0000
0.1111 0.2222 0.0000
0.1667 0.1944 0.0000
0.1111 0.3333 0.0000
0.1667 0.3056 0.0000
0.1111 0.4444 0.0000
0.1667 0.4167 0.0000
0.1111 0.5556 0.0000
0.1667 0.5278 0.0000
0.1111 0.6667 0.0000
0.1667 0.6389 0.0000
0.1111 0.7778 0.0000
0.1667 0.7500 0.0000
0.1111 0.8889 0.0000
0.1667 0.8611 0.0000
0.1111 1.0000 0.0000
0.1667 0.9722 0.0000
0.3333 0.1111 0.0000
0.3889 0.0833 0.0000
0.3333 0.2222 0.0000
0.3889 0.1944 0.0000
0.3333 0.3333 0.0000
0.3889 0.3056 0.0000
0.3333 0.4444 0.0000
0.3889 0.4167 0.0000
0.3333 0.5556 0.0000
0.3889 0.5278 0.0000
0.3333 0.6667 0.0000
0.3889 0.6389 0.0000
0.3333 0.7778 0.0000
0.3889 0.7500 0.0000
0.3333 0.8889 0.0000
0.3889 0.8611 0.0000
0.3333 1.0000 0.0000
0.3889 0.9722 0.0000
0.5556 0.1111 0.0000
[...]
         <PointData>
            <DataArray Name="fValues" NumberOfComponents="3" format="ascii" type="Float64">
-1.22377e-15 -3.67130e-15        00000 
 1.55164e-15 -1.28753e-15        00000 
-6.05499e-16 -5.99665e-16        00000 
       00000        00000        00000 
-3.45154e-16 -8.40128e-16        00000 
-3.28783e-16 -2.63026e-16        00000 
 9.14893e-16 -3.96075e-16        00000 
 1.97091e-16 -5.25576e-16        00000 
 1.05669e-15 -1.98129e-15        00000 
       00000  2.44753e-15        00000 
-4.99372e+01 -3.79810e+01        00000 
-3.39771e+01 -2.92075e+01        00000 
-2.21502e+01 -2.30332e+01        00000 
-1.26281e+01 -1.94587e+01        00000 
-4.11325e+00 -1.78373e+01        00000 
 4.11230e+00 -1.78375e+01        00000 
 1.26268e+01 -1.94589e+01        00000 
 2.21483e+01 -2.30334e+01        00000 
 3.39748e+01 -2.92074e+01        00000 
 4.99348e+01 -3.79807e+01        00000 
-9.08860e+01 -8.07051e+01        00000 
-6.68857e+01 -7.30836e+01        00000 
-4.56020e+01 -6.71484e+01        00000 
-2.64810e+01 -6.31726e+01        00000 
-8.68263e+00 -6.12006e+01        00000 
 8.68102e+00 -6.12005e+01        00000 
 2.64790e+01 -6.31726e+01        00000 
 4.55993e+01 -6.71486e+01        00000 
 6.68825e+01 -7.30840e+01        00000 
 9.08829e+01 -8.07057e+01        00000 
-1.27030e+02 -1.39676e+02        00000 
-9.52003e+01 -1.33119e+02        00000 
-6.60263e+01 -1.28055e+02        00000 
-3.88087e+01 -1.24637e+02        00000 
-1.28007e+01 -1.22916e+02        00000 
 1.27980e+01 -1.22915e+02        00000 
 3.88058e+01 -1.24636e+02        00000 
 6.60233e+01 -1.28055e+02        00000 
 9.51973e+01 -1.33118e+02        00000 
 1.27027e+02 -1.39676e+02        00000 
-1.57800e+02 -2.13483e+02        00000 
-1.19163e+02 -2.08011e+02        00000 
-8.31997e+01 -2.03809e+02        00000 
-4.91490e+01 -2.00990e+02        00000 
-1.62554e+01 -1.99576e+02        00000 
 1.62514e+01 -1.99575e+02        00000 
 4.91462e+01 -2.00989e+02        00000 
 8.31974e+01 -2.03809e+02        00000 
 1.19162e+02 -2.08011e+02        00000 
 1.57799e+02 -2.13483e+02        00000 
-1.83013e+02 -2.99746e+02        00000 
-1.38776e+02 -2.95366e+02        00000 
-9.72149e+01 -2.92012e+02        00000 
-5.75620e+01 -2.89773e+02        00000 
-1.90598e+01 -2.88656e+02        00000 
 1.90575e+01 -2.88657e+02        00000 
 5.75603e+01 -2.89775e+02        00000 
 9.72141e+01 -2.92013e+02        00000 
 1.38776e+02 -2.95367e+02        00000 
 1.83014e+02 -2.99747e+02        00000 
-2.02648e+02 -3.95958e+02        00000 
-1.54039e+02 -3.92666e+02        00000 
-1.08082e+02 -3.90173e+02        00000 
-6.40554e+01 -3.88537e+02        00000 
-2.12175e+01 -3.87732e+02        00000 
 2.12170e+01 -3.87732e+02        00000 
 6.40546e+01 -3.88538e+02        00000 
 1.08082e+02 -3.90174e+02        00000 
 1.54040e+02 -3.92667e+02        00000 
 2.02649e+02 -3.95959e+02        00000 
-2.16843e+02 -4.99627e+02        00000 
-1.64968e+02 -4.97397e+02        00000 
-1.15693e+02 -4.95818e+02        00000 
-6.85072e+01 -4.94858e+02        00000 
-2.26797e+01 -4.94408e+02        00000 
 2.26795e+01 -4.94408e+02        00000 
 6.85068e+01 -4.94859e+02        00000 
 1.15692e+02 -4.95819e+02        00000 
 1.64967e+02 -4.97398e+02        00000 
 2.16843e+02 -4.99627e+02        00000 
-2.26276e+02 -6.08736e+02        00000 
-1.71496e+02 -6.07530e+02        00000 
-1.19778e+02 -6.06805e+02        00000 
-7.07641e+01 -6.06290e+02        00000 
-2.34048e+01 -6.06006e+02        00000 
 2.34043e+01 -6.06006e+02        00000 
 7.07630e+01 -6.06291e+02        00000 
 1.19776e+02 -6.06805e+02        00000 
 1.71494e+02 -6.07530e+02        00000 
 2.26272e+02 -6.08736e+02        00000 
-2.32087e+02 -7.27342e+02        00000 
-1.74215e+02 -7.24521e+02        00000 
-1.21667e+02 -7.21160e+02        00000 
-7.19638e+01 -7.18580e+02        00000 
-2.38199e+01 -7.17203e+02        00000 
 2.38193e+01 -7.17203e+02        00000 
 7.19622e+01 -7.18578e+02        00000 
 1.21666e+02 -7.21159e+02        00000 
 1.74212e+02 -7.24519e+02        00000 
 2.32082e+02 -7.27341e+02        00000 
-2.02084e+01 -1.61669e+01        00000 
-1.28980e+01 -9.86577e+00        00000 
-8.02371e+00 -6.81034e+00        00000 
-3.88135e+00 -5.35319e+00        00000 
-5.70731e-05 -4.91722e+00        00000 
 3.88094e+00 -5.35339e+00        00000 
 8.02297e+00 -6.81077e+00        00000 
 1.28969e+01 -9.86606e+00        00000 
 2.02071e+01 -1.61668e+01        00000 
-6.06343e+01 -5.30774e+01        00000 
-4.22479e+01 -4.57585e+01        00000 
-2.66828e+01 -4.05967e+01        00000 
-1.29302e+01 -3.76353e+01        00000 
-6.41226e-04 -3.66775e+01        00000 
 1.29286e+01 -3.76356e+01        00000 
 2.66807e+01 -4.05971e+01        00000 
 4.22451e+01 -4.57588e+01        00000 
 6.06314e+01 -5.30774e+01        00000 
-9.52270e+01 -1.04482e+02        00000 
-6.86140e+01 -9.81435e+01        00000 
-4.43519e+01 -9.35189e+01        00000 
-2.17508e+01 -9.07194e+01        00000 
-1.00476e-03 -8.97842e+01        00000 
 2.17487e+01 -9.07194e+01        00000 
 4.43493e+01 -9.35188e+01        00000 
 6.86110e+01 -9.81434e+01        00000 
 9.52237e+01 -1.04482e+02        00000 
-1.25031e+02 -1.71707e+02        00000 
-9.10819e+01 -1.66351e+02        00000 
-5.94231e+01 -1.62472e+02        00000 
-2.93188e+01 -1.60128e+02        00000 
-1.73067e-03 -1.59344e+02        00000 
 2.93155e+01 -1.60127e+02        00000 
 5.94203e+01 -1.62471e+02        00000 
 9.10792e+01 -1.66350e+02        00000 
 1.25029e+02 -1.71707e+02        00000 
-1.49922e+02 -2.52624e+02        00000 
-1.09771e+02 -2.48245e+02        00000 
-7.19052e+01 -2.45088e+02        00000 
-3.55697e+01 -2.43190e+02        00000 
-1.85643e-03 -2.42557e+02        00000 
 3.55667e+01 -2.43190e+02        00000 
 7.19034e+01 -2.45088e+02        00000 
 1.09770e+02 -2.48245e+02        00000 
 1.49922e+02 -2.52624e+02        00000 
-1.69853e+02 -3.44749e+02        00000 
-1.24712e+02 -3.41346e+02        00000 
-8.18562e+01 -3.38909e+02        00000 
-4.05392e+01 -3.37456e+02        00000 
-5.36480e-04 -3.36974e+02        00000 
 4.05382e+01 -3.37457e+02        00000 
 8.18555e+01 -3.38910e+02        00000 
 1.24712e+02 -3.41347e+02        00000 
 1.69854e+02 -3.44750e+02        00000 
-1.84853e+02 -4.45556e+02        00000 
-1.35889e+02 -4.43137e+02        00000 
-8.92257e+01 -4.41466e+02        00000 
-4.41892e+01 -4.40505e+02        00000 
-5.23535e-05 -4.40192e+02        00000 
 4.41888e+01 -4.40505e+02        00000 
 8.92252e+01 -4.41467e+02        00000 
 1.35889e+02 -4.43138e+02        00000 
 1.84853e+02 -4.45557e+02        00000 
-1.95104e+02 -5.52628e+02        00000 
-1.43168e+02 -5.51224e+02        00000 
-9.37960e+01 -5.50379e+02        00000 
-4.63854e+01 -5.49918e+02        00000 
-1.93320e-04 -5.49770e+02        00000 
 4.63849e+01 -5.49919e+02        00000 
 9.37950e+01 -5.50380e+02        00000 
 1.43166e+02 -5.51225e+02        00000 
 1.95102e+02 -5.52629e+02        00000 
-2.00785e+02 -6.65253e+02        00000 
-1.46391e+02 -6.64369e+02        00000 
-9.57080e+01 -6.63299e+02        00000 
-4.73068e+01 -6.62474e+02        00000 
-2.58929e-05 -6.62169e+02        00000 
 4.73060e+01 -6.62474e+02        00000 
 9.57063e+01 -6.63299e+02        00000 
 1.46389e+02 -6.64369e+02        00000 
 2.00781e+02 -6.65253e+02        00000 
-1.84756e-15  7.55912e-16        00000 
-1.10451e+01 -8.44189e+00        00000 
-8.38424e+00 -5.94547e+00        00000 
 2.59892e-15  1.34895e-15        00000 
-6.76276e+00 -4.38222e+00        00000 
-5.48133e+00 -3.32263e+00        00000 
-1.99840e-15 -7.49401e-16        00000 
-4.35754e+00 -2.58225e+00        00000 
-3.32204e+00 -2.06449e+00        00000 
-1.92275e-16 -2.34679e-16        00000 
-2.34063e+00 -1.71338e+00        00000 
-1.39243e+00 -1.49512e+00        00000 
 2.18575e-16 -1.87350e-16        00000 
-4.62253e-01 -1.39053e+00        00000 
 4.62051e-01 -1.39062e+00        00000 
-5.27182e-16 -1.21338e-16        00000 
 1.39215e+00 -1.49534e+00        00000 
 2.34032e+00 -1.71358e+00        00000 
 1.24900e-16 -2.49800e-16        00000 
 3.32172e+00 -2.06475e+00        00000 
 4.35714e+00 -2.58250e+00        00000 
 9.99201e-16 -2.49800e-16        00000 
 5.48085e+00 -3.32282e+00        00000 
 6.76220e+00 -4.38237e+00        00000 
-1.92125e-16  9.93273e-17        00000 
 8.38356e+00 -5.94548e+00        00000 
 1.10444e+01 -8.44171e+00        00000 
-4.14862e+01 -3.34100e+01        00000 
-5.58143e+01 -4.51787e+01        00000 
-4.68547e+01 -4.07854e+01        00000 
-2.76510e+01 -2.57498e+01        00000 
-3.87506e+01 -3.69419e+01        00000 
-3.15357e+01 -3.37518e+01        00000 
-1.72035e+01 -2.09673e+01        00000 
-2.50158e+01 -3.12086e+01        00000 
-1.90022e+01 -2.92628e+01        00000 
-8.29642e+00 -1.84326e+01        00000 
-1.33434e+01 -2.78589e+01        00000 
-7.91804e+00 -2.69500e+01        00000 
-4.44719e-04 -1.76422e+01        00000 
-2.62532e+00 -2.65038e+01        00000 
 2.62422e+00 -2.65038e+01        00000 
 8.29531e+00 -1.84329e+01        00000 
 7.91678e+00 -2.69502e+01        00000 
 1.33419e+01 -2.78592e+01        00000 
 1.72019e+01 -2.09675e+01        00000 
 1.90005e+01 -2.92631e+01        00000 
 2.50137e+01 -3.12089e+01        00000 
 2.76488e+01 -2.57498e+01        00000 
 3.15333e+01 -3.37519e+01        00000 
 3.87480e+01 -3.69420e+01        00000 
 4.14838e+01 -3.34097e+01        00000 
 4.68519e+01 -4.07853e+01        00000 
 5.58115e+01 -4.51785e+01        00000 
-7.85227e+01 -7.67145e+01        00000 
-9.36128e+01 -9.22241e+01        00000 
-8.06117e+01 -8.83719e+01        00000 
-5.59304e+01 -6.98816e+01        00000 
-6.83054e+01 -8.50183e+01        00000 
-5.66364e+01 -8.21355e+01        00000 
-3.58202e+01 -6.49090e+01        00000 
-4.55338e+01 -7.97239e+01        00000 
-3.49101e+01 -7.77911e+01        00000 
-1.74726e+01 -6.19381e+01        00000 
-2.46646e+01 -7.63413e+01        00000 
-1.46907e+01 -7.53760e+01        00000 
-8.13844e-04 -6.09554e+01        00000 
-4.87937e+00 -7.48938e+01        00000 
 4.87765e+00 -7.48938e+01        00000 
 1.74707e+01 -6.19381e+01        00000 
 1.46888e+01 -7.53759e+01        00000 
 2.46625e+01 -7.63413e+01        00000 
 3.58178e+01 -6.49091e+01        00000 
 3.49077e+01 -7.77910e+01        00000 
 4.55312e+01 -7.97239e+01        00000 
 5.59273e+01 -6.98819e+01        00000 
 5.66336e+01 -8.21356e+01        00000 
 6.83023e+01 -8.50186e+01        00000 
 7.85194e+01 -7.67150e+01        00000 
 8.06084e+01 -8.83722e+01        00000 
 9.36094e+01 -9.22244e+01        00000 
-1.10737e+02 -1.36233e+02        00000 
-1.26530e+02 -1.55356e+02        00000 
-1.09729e+02 -1.52060e+02        00000 
-8.03248e+01 -1.30386e+02        00000 
-9.36325e+01 -1.49207e+02        00000 
-7.81542e+01 -1.46766e+02        00000 
-5.22179e+01 -1.26137e+02        00000 
-6.32058e+01 -1.44728e+02        00000 
-4.86969e+01 -1.43093e+02        00000 
-2.57027e+01 -1.23562e+02        00000 
-3.45341e+01 -1.41862e+02        00000 
-2.06207e+01 -1.41040e+02        00000 
-1.32751e-03 -1.22700e+02        00000 
-6.85781e+00 -1.40628e+02        00000 
 6.85472e+00 -1.40627e+02        00000 
 2.56999e+01 -1.23562e+02        00000 
 2.06176e+01 -1.41039e+02        00000 
 3.45311e+01 -1.41861e+02        00000 
 5.22150e+01 -1.26136e+02        00000 
 4.86939e+01 -1.43092e+02        00000 
 6.32028e+01 -1.44727e+02        00000 
 8.03218e+01 -1.30386e+02        00000 
 7.81513e+01 -1.46766e+02        00000 
 9.36298e+01 -1.49207e+02        00000 
 1.10734e+02 -1.36232e+02        00000 
 1.09726e+02 -1.52059e+02        00000 
 1.26527e+02 -1.55355e+02        00000 
-1.38096e+02 -2.10608e+02        00000 
-1.54286e+02 -2.32763e+02        00000 
-1.34230e+02 -2.30037e+02        00000 
-1.00896e+02 -2.05740e+02        00000 
-1.14885e+02 -2.27682e+02        00000 
-9.61583e+01 -2.25672e+02        00000 
-6.59820e+01 -2.02225e+02        00000 
-7.79564e+01 -2.24000e+02        00000 
-6.01849e+01 -2.22661e+02        00000 
-3.26054e+01 -2.00106e+02        00000 
-4.27492e+01 -2.21656e+02        00000 
-2.55540e+01 -2.20986e+02        00000 
-2.11072e-03 -1.99398e+02        00000 
-8.50334e+00 -2.20651e+02        00000 
 8.49930e+00 -2.20651e+02        00000 
 3.26020e+01 -2.00106e+02        00000 
 2.55504e+01 -2.20986e+02        00000 
 4.27462e+01 -2.21656e+02        00000 
 6.59796e+01 -2.02224e+02        00000 
 6.01824e+01 -2.22660e+02        00000 
 7.79544e+01 -2.23999e+02        00000 
 1.00894e+02 -2.05740e+02        00000 
 9.61568e+01 -2.25672e+02        00000 
 1.14884e+02 -2.27682e+02        00000 
 1.38094e+02 -2.10607e+02        00000 
 1.34228e+02 -2.30037e+02        00000 
 1.54285e+02 -2.32763e+02        00000 
-1.60508e+02 -2.97443e+02        00000 
-1.76780e+02 -3.22003e+02        00000 
-1.54077e+02 -3.19850e+02        00000 
-1.17710e+02 -2.93551e+02        00000 
-1.32086e+02 -3.17992e+02        00000 
-1.10713e+02 -3.16410e+02        00000 
-7.71972e+01 -2.90753e+02        00000 
-8.98636e+01 -3.15097e+02        00000 
-6.94448e+01 -3.14049e+02        00000 
-3.82147e+01 -2.89075e+02        00000 
-4.93622e+01 -3.13266e+02        00000 
-2.95208e+01 -3.12744e+02        00000 
-1.26401e-03 -2.88517e+02        00000 
-9.82466e+00 -3.12484e+02        00000 
 9.82297e+00 -3.12485e+02        00000 
 3.82127e+01 -2.89076e+02        00000 
 2.95192e+01 -3.12745e+02        00000 
 4.93607e+01 -3.13267e+02        00000 
 7.71959e+01 -2.90754e+02        00000 
 6.94435e+01 -3.14051e+02        00000 
 8.98627e+01 -3.15098e+02        00000 
 1.17709e+02 -2.93552e+02        00000 
 1.10712e+02 -3.16411e+02        00000 
 1.32086e+02 -3.17993e+02        00000 
 1.60508e+02 -2.97444e+02        00000 
 1.54078e+02 -3.19851e+02        00000 
 1.76781e+02 -3.22004e+02        00000 
-1.77963e+02 -3.94225e+02        00000 
-1.94021e+02 -4.20560e+02        00000 
-1.69280e+02 -4.18975e+02        00000 
-1.30775e+02 -3.91312e+02        00000 
-1.45237e+02 -4.17617e+02        00000 
-1.21809e+02 -4.16473e+02        00000 
-8.58728e+01 -3.89249e+02        00000 
-9.89109e+01 -4.15535e+02        00000 
-7.64570e+01 -4.14798e+02        00000 
-4.25359e+01 -3.88032e+02        00000 
-5.43554e+01 -4.14253e+02        00000 
-3.25097e+01 -4.13893e+02        00000 
-1.54307e-04 -3.87632e+02        00000 
-1.08192e+01 -4.13715e+02        00000 
 1.08190e+01 -4.13715e+02        00000 
 4.25353e+01 -3.88033e+02        00000 
 3.25093e+01 -4.13894e+02        00000 
 5.43549e+01 -4.14254e+02        00000 
 8.58722e+01 -3.89250e+02        00000 
 7.64564e+01 -4.14799e+02        00000 
 9.89105e+01 -4.15537e+02        00000 
 1.30775e+02 -3.91313e+02        00000 
 1.21809e+02 -4.16474e+02        00000 
 1.45237e+02 -4.17618e+02        00000 
 1.77964e+02 -3.94226e+02        00000 
 1.69281e+02 -4.18977e+02        00000 
 1.94022e+02 -4.20561e+02        00000 
-1.90551e+02 -4.98440e+02        00000 
-2.06190e+02 -5.25971e+02        00000 
-1.79911e+02 -5.24930e+02        00000 
-1.40033e+02 -4.96523e+02        00000 
-1.54297e+02 -5.24082e+02        00000 
-1.29318e+02 -5.23410e+02        00000 
-9.18794e+01 -4.95268e+02        00000 
-1.04928e+02 -5.22889e+02        00000 
-8.10508e+01 -5.22495e+02        00000 
-4.54771e+01 -4.94575e+02        00000 
-5.75884e+01 -5.22213e+02        00000 
-3.44298e+01 -5.22031e+02        00000 
-1.45382e-04 -4.94353e+02        00000 
-1.14559e+01 -5.21941e+02        00000 
 1.14558e+01 -5.21941e+02        00000 
 4.54768e+01 -4.94575e+02        00000 
 3.44295e+01 -5.22031e+02        00000 
 5.75881e+01 -5.22214e+02        00000 
 9.18788e+01 -4.95269e+02        00000 
 8.10504e+01 -5.22496e+02        00000 
 1.04927e+02 -5.22890e+02        00000 
 1.40033e+02 -4.96524e+02        00000 
 1.29317e+02 -5.23411e+02        00000 
 1.54296e+02 -5.24083e+02        00000 
 1.90550e+02 -4.98441e+02        00000 
 1.79910e+02 -5.24931e+02        00000 
 2.06189e+02 -5.25972e+02        00000 
-1.98567e+02 -6.08038e+02        00000 
-2.13939e+02 -6.36688e+02        00000 
-1.86001e+02 -6.36168e+02        00000 
-1.45243e+02 -6.07135e+02        00000 
-1.59032e+02 -6.35769e+02        00000 
-1.32995e+02 -6.35398e+02        00000 
-9.49953e+01 -6.06523e+02        00000 
-1.07754e+02 -6.35040e+02        00000 
-8.31557e+01 -6.34714e+02        00000 
-4.69467e+01 -6.06115e+02        00000 
-5.90501e+01 -6.34443e+02        00000 
-3.52922e+01 -6.34249e+02        00000 
-1.94884e-04 -6.05968e+02        00000 
-1.17412e+01 -6.34149e+02        00000 
 1.17411e+01 -6.34149e+02        00000 
 4.69460e+01 -6.06115e+02        00000 
 3.52917e+01 -6.34250e+02        00000 
 5.90492e+01 -6.34443e+02        00000 
 9.49939e+01 -6.06523e+02        00000 
 8.31543e+01 -6.34714e+02        00000 
 1.07752e+02 -6.35040e+02        00000 
 1.45241e+02 -6.07135e+02        00000 
 1.32993e+02 -6.35398e+02        00000 
 1.59029e+02 -6.35770e+02        00000 
 1.98564e+02 -6.08038e+02        00000 
 1.85997e+02 -6.36168e+02        00000 
 2.13935e+02 -6.36688e+02        00000 
-1.59926e+01 -1.24243e+01        00000 
-2.78552e+01 -2.24896e+01        00000 
-1.03192e+01 -8.07458e+00        00000 
-1.80939e+01 -1.59860e+01        00000 
-5.89936e+00 -5.93172e+00        00000 
-1.08272e+01 -1.24443e+01        00000 
-1.92604e+00 -5.02408e+00        00000 
-4.50694e+00 -1.07603e+01        00000 
 1.92570e+00 -5.02419e+00        00000 
 1.49369e+00 -1.04452e+01        00000 
 5.89879e+00 -5.93201e+00        00000 
 7.59604e+00 -1.14121e+01        00000 
 1.03182e+01 -8.07488e+00        00000 
 1.42818e+01 -1.39319e+01        00000 
 1.59914e+01 -1.24244e+01        00000 
 2.24770e+01 -1.87686e+01        00000 
 2.78694e+01 -2.17520e+01        00000 
 3.50634e+01 -2.73086e+01        00000 
-5.10568e+01 -4.91810e+01        00000 
-6.43319e+01 -6.25320e+01        00000 
-3.41682e+01 -4.28921e+01        00000 
-4.45189e+01 -5.58365e+01        00000 
-1.96471e+01 -3.88539e+01        00000 
-2.71637e+01 -5.12521e+01        00000 
-6.41606e+00 -3.69156e+01        00000 
-1.13741e+01 -4.87636e+01        00000 
 6.41479e+00 -3.69156e+01        00000 
 3.77295e+00 -4.82726e+01        00000 
 1.96454e+01 -3.88542e+01        00000 
 1.91314e+01 -4.97526e+01        00000 
 3.41656e+01 -4.28925e+01        00000 
 3.55823e+01 -5.32771e+01        00000 
 5.10539e+01 -4.91811e+01        00000 
 5.40756e+01 -5.89282e+01        00000 
 7.09566e+01 -5.73387e+01        00000 
 7.52999e+01 -6.66542e+01        00000 
-8.15894e+01 -1.01110e+02        00000 
-9.57437e+01 -1.18286e+02        00000 
-5.62286e+01 -9.56078e+01        00000 
-6.78422e+01 -1.12522e+02        00000 
-3.28925e+01 -9.18874e+01        00000 
-4.20960e+01 -1.08507e+02        00000 
-1.08224e+01 -9.00181e+01        00000 
-1.77811e+01 -1.06262e+02        00000 
 1.08203e+01 -9.00180e+01        00000 
 5.90792e+00 -1.05811e+02        00000 
 3.28901e+01 -9.18873e+01        00000 
 2.98062e+01 -1.07161e+02        00000 
 5.62258e+01 -9.56077e+01        00000 
 5.47397e+01 -1.10296e+02        00000 
 8.15862e+01 -1.01110e+02        00000 
 8.14792e+01 -1.15183e+02        00000 
 1.09602e+02 -1.08202e+02        00000 
 1.10700e+02 -1.21862e+02        00000 
-1.07725e+02 -1.68852e+02        00000 
-1.22560e+02 -1.89412e+02        00000 
-7.50117e+01 -1.64222e+02        00000 
-8.75897e+01 -1.84585e+02        00000 
-4.42238e+01 -1.61106e+02        00000 
-5.47223e+01 -1.81245e+02        00000 
-1.46108e+01 -1.59540e+02        00000 
-2.32098e+01 -1.79384e+02        00000 
 1.46073e+01 -1.59540e+02        00000 
 7.71769e+00 -1.79010e+02        00000 
 4.42209e+01 -1.61105e+02        00000 
 3.88414e+01 -1.80128e+02        00000 
 7.50088e+01 -1.64221e+02        00000 
 7.09368e+01 -1.82730e+02        00000 
 1.07723e+02 -1.68851e+02        00000 
 1.04763e+02 -1.86808e+02        00000 
 1.43102e+02 -1.74868e+02        00000 
 1.41061e+02 -1.92424e+02        00000 
-1.29514e+02 -2.50287e+02        00000 