<?xml version="1.0" encoding="utf-8"?>
<VTKFile byte_order="LittleEndian" type="UnstructuredGrid" version="0.1">
   <UnstructuredGrid>
      <Piece NumberOfCells="1296" NumberOfPoints="685">
         <Points>
            <DataArray Name="Points" NumberOfComponents="3" format="ascii" type="Float32">
0.0000 0.0000 0.0000
0.0000 0.1111 0.0000
0.0000 0.2222 0.0000
0.0000 0.3333 0.0000
0.0000 0.4444 0.0000
0.0000 0.5556 0.0000
0.0000 0.6667 0.0000
0.0000 0.7778 0.0000
0.0000 0.8889 0.0000
0.0000 1.0000 0.0000
0.2222 0.0000 0.0000
0.2222 0.1111 0.0000
0.2222 0.2222 0.0000
0.2222 0.3333 0.0000
0.2222 0.4444 0.0000
0.2222 0.5556 0.0000
0.2222 0.6667 0.0000
0.2222 0.7778 0.0000
0.2222 0.8889 0.0000
0.2222 1.0000 0.0000
0.4444 0.0000 0.0000
0.4444 0.1111 0.0000
0.4444 0.2222 0.0000
0.4444 0.3333 0.0000
0.4444 0.4444 0.0000
0.4444 0.5556 0.0000
0.4444 0.6667 0.0000
0.4444 0.7778 0.0000
0.4444 0.8889 0.0000
0.4444 1.0000 0.0000
0.6667 0.0000 0.0000
0.6667 0.1111 0.0000
0.6667 0.2222 0.0000
0.6667 0.3333 0.0000
0.6667 0.4444 0.0000
0.6667 0.5556 0.0000
0.6667 0.6667 0.0000
0.6667 0.7778 0.0000
0.6667 0.8889 0.0000
0.6667 1.0000 0.0000
0.8889 0.0000 0.0000
0.8889 0.1111 0.0000
0.8889 0.2222 0.0000
0.8889 0.3333 0.0000
0.8889 0.4444 0.0000
0.8889 0.5556 0.0000
0.8889 0.6667 0.0000
0.8889 0.7778 0.0000
0.8889 0.8889 0.0000
0.8889 1.0000 0.0000
1.1111 0.0000 0.0000
1.1111 0.1111 0.0000
1.1111 0.2222 0.0000
1.1111 0.3333 0.0000
1.1111 0.4444 0.0000
1.1111 0.5556 0.0000
1.1111 0.6667 0.0000
1.1111 0.7778 0.0000
1.1111 0.8889 0.0000
1.1111 1.0000 0.0000
1.3333 0.0000 0.0000
1.3333 0.1111 0.0000
1.3333 0.2222 0.0000
1.3333 0.3333 0.0000
1.3333 0.4444 0.0000
1.3333 0.5556 0.0000
1.3333 0.6667 0.0000
1.3333 0.7778 0.0000
1.3333 0.8889 0.0000
1.3333 1.0000 0.0000
1.5556 0.0000 0.0000
1.5556 0.1111 0.0000
1.5556 0.2222 0.0000
1.5556 0.3333 0.0000
1.5556 0.4444 0.0000
1.5556 0.5556 0.0000
1.5556 0.6667 0.0000
1.5556 0.7778 0.0000
1.5556 0.8889 0.0000
1.5556 1.0000 0.0000
1.7778 0.0000 0.0000
1.7778 0.1111 0.0000
1.7778 0.2222 0.0000
1.7778 0.3333 0.0000
1.7778 0.4444 0.0000
1.7778 0.5556 0.0000
1.7778 0.6667 0.0000
1.7778 0.7778 0.0000
1.7778 0.8889 0.0000
1.7778 1.0000 0.0000
2.0000 0.0000 0.0000
2.0000 0.1111 0.0000
2.0000 0.2222 0.0000
2.0000 0.3333 0.0000
2.0000 0.4444 0.0000
2.0000 0.5556 0.0000
2.0000 0.6667 0.0000
2.0000 0.7778 0.0000
2.0000 0.8889 0.0000
2.0000 1.0000 0.0000
0.1111 0.0556 0.0000
0.1111 0.1667 0.0000
0.1111 0.2778 0.0000
0.1111 0.3889 0.0000
0.1111 0.5000 0.0000
0.1111 0.6111 0.0000
0.1111 0.7222 0.0000
0.1111 0.8333 0.0000
0.1111 0.9444 0.0000
0.3333 0.0556 0.0000
0.3333 0.1667 0.0000
0.3333 0.2778 0.0000
0.3333 0.3889 0.0000
0.3333 0.5000 0.0000
0.3333 0.6111 0.0000
0.3333 0.7222 0.0000
0.3333 0.8333 0.0000
0.3333 0.9444 0.0000
0.5556 0.0556 0.0000
0.5556 0.1667 0.0000
0.5556 0.2778 0.0000
0.5556 0.3889 0.0000
0.5556 0.5000 0.0000
0.5556 0.6111 0.0000
0.5556 0.7222 0.0000
0.5556 0.8333 0.0000
0.5556 0.9444 0.0000
0.7778 0.0556 0.0000
0.7778 0.1667 0.0000
0.7778 0.2778 0.0000
0.7778 0.3889 0.0000
0.7778 0.5000 0.0000
0.7778 0.6111 0.0000
0.7778 0.7222 0.0000
0.7778 0.8333 0.0000
0.7778 0.9444 0.0000
1.0000 0.0556 0.0000
1.0000 0.1667 0.0000
1.0000 0.2778 0.0000
1.0000 0.3889 0.0000
1.0000 0.5000 0.0000
1.0000 0.6111 0.0000
1.0000 0.7222 0.0000
1.0000 0.8333 0.0000
1.0000 0.9444 0.0000
1.2222 0.0556 0.0000
1.2222 0.1667 0.0000
1.2222 0.2778 0.0000
1.2222 0.3889 0.0000
1.2222 0.5000 0.0000
1.2222 0.6111 0.0000
1.2222 0.7222 0.0000
1.2222 0.8333 0.0000
1.2222 0.9444 0.0000
1.4444 0.0556 0.0000
1.4444 0.1667 0.0000
1.4444 0.2778 0.0000
1.4444 0.3889 0.0000
1.4444 0.5000 0.0000
1.4444 0.6111 0.0000
1.4444 0.7222 0.0000
1.4444 0.8333 0.0000
1.4444 0.9444 0.0000
1.6667 0.0556 0.0000
1.6667 0.1667 0.0000
1.6667 0.2778 0.0000
1.6667 0.3889 0.0000
1.6667 0.5000 0.0000
1.6667 0.6111 0.0000
1.6667 0.7222 0.0000
1.6667 0.8333 0.0000
1.6667 0.9444 0.0000
1.8889 0.0556 0.0000
1.8889 0.1667 0.0000
1.8889 0.2778 0.0000
1.8889 0.3889 0.0000
1.8889 0.5000 0.0000
1.8889 0.6111 0.0000
1.8889 0.7222 0.0000
1.8889 0.8333 0.0000
1.8889 0.9444 0.0000
0.0000 0.0556 0.0000
0.0556 0.0278 0.0000
0.0556 0.0833 0.0000
0.0000 0.1667 0.0000
0.0556 0.1389 0.0000
0.0556 0.1944 0.0000
0.0000 0.2778 0.0000
0.0556 0.2500 0.0000
0.0556 0.3056 0.0000
0.0000 0.3889 0.0000
0.0556 0.3611 0.0000
0.0556 0.4167 0.0000
0.0000 0.5000 0.0000
0.0556 0.4722 0.0000
0.0556 0.5278 0.0000
0.0000 0.6111 0.0000
0.0556 0.5833 0.0000
0.0556 0.6389 0.0000
0.0000 0.7222 0.0000
0.0556 0.6944 0.0000
0.0556 0.7500 0.0000
0.0000 0.8333 0.0000
0.0556 0.8056 0.0000
0.0556 0.8611 0.0000
0.0000 0.9444 0.0000
0.0556 0.9167 0.0000
0.0556 0.9722 0.0000
0.2222 0.0556 0.0000
0.2778 0.0278 0.0000
0.2778 0.0833 0.0000
0.2222 0.1667 0.0000
0.2778 0.1389 0.0000
0.2778 0.1944 0.0000
0.2222 0.2778 0.0000
0.2778 0.2500 0.0000
0.2778 0.3056 0.0000
0.2222 0.3889 0.0000
0.2778 0.3611 0.0000
0.2778 0.4167 0.0000
0.2222 0.5000 0.0000
0.2778 0.4722 0.0000
0.2778 0.5278 0.0000
0.2222 0.6111 0.0000
0.2778 0.5833 0.0000
0.2778 0.6389 0.0000
0.2222 0.7222 0.0000
0.2778 0.6944 0.0000
0.2778 0.7500 0.0000
0.2222 0.8333 0.0000
0.2778 0.8056 0.0000
0.2778 0.8611 0.0000
0.2222 0.9444 0.0000
0.2778 0.9167 0.0000
0.2778 0.9722 0.0000
0.4444 0.0556 0.0000
0.5000 0.0278 0.0000
0.5000 0.0833 0.0000
0.4444 0.1667 0.0000
0.5000 0.1389 0.0000
0.5000 0.1944 0.0000
0.4444 0.2778 0.0000
0.5000 0.2500 0.0000
0.5000 0.3056 0.0000
0.4444 0.3889 0.0000
0.5000 0.3611 0.0000
0.5000 0.4167 0.0000
0.4444 0.5000 0.0000
0.5000 0.4722 0.0000
0.5000 0.5278 0.0000
0.4444 0.6111 0.0000
0.5000 0.5833 0.0000
0.5000 0.6389 0.0000
0.4444 0.7222 0.0000
0.5000 0.6944 0.0000
0.5000 0.7500 0.0000
0.4444 0.8333 0.0000
0.5000 0.8056 0.0000
0.5000 0.8611 0.0000
0.4444 0.9444 0.0000
0.5000 0.9167 0.0000
0.5000 0.9722 0.0000
0.6667 0.0556 0.0000
0.7222 0.0278 0.0000
0.7222 0.0833 0.0000
0.6667 0.1667 0.0000
0.7222 0.1389 0.0000
0.7222 0.1944 0.0000
0.6667 0.2778 0.0000
0.7222 0.2500 0.0000
0.7222 0.3056 0.0000
0.6667 0.3889 0.0000
0.7222 0.3611 0.0000
0.7222 0.4167 0.0000
0.6667 0.5000 0.0000
0.7222 0.4722 0.0000
0.7222 0.5278 0.0000
0.6667 0.6111 0.0000
0.7222 0.5833 0.0000
0.7222 0.6389 0.0000
0.6667 0.7222 0.0000
0.7222 0.6944 0.0000
0.7222 0.7500 0.0000
0.6667 0.8333 0.0000
0.7222 0.8056 0.0000
0.7222 0.8611 0.0000
0.6667 0.9444 0.0000
0.7222 0.9167 0.0000
0.7222 0.9722 0.0000
0.8889 0.0556 0.0000
0.9444 0.0278 0.0000
0.9444 0.0833 0.0000
0.8889 0.1667 0.0000
0.9444 0.1389 0.0000
0.9444 0.1944 0.0000
0.8889 0.2778 0.0000
0.9444 0.2500 0.0000
0.9444 0.3056 0.0000
0.8889 0.3889 0.0000
0.9444 0.3611 0.0000
0.9444 0.4167 0.0000
0.8889 0.5000 0.0000
0.9444 0.4722 0.0000
0.9444 0.5278 0.0000
0.8889 0.6111 0.0000
0.9444 0.5833 0.0000
0.9444 0.6389 0.0000
0.8889 0.7222 0.0000
0.9444 0.6944 0.0000
0.9444 0.7500 0.0000
0.8889 0.8333 0.0000
0.9444 0.8056 0.0000
0.9444 0.8611 0.0000
0.8889 0.9444 0.0000
0.9444 0.9167 0.0000
0.9444 0.9722 0.0000
1.1111 0.0556 0.0000
1.1667 0.0278 0.0000
1.1667 0.0833 0.0000
1.1111 0.1667 0.0000
1.1667 0.1389 0.0000
1.1667 0.1944 0.0000
1.1111 0.2778 0.0000
1.1667 0.2500 0.0000
1.1667 0.3056 0.0000
1.1111 0.3889 0.0000
1.1667 0.3611 0.0000
1.1667 0.4167 0.0000
1.1111 0.5000 0.0000
1.1667 0.4722 0.0000
1.1667 0.5278 0.0000
1.1111 0.6111 0.0000
1.1667 0.5833 0.0000
1.1667 0.6389 0.0000
1.1111 0.7222 0.0000
1.1667 0.6944 0.0000
1.1667 0.7500 0.0000
1.1111 0.8333 0.0000
1.1667 0.8056 0.0000
1.1667 0.8611 0.0000
1.1111 0.9444 0.0000
1.1667 0.9167 0.0000
1.1667 0.9722 0.0000
1.3333 0.0556 0.0000
1.3889 0.0278 0.0000
1.3889 0.0833 0.0000
1.3333 0.1667 0.0000
1.3889 0.1389 0.0000
1.3889 0.1944 0.0000
1.3333 0.2778 0.0000
1.3889 0.2500 0.0000
1.3889 0.3056 0.0000
1.3333 0.3889 0.0000
1.3889 0.3611 0.0000
1.3889 0.4167 0.0000
1.3333 0.5000 0.0000
1.3889 0.4722 0.0000
1.3889 0.5278 0.0000
1.3333 0.6111 0.0000
1.3889 0.5833 0.0000
1.3889 0.6389 0.0000
1.3333 0.7222 0.0000
1.3889 0.6944 0.0000
1.3889 0.7500 0.0000
1.3333 0.8333 0.0000
1.3889 0.8056 0.0000
1.3889 0.8611 0.0000
1.3333 0.9444 0.0000
1.3889 0.9167 0.0000
1.3889 0.9722 0.0000
1.5556 0.0556 0.0000
1.6111 0.0278 0.0000
1.6111 0.0833 0.0000
1.5556 0.1667 0.0000
1.6111 0.1389 0.0000
1.6111 0.1944 0.0000
1.5556 0.2778 0.0000
1.6111 0.2500 0.0000
1.6111 0.3056 0.0000
1.5556 0.3889 0.0000
1.6111 0.3611 0.0000
1.6111 0.4167 0.0000
1.5556 0.5000 0.0000
1.6111 0.4722 0.0000
1.6111 0.5278 0.0000
1.5556 0.6111 0.0000
1.6111 0.5833 0.0000
1.6111 0.6389 0.0000
1.5556 0.7222 0.0000
1.6111 0.6944 0.0000
1.6111 0.7500 0.0000
1.5556 0.8333 0.0000
1.6111 0.8056 0.0000
1.6111 0.8611 0.0000
1.5556 0.9444 0.0000
1.6111 0.9167 0.0000
1.6111 0.9722 0.0000
1.7778 0.0556 0.0000
1.8333 0.0278 0.0000
1.8333 0.0833 0.0000
1.7778 0.1667 0.0000
1.8333 0.1389 0.0000
1.8333 0.1944 0.0000
1.7778 0.2778 0.0000
1.8333 0.2500 0.0000
1.8333 0.3056 0.0000
1.7778 0.3889 0.0000
1.8333 0.3611 0.0000
1.8333 0.4167 0.0000
1.7778 0.5000 0.0000
1.8333 0.4722 0.0000
1.8333 0.5278 0.0000
1.7778 0.6111 0.0000
1.8333 0.5833 0.0000
1.8333 0.6389 0.0000
1.7778 0.7222 0.0000
1.8333 0.6944 0.0000
1.8333 0.7500 0.0000
1.7778 0.8333 0.0000
1.8333 0.8056 0.0000
1.8333 0.8611 0.0000
1.7778 0.9444 0.0000
1.8333 0.9167 0.0000
1.8333 0.9722 0.0000
0.1111 0.1111 0.0000
0.1667 0.0833 0.0000
0.1111 0.2222 0.0000
0.1667 0.1944 0.0000
0.1111 0.3333 0.0000
0.1667 0.3056 0.0000
0.1111 0.4444 0.0000
0.1667 0.4167 0.0000
0.1111 0.5556 0.0000
0.1667 0.5278 0.0000
0.1111 0.6667 0.0000
0.1667 0.6389 0.0000
0.1111 0.7778 0.0000
0.1667 0.7500 0.0000
0.1111 0.8889 0.0000
0.1667 0.8611 0.0000
0.1111 1.0000 0.0000
0.1667 0.9722 0.0000
0.3333 0.1111 0.0000
0.3889 0.0833 0.0000
0.3333 0.2222 0.0000
0.3889 0.1944 0.0000
0.3333 0.3333 0.0000
0.3889 0.3056 0.0000
0.3333 0.4444 0.0000
0.3889 0.4167 0.0000
0.3333 0.5556 0.0000
0.3889 0.5278 0.0000
0.3333 0.6667 0.0000
0.3889 0.6389 0.0000
0.3333 0.7778 0.0000
0.3889 0.7500 0.0000
0.3333 0.8889 0.0000
0.3889 0.8611 0.0000
0.3333 1.0000 0.0000
0.3889 0.9722 0.0000
0.5556 0.1111 0.0000
[...]
         <PointData>
            <DataArray Name="fValues" NumberOfComponents="3" format="ascii" type="Float64">
 6.11883e-16 -2.44753e-15        00000 
 7.26300e-16  2.31096e-16        00000 
-9.27733e-16  5.52476e-17        00000 
-1.31513e-16 -2.30148e-16        00000 
-6.67873e-17  2.24859e-16        00000 
-2.63026e-16 -3.61661e-16        00000 
-1.03145e-16 -4.37333e-16        00000 
-1.64243e-16  1.47818e-16        00000 
 1.84921e-15 -7.92517e-16        00000 
-1.22377e-15  6.11883e-16        00000 
-3.47899e+01 -2.46445e+01        00000 
-2.43196e+01 -1.84083e+01        00000 
-1.59930e+01 -1.41228e+01        00000 
-9.11891e+00 -1.17750e+01        00000 
-3.23151e+00 -1.07927e+01        00000 
 2.72985e+00 -1.09791e+01        00000 
 8.93305e+00 -1.23248e+01        00000 
 1.52372e+01 -1.50560e+01        00000 
 2.32798e+01 -1.95560e+01        00000 
 3.40530e+01 -2.57241e+01        00000 
-6.49334e+01 -5.31644e+01        00000 
-4.79705e+01 -4.76052e+01        00000 
-3.27474e+01 -4.33744e+01        00000 
-1.90014e+01 -4.04371e+01        00000 
-6.03910e+00 -3.91823e+01        00000 
 6.51739e+00 -3.95132e+01        00000 
 1.92049e+01 -4.11796e+01        00000 
 3.25261e+01 -4.42133e+01        00000 
 4.70706e+01 -4.85039e+01        00000 
 6.33118e+01 -5.40775e+01        00000 
-9.13701e+01 -9.48967e+01        00000 
-6.86008e+01 -9.00972e+01        00000 
-4.75212e+01 -8.62858e+01        00000 
-2.76756e+01 -8.36901e+01        00000 
-8.64566e+00 -8.22136e+01        00000 
 1.01651e+01 -8.18510e+01        00000 
 2.88669e+01 -8.29486e+01        00000 
 4.80571e+01 -8.53408e+01        00000 
 6.86383e+01 -8.90245e+01        00000 
 9.07235e+01 -9.40161e+01        00000 
-1.13750e+02 -1.47411e+02        00000 
-8.60730e+01 -1.43426e+02        00000 
-5.99945e+01 -1.40313e+02        00000 
-3.53946e+01 -1.37976e+02        00000 
-1.16171e+01 -1.36532e+02        00000 
 1.21925e+01 -1.36008e+02        00000 
 3.63104e+01 -1.36602e+02        00000 
 6.10000e+01 -1.38402e+02        00000 
 8.67815e+01 -1.41323e+02        00000 
 1.14346e+02 -1.45403e+02        00000 
-1.32476e+02 -2.08824e+02        00000 
-1.00759e+02 -2.05403e+02        00000 
-7.09438e+01 -2.02700e+02        00000 
-4.24933e+01 -2.00783e+02        00000 
-1.46607e+01 -1.99714e+02        00000 
 1.35370e+01 -1.99356e+02        00000 
 4.23001e+01 -2.00047e+02        00000 
 7.15756e+01 -2.01681e+02        00000 
 1.01781e+02 -2.04396e+02        00000 
 1.33645e+02 -2.07953e+02        00000 
-1.48926e+02 -2.78382e+02        00000 
-1.13517e+02 -2.75495e+02        00000 
-7.99713e+01 -2.73506e+02        00000 
-4.81081e+01 -2.72234e+02        00000 
-1.68473e+01 -2.71541e+02        00000 
 1.44524e+01 -2.71276e+02        00000 
 4.66300e+01 -2.71467e+02        00000 
 7.96656e+01 -2.72471e+02        00000 
 1.13611e+02 -2.74195e+02        00000 
 1.49153e+02 -2.76702e+02        00000 
-1.62169e+02 -3.54959e+02        00000 
-1.23427e+02 -3.52859e+02        00000 
-8.69317e+01 -3.51488e+02        00000 
-5.24164e+01 -3.50543e+02        00000 
-1.89853e+01 -3.49988e+02        00000 
 1.45073e+01 -3.49887e+02        00000 
 4.89597e+01 -3.50186e+02        00000 
 8.46299e+01 -3.50716e+02        00000 
 1.21546e+02 -3.51664e+02        00000 
 1.60029e+02 -3.53300e+02        00000 
-1.71297e+02 -4.35915e+02        00000 
-1.30168e+02 -4.34738e+02        00000 
-9.16534e+01 -4.34109e+02        00000 
-5.54141e+01 -4.33614e+02        00000 
-2.01676e+01 -4.33440e+02        00000 
 1.48204e+01 -4.33696e+02        00000 
 5.01700e+01 -4.34085e+02        00000 
 8.69810e+01 -4.34410e+02        00000 
 1.26093e+02 -4.34604e+02        00000 
 1.67732e+02 -4.35275e+02        00000 
-1.77513e+02 -5.27139e+02        00000 
-1.32867e+02 -5.24471e+02        00000 
-9.34651e+01 -5.21644e+02        00000 
-5.63454e+01 -5.19842e+02        00000 
-2.03633e+01 -5.19129e+02        00000 
 1.51411e+01 -5.19316e+02        00000 
 5.12484e+01 -5.20621e+02        00000 
 8.83623e+01 -5.22982e+02        00000 
 1.27837e+02 -5.26124e+02        00000 
 1.72994e+02 -5.28939e+02        00000 
-1.41616e+01 -1.06084e+01        00000 
-9.34276e+00 -5.99766e+00        00000 
-5.83561e+00 -3.87635e+00        00000 
-2.92652e+00 -3.01628e+00        00000 
-1.43568e-01 -2.74575e+00        00000 
 2.67994e+00 -3.10802e+00        00000 
 5.48356e+00 -4.38683e+00        00000 
 8.71921e+00 -6.54503e+00        00000 
 1.37766e+01 -1.09042e+01        00000 
-4.31465e+01 -3.39879e+01        00000 
-3.03833e+01 -2.88834e+01        00000 
-1.91896e+01 -2.53155e+01        00000 
-9.33052e+00 -2.33231e+01        00000 
-1.11462e-01 -2.29819e+01        00000 
 9.28377e+00 -2.39712e+01        00000 
 1.89014e+01 -2.61875e+01        00000 
 2.94948e+01 -3.00775e+01        00000 
 4.18517e+01 -3.53863e+01        00000 
-6.83937e+01 -6.98649e+01        00000 
-4.93728e+01 -6.51494e+01        00000 
-3.19438e+01 -6.17129e+01        00000 
-1.52931e+01 -5.96442e+01        00000 
 6.00188e-01 -5.89667e+01        00000 
 1.62595e+01 -5.97308e+01        00000 
 3.23287e+01 -6.17744e+01        00000 
 4.91249e+01 -6.50998e+01        00000 
 6.75810e+01 -6.97364e+01        00000 
-9.01657e+01 -1.17816e+02        00000 
-6.57201e+01 -1.13701e+02        00000 
-4.26680e+01 -1.10710e+02        00000 
-2.08437e+01 -1.08742e+02        00000 
 6.01851e-01 -1.07803e+02        00000 
 2.21237e+01 -1.07855e+02        00000 
 4.38345e+01 -1.09263e+02        00000 
 6.63731e+01 -1.12051e+02        00000 
 9.03381e+01 -1.15908e+02        00000 
-1.08316e+02 -1.75160e+02        00000 
-7.94059e+01 -1.71947e+02        00000 
-5.22595e+01 -1.69439e+02        00000 
-2.61688e+01 -1.67606e+02        00000 
-2.22479e-01 -1.66658e+02        00000 
 2.60129e+01 -1.66692e+02        00000 
 5.27777e+01 -1.67881e+02        00000 
 8.03228e+01 -1.70214e+02        00000 
 1.09229e+02 -1.73490e+02        00000 
-1.23951e+02 -2.40920e+02        00000 
-9.13820e+01 -2.38096e+02        00000 
-6.04268e+01 -2.36146e+02        00000 
-3.05788e+01 -2.34916e+02        00000 
-1.03894e+00 -2.34491e+02        00000 
 2.93486e+01 -2.34607e+02        00000 
 6.03131e+01 -2.35403e+02        00000 
 9.19501e+01 -2.37134e+02        00000 
 1.24704e+02 -2.39678e+02        00000 
-1.37107e+02 -3.14530e+02        00000 
-1.00985e+02 -3.12528e+02        00000 
-6.68327e+01 -3.11279e+02        00000 
-3.41300e+01 -3.10545e+02        00000 
-1.75610e+00 -3.10106e+02        00000 
 3.11151e+01 -3.10031e+02        00000 
 6.51790e+01 -3.10383e+02        00000 
 1.00131e+02 -3.11391e+02        00000 
 1.36266e+02 -3.13091e+02        00000 
-1.47033e+02 -3.94068e+02        00000 
-1.08154e+02 -3.92728e+02        00000 
-7.17186e+01 -3.91783e+02        00000 
-3.69082e+01 -3.91176e+02        00000 
-2.61613e+00 -3.91074e+02        00000 
 3.19816e+01 -3.91343e+02        00000 
 6.76600e+01 -3.91604e+02        00000 
 1.04874e+02 -3.92039e+02        00000 
 1.43977e+02 -3.92954e+02        00000 
-1.52769e+02 -4.78541e+02        00000 
-1.11704e+02 -4.77941e+02        00000 
-7.40391e+01 -4.77202e+02        00000 
-3.79436e+01 -4.76805e+02        00000 
-2.59366e+00 -4.76800e+02        00000 
 3.27102e+01 -4.77131e+02        00000 
 6.88626e+01 -4.77955e+02        00000 
 1.06837e+02 -4.78894e+02        00000 
 1.48315e+02 -4.79437e+02        00000 
-9.14778e-16  1.78434e-15        00000 
-7.64413e+00 -5.65631e+00        00000 
-5.91887e+00 -3.88196e+00        00000 
 1.54622e-16  1.15692e-16        00000 
-4.81265e+00 -2.72748e+00        00000 
-3.99416e+00 -1.97779e+00        00000 
-6.24500e-16  6.86950e-16        00000 
-3.22734e+00 -1.44525e+00        00000 
-2.43014e+00 -1.09560e+00        00000 
-2.38669e-16 -2.24827e-16        00000 
-1.75697e+00 -9.00707e-01        00000 
-1.07947e+00 -7.46520e-01        00000 
       00000 -9.36751e-17        00000 
-4.51132e-01 -7.22037e-01        00000 
 2.22932e-01 -7.29977e-01        00000 
-2.95059e-16 -1.14461e-16        00000 
 8.71246e-01 -8.34830e-01        00000 
 1.52017e+00 -9.95666e-01        00000 
-8.74301e-16  1.24900e-16        00000 
 2.21312e+00 -1.30158e+00        00000 
 2.93762e+00 -1.67846e+00        00000 
 4.99600e-16        00000        00000 
 3.67217e+00 -2.18966e+00        00000 
 4.52183e+00 -2.92284e+00        00000 
-7.53116e-17  4.05002e-16        00000 
 5.66321e+00 -3.96552e+00        00000 
 7.53352e+00 -5.71219e+00        00000 
-2.93451e+01 -2.14108e+01        00000 
-3.94459e+01 -2.90391e+01        00000 
-3.34251e+01 -2.59163e+01        00000 
-1.99551e+01 -1.60181e+01        00000 
-2.78656e+01 -2.32183e+01        00000 
-2.27456e+01 -2.10439e+01        00000 
-1.23771e+01 -1.27491e+01        00000 
-1.80114e+01 -1.93460e+01        00000 
-1.36508e+01 -1.80357e+01        00000 
-6.07891e+00 -1.11096e+01        00000 
-9.62409e+00 -1.71546e+01        00000 
-5.84971e+00 -1.66341e+01        00000 
-3.06618e-01 -1.07356e+01        00000 
-2.14022e+00 -1.64548e+01        00000 
 1.67906e+00 -1.65636e+01        00000 
 5.81862e+00 -1.15110e+01        00000 
 5.56237e+00 -1.70081e+01        00000 
 9.51567e+00 -1.77431e+01        00000 
 1.20212e+01 -1.35028e+01        00000 
 1.34186e+01 -1.87810e+01        00000 
 1.74930e+01 -2.02330e+01        00000 
 1.89518e+01 -1.70463e+01        00000 
 2.18545e+01 -2.21202e+01        00000 
 2.67877e+01 -2.45143e+01        00000 
 2.83650e+01 -2.25141e+01        00000 
 3.22450e+01 -2.72842e+01        00000 
 3.82392e+01 -3.03737e+01        00000 
-5.62454e+01 -5.02786e+01        00000 
-6.71377e+01 -6.12378e+01        00000 
-5.78678e+01 -5.84105e+01        00000 
-4.01815e+01 -4.53440e+01        00000 
-4.90975e+01 -5.59537e+01        00000 
-4.07151e+01 -5.38562e+01        00000 
-2.58034e+01 -4.17257e+01        00000 
-3.28139e+01 -5.20774e+01        00000 
-2.51637e+01 -5.06791e+01        00000 
-1.24460e+01 -3.95501e+01        00000 
-1.76193e+01 -4.95925e+01        00000 
-1.02590e+01 -4.89370e+01        00000 
 2.57646e-01 -3.92006e+01        00000 
-3.03976e+00 -4.86854e+01        00000 
 3.94427e+00 -4.88266e+01        00000 
 1.27269e+01 -4.01936e+01        00000 
 1.09600e+01 -4.92629e+01        00000 
 1.80610e+01 -5.00642e+01        00000 
 2.57466e+01 -4.25273e+01        00000 
 2.53461e+01 -5.11495e+01        00000 
 3.27798e+01 -5.25847e+01        00000 
 3.95822e+01 -4.62047e+01        00000 
 4.04784e+01 -5.43011e+01        00000 
 4.85100e+01 -5.63885e+01        00000 
 5.49664e+01 -5.11173e+01        00000 
 5.69413e+01 -5.87952e+01        00000 
 6.58454e+01 -6.16322e+01        00000 
-7.97429e+01 -9.24433e+01        00000 
-9.11308e+01 -1.06214e+02        00000 
-7.91227e+01 -1.03673e+02        00000 
-5.78885e+01 -8.80780e+01        00000 
-6.75059e+01 -1.01522e+02        00000 
-5.63203e+01 -9.96307e+01        00000 
-3.75015e+01 -8.48271e+01        00000 
-4.54426e+01 -9.81338e+01        00000 
-3.48942e+01 -9.69221e+01        00000 
-1.80904e+01 -8.28118e+01        00000 
-2.45517e+01 -9.59454e+01        00000 
-1.43810e+01 -9.51811e+01        00000 
 7.65827e-01 -8.18777e+01        00000 
-4.30444e+00 -9.46421e+01        00000 
 5.76920e+00 -9.44347e+01        00000 
 1.94801e+01 -8.22588e+01        00000 
 1.58283e+01 -9.45719e+01        00000 
 2.58850e+01 -9.49979e+01        00000 
 3.84121e+01 -8.39617e+01        00000 
 3.60602e+01 -9.57641e+01        00000 
 4.63510e+01 -9.69000e+01        00000 
 5.81458e+01 -8.70203e+01        00000 
 5.69534e+01 -9.83030e+01        00000 
 6.79089e+01 -1.00136e+02        00000 
 7.94485e+01 -9.13423e+01        00000 
 7.92110e+01 -1.02264e+02        00000 
 9.09673e+01 -1.04636e+02        00000 
-9.96547e+01 -1.45361e+02        00000 
-1.11411e+02 -1.61093e+02        00000 
-9.69255e+01 -1.59070e+02        00000 
-7.28958e+01 -1.41761e+02        00000 
-8.30317e+01 -1.57367e+02        00000 
-6.94764e+01 -1.55909e+02        00000 
-4.75579e+01 -1.39016e+02        00000 
-5.63436e+01 -1.54636e+02        00000 
-4.36041e+01 -1.53516e+02        00000 
-2.35513e+01 -1.37097e+02        00000 
-3.10580e+01 -1.52564e+02        00000 
-1.86485e+01 -1.51877e+02        00000 
 2.59297e-01 -1.36139e+02        00000 
-6.16212e+00 -1.51321e+02        00000 
 6.22867e+00 -1.51071e+02        00000 
 2.42044e+01 -1.36212e+02        00000 
 1.87541e+01 -1.51128e+02        00000 
 3.14738e+01 -1.51376e+02        00000 
 4.84666e+01 -1.37351e+02        00000 
 4.42407e+01 -1.51951e+02        00000 
 5.71672e+01 -1.52872e+02        00000 
 7.37787e+01 -1.39726e+02        00000 
 7.04584e+01 -1.53976e+02        00000 
 8.38849e+01 -1.55419e+02        00000 
 1.00221e+02 -1.43177e+02        00000 
 9.77123e+01 -1.57162e+02        00000 
 1.12119e+02 -1.59137e+02        00000 
-1.16432e+02 -2.07070e+02        00000 
-1.28492e+02 -2.24710e+02        00000 
-1.12147e+02 -2.22987e+02        00000 
-8.56518e+01 -2.03965e+02        00000 
-9.62866e+01 -2.21469e+02        00000 
-8.09248e+01 -2.20159e+02        00000 
-5.66232e+01 -2.01650e+02        00000 
-6.59812e+01 -2.19123e+02        00000 
-5.13128e+01 -2.18211e+02        00000 
-2.85703e+01 -2.00141e+02        00000 
-3.68437e+01 -2.17578e+02        00000 
-2.24608e+01 -2.17148e+02        00000 
-6.97691e-01 -1.99450e+02        00000 
-8.06362e+00 -2.16783e+02        00000 
 6.42826e+00 -2.16691e+02        00000 
 2.78157e+01 -1.99609e+02        00000 
 2.11989e+01 -2.16769e+02        00000 
 3.60362e+01 -2.17052e+02        00000 
 5.68412e+01 -2.00760e+02        00000 
 5.10812e+01 -2.17512e+02        00000 
 6.62576e+01 -2.18268e+02        00000 
 8.64903e+01 -2.02915e+02        00000 
 8.16192e+01 -2.19227e+02        00000 
 9.72145e+01 -2.20490e+02        00000 
 1.17432e+02 -2.06111e+02        00000 
 1.13130e+02 -2.21937e+02        00000 
 1.29472e+02 -2.23654e+02        00000 
-1.30894e+02 -2.76860e+02        00000 
-1.43234e+02 -2.96224e+02        00000 
-1.25099e+02 -2.94873e+02        00000 
-9.65554e+01 -2.74372e+02        00000 
-1.07485e+02 -2.93766e+02        00000 
-9.03171e+01 -2.92900e+02        00000 
-6.38770e+01 -2.72800e+02        00000 
-7.36023e+01 -2.92213e+02        00000 
-5.73087e+01 -2.91676e+02        00000 
-3.24581e+01 -2.71849e+02        00000 
-4.12814e+01 -2.91288e+02        00000 
-2.53911e+01 -2.90955e+02        00000 
-1.28984e+00 -2.71402e+02        00000 
-9.50003e+00 -2.90709e+02        00000 
 6.44211e+00 -2.90528e+02        00000 
 3.03828e+01 -2.71310e+02        00000 
 2.25699e+01 -2.90486e+02        00000 
 3.90027e+01 -2.90579e+02        00000 
 6.30197e+01 -2.71893e+02        00000 
 5.57176e+01 -2.90762e+02        00000 
 7.26669e+01 -2.91165e+02        00000 
 9.65065e+01 -2.73256e+02        00000 
 8.97985e+01 -2.91784e+02        00000 
 1.07119e+02 -2.92574e+02        00000 
 1.31129e+02 -2.75410e+02        00000 
 1.24784e+02 -2.93574e+02        00000 
 1.43013e+02 -2.94713e+02        00000 
-1.42536e+02 -3.53830e+02        00000 
-1.54812e+02 -3.74406e+02        00000 
-1.35155e+02 -3.73375e+02        00000 
-1.04897e+02 -3.52130e+02        00000 
-1.16012e+02 -3.72568e+02        00000 
-9.74212e+01 -3.71950e+02        00000 
-6.94634e+01 -3.50992e+02        00000 
-7.94669e+01 -3.71441e+02        00000 
-6.20175e+01 -3.71013e+02        00000 
-3.57149e+01 -3.50264e+02        00000 
-4.48503e+01 -3.70642e+02        00000 
-2.79191e+01 -3.70461e+02        00000 
-2.34095e+00 -3.49874e+02        00000 
-1.10029e+01 -3.70347e+02        00000 
 5.97843e+00 -3.70341e+02        00000 
 3.15468e+01 -3.50005e+02        00000 
 2.31224e+01 -3.70441e+02        00000 
 4.05528e+01 -3.70574e+02        00000 
 6.65843e+01 -3.50383e+02        00000 
 5.82721e+01 -3.70769e+02        00000 
 7.62231e+01 -3.71026e+02        00000 
 1.02919e+02 -3.51095e+02        00000 
 9.46577e+01 -3.71282e+02        00000 
 1.13407e+02 -3.71651e+02        00000 
 1.40504e+02 -3.52379e+02        00000 
 1.32628e+02 -3.72224e+02        00000 
 1.52220e+02 -3.72985e+02        00000 
-1.50508e+02 -4.35230e+02        00000 
-1.62499e+02 -4.56844e+02        00000 
-1.41347e+02 -4.56390e+02        00000 
-1.10513e+02 -4.34410e+02        00000 
-1.21077e+02 -4.56070e+02        00000 
-1.01619e+02 -4.55780e+02        00000 
-7.32642e+01 -4.33854e+02        00000 
-8.29266e+01 -4.55551e+02        00000 
-6.46590e+01 -4.55314e+02        00000 
-3.76827e+01 -4.33455e+02        00000 
-4.67993e+01 -4.55178e+02        00000 
-2.90376e+01 -4.55098e+02        00000 
-2.67614e+00 -4.33542e+02        00000 
-1.14278e+01 -4.55172e+02        00000 
 6.14244e+00 -4.55245e+02        00000 
 3.23331e+01 -4.33859e+02        00000 
 2.36822e+01 -4.55415e+02        00000 
 4.14027e+01 -4.55636e+02        00000 
 6.83530e+01 -4.34290e+02        00000 
 5.93636e+01 -4.55934e+02        00000 
 7.78654e+01 -4.56144e+02        00000 
 1.06198e+02 -4.34509e+02        00000 
 9.68242e+01 -4.56373e+02        00000 
 1.16455e+02 -4.56546e+02        00000 
 1.46645e+02 -4.34825e+02        00000 
 1.36983e+02 -4.56673e+02        00000 
 1.58464e+02 -4.57030e+02        00000 
-1.14178e+01 -7.89255e+00        00000 
-1.98071e+01 -1.43791e+01        00000 
-7.54040e+00 -4.75969e+00        00000 
-1.31121e+01 -9.70373e+00        00000 
-4.28740e+00 -3.32825e+00        00000 
-7.81914e+00 -7.31203e+00        00000 
-1.54929e+00 -2.80325e+00        00000 
-3.44580e+00 -6.27520e+00        00000 
 1.18157e+00 -2.85277e+00        00000 
 8.29497e-01 -6.10173e+00        00000 
 4.05406e+00 -3.62944e+00        00000 
 5.33560e+00 -7.00497e+00        00000 
 7.00732e+00 -5.32291e+00        00000 
 9.82330e+00 -9.03627e+00        00000 
 1.08453e+01 -8.31696e+00        00000 
 1.53011e+01 -1.24983e+01        00000 
 1.89835e+01 -1.46797e+01        00000 
 2.38947e+01 -1.84639e+01        00000 
-3.65545e+01 -3.12474e+01        00000 
-4.59931e+01 -4.03283e+01        00000 
-2.45955e+01 -2.69249e+01        00000 
-3.19789e+01 -3.55568e+01        00000 
-1.40997e+01 -2.40972e+01        00000 
-1.94989e+01 -3.22442e+01        00000 
-4.72080e+00 -2.29773e+01        00000 
-8.09928e+00 -3.05835e+01        00000 
 4.58247e+00 -2.33465e+01        00000 
 2.78637e+00 -3.06058e+01        00000 
 1.40038e+01 -2.48893e+01        00000 
 1.37791e+01 -3.20176e+01        00000 
 2.40202e+01 -2.79520e+01        00000 
 2.52804e+01 -3.47164e+01        00000 
 3.54351e+01 -3.25649e+01        00000 
 3.78969e+01 -3.88868e+01        00000 
 4.86678e+01 -3.84441e+01        00000 
 5.22043e+01 -4.45207e+01        00000 
-5.86454e+01 -6.73522e+01        00000 
-6.89020e+01 -7.96165e+01        00000 
-4.05204e+01 -6.32986e+01        00000 
-4.88516e+01 -7.53036e+01        00000 
-2.35567e+01 -6.05253e+01        00000 
-3.02036e+01 -7.23099e+01        00000 
-7.25025e+00 -5.91647e+01        00000 
-1.22964e+01 -7.05445e+01        00000 
 8.36676e+00 -5.92008e+01        00000 
 4.98009e+00 -6.99975e+01        00000 
 2.41799e+01 -6.06308e+01        00000 
 2.22672e+01 -7.09366e+01        00000 
 4.05573e+01 -6.32918e+01        00000 
 3.98481e+01 -7.31772e+01        00000 
 5.81024e+01 -6.72494e+01        00000 
 5.85758e+01 -7.66692e+01        00000 
 7.74676e+01 -7.25407e+01        00000 
 7.88970e+01 -8.16724e+01        00000 
-7.77529e+01 -1.15648e+02        00000 
-8.85000e+01 -1.30332e+02        00000 
-5.40301e+01 -1.12093e+02        00000 
-6.31921e+01 -1.26673e+02        00000 
-3.16521e+01 -1.09633e+02        00000 
-3.92899e+01 -1.24051e+02        00000 
-1.00779e+01 -1.08190e+02        00000 
-1.65067e+01 -1.22297e+02        00000 
 1.13244e+01 -1.07702e+02        00000 
 6.01269e+00 -1.21552e+02        00000 
 3.29078e+01 -1.08441e+02        00000 
 2.89558e+01 -1.21903e+02        00000 
 5.49198e+01 -1.10509e+02        00000 
 5.20686e+01 -1.23471e+02        00000 
 7.81419e+01 -1.13862e+02        00000 
 7.63357e+01 -1.26342e+02        00000 
 1.03065e+02 -1.18314e+02        00000 
 1.02077e+02 -1.30420e+02        00000 
-9.36140e+01 -1.73470e+02        00000 