<?xml version="1.0" encoding="utf-8"?>
<VTKFile byte_order="LittleEndian" type="UnstructuredGrid" version="0.1">
   <UnstructuredGrid>
      <Piece NumberOfCells="1296" NumberOfPoints="685">
         <Points>
            <DataArray Name="Points" NumberOfComponents="3" format="ascii" type="Float32">
0.0000 0.0000 0.0000
0.0000 0.1111 0.0000
0.0000 0.2222 0.0000
0.0000 0.3333 0.0000
0.0000 0.4444 0.0000
0.0000 0.5556 0.0000
0.0000 0.6667 0.0000
0.0000 0.7778 0.0000
0.0000 0.8889 0.0000
0.0000 1.0000 0.0000
0.2222 0.0000 0.0000
0.2222 0.1111 0.0000
0.2222 0.2222 0.0000
0.2222 0.3333 0.0000
0.2222 0.4444 0.0000
0.2222 0.5556 0.0000
0.2222 0.6667 0.0000
0.2222 0.7778 0.0000
0.2222 0.8889 0.0000
0.2222 1.0000 0.0000
0.4444 0.0000 0.0000
0.4444 0.1111 0.0000
0.4444 0.2222 0.0000
0.4444 0.3333 0.0000
0.4444 0.4444 0.0000
0.4444 0.5556 0.0000
0.4444 0.6667 0.0000
0.4444 0.7778 0.0000
0.4444 0.8889 0.0000
0.4444 1.0000 0.0000
0.6667 0.0000 0.0000
0.6667 0.1111 0.0000
0.6667 0.2222 0.0000
0.6667 0.3333 0.0000
0.6667 0.4444 0.0000
0.6667 0.5556 0.0000
0.6667 0.6667 0.0000
0.6667 0.7778 0.0000
0.6667 0.8889 0.0000
0.6667 1.0000 0.0000
0.8889 0.0000 0.0000
0.8889 0.1111 0.0000
0.8889 0.2222 0.0000
0.8889 0.3333 0.0000
0.8889 0.4444 0.0000
0.8889 0.5556 0.0000
0.8889 0.6667 0.0000
0.8889 0.7778 0.0000
0.8889 0.8889 0.0000
0.8889 1.0000 0.0000
1.1111 0.0000 0.0000
1.1111 0.1111 0.0000
1.1111 0.2222 0.0000
1.1111 0.3333 0.0000
1.1111 0.4444 0.0000
1.1111 0.5556 0.0000
1.1111 0.6667 0.0000
1.1111 0.7778 0.0000
1.1111 0.8889 0.0000
1.1111 1.0000 0.0000
1.3333 0.0000 0.0000
1.3333 0.1111 0.0000
1.3333 0.2222 0.0000
1.3333 0.3333 0.0000
1.3333 0.4444 0.0000
1.3333 0.5556 0.0000
1.3333 0.6667 0.0000
1.3333 0.7778 0.0000
1.3333 0.8889 0.0000
1.3333 1.0000 0.0000
1.5556 0.0000 0.0000
1.5556 0.1111 0.0000
1.5556 0.2222 0.0000
1.5556 0.3333 0.0000
1.5556 0.4444 0.0000
1.5556 0.5556 0.0000
1.5556 0.6667 0.0000
1.5556 0.7778 0.0000
1.5556 0.8889 0.0000
1.5556 1.0000 0.0000
1.7778 0.0000 0.0000
1.7778 0.1111 0.0000
1.7778 0.2222 0.0000
1.7778 0.3333 0.0000
1.7778 0.4444 0.0000
1.7778 0.5556 0.0000
1.7778 0.6667 0.0000
1.7778 0.7778 0.0000
1.7778 0.8889 0.0000
1.7778 1.0000 0.0000
2.0000 0.0000 0.0000
2.0000 0.1111 0.0000
2.0000 0.2222 0.0000
2.0000 0.3333 0.0000
2.0000 0.4444 0.0000
2.0000 0.5556 0.0000
2.0000 0.6667 0.0000
2.0000 0.7778 0.0000
2.0000 0.8889 0.0000
2.0000 1.0000 0.0000
0.1111 0.0556 0.0000
0.1111 0.1667 0.0000
0.1111 0.2778 0.0000
0.1111 0.3889 0.0000
0.1111 0.5000 0.0000
0.1111 0.6111 0.0000
0.1111 0.7222 0.0000
0.1111 0.8333 0.0000
0.1111 0.9444 0.0000
0.3333 0.0556 0.0000
0.3333 0.1667 0.0000
0.3333 0.2778 0.0000
0.3333 0.3889 0.0000
0.3333 0.5000 0.0000
0.3333 0.6111 0.0000
0.3333 0.7222 0.0000
0.3333 0.8333 0.0000
0.3333 0.9444 0.0000
0.5556 0.0556 0.0000
0.5556 0.1667 0.0000
0.5556 0.2778 0.0000
0.5556 0.3889 0.0000
0.5556 0.5000 0.0000
0.5556 0.6111 0.0000
0.5556 0.7222 0.0000
0.5556 0.8333 0.0000
0.5556 0.9444 0.0000
0.7778 0.0556 0.0000
0.7778 0.1667 0.0000
0.7778 0.2778 0.0000
0.7778 0.3889 0.0000
0.7778 0.5000 0.0000
0.7778 0.6111 0.0000
0.7778 0.7222 0.0000
0.7778 0.8333 0.0000
0.7778 0.9444 0.0000
1.0000 0.0556 0.0000
1.0000 0.1667 0.0000
1.0000 0.2778 0.0000
1.0000 0.3889 0.0000
1.0000 0.5000 0.0000
1.0000 0.6111 0.0000
1.0000 0.7222 0.0000
1.0000 0.8333 0.0000
1.0000 0.9444 0.0000
1.2222 0.0556 0.0000
1.2222 0.1667 0.0000
1.2222 0.2778 0.0000
1.2222 0.3889 0.0000
1.2222 0.5000 0.0000
1.2222 0.6111 0.0000
1.2222 0.7222 0.0000
1.2222 0.8333 0.0000
1.2222 0.9444 0.0000
1.4444 0.0556 0.0000
1.4444 0.1667 0.0000
1.4444 0.2778 0.0000
1.4444 0.3889 0.0000
1.4444 0.5000 0.0000
1.4444 0.6111 0.0000
1.4444 0.7222 0.0000
1.4444 0.8333 0.0000
1.4444 0.9444 0.0000
1.6667 0.0556 0.0000
1.6667 0.1667 0.0000
1.6667 0.2778 0.0000
1.6667 0.3889 0.0000
1.6667 0.5000 0.0000
1.6667 0.6111 0.0000
1.6667 0.7222 0.0000
1.6667 0.8333 0.0000
1.6667 0.9444 0.0000
1.8889 0.0556 0.0000
1.8889 0.1667 0.0000
1.8889 0.2778 0.0000
1.8889 0.3889 0.0000
1.8889 0.5000 0.0000
1.8889 0.6111 0.0000
1.8889 0.7222 0.0000
1.8889 0.8333 0.0000
1.8889 0.9444 0.0000
0.0000 0.0556 0.0000
0.0556 0.0278 0.0000
0.0556 0.0833 0.0000
0.0000 0.1667 0.0000
0.0556 0.1389 0.0000
0.0556 0.1944 0.0000
0.0000 0.2778 0.0000
0.0556 0.2500 0.0000
0.0556 0.3056 0.0000
0.0000 0.3889 0.0000
0.0556 0.3611 0.0000
0.0556 0.4167 0.0000
0.0000 0.5000 0.0000
0.0556 0.4722 0.0000
0.0556 0.5278 0.0000
0.0000 0.6111 0.0000
0.0556 0.5833 0.0000
0.0556 0.6389 0.0000
0.0000 0.7222 0.0000
0.0556 0.6944 0.0000
0.0556 0.7500 0.0000
0.0000 0.8333 0.0000
0.0556 0.8056 0.0000
0.0556 0.8611 0.0000
0.0000 0.9444 0.0000
0.0556 0.9167 0.0000
0.0556 0.9722 0.0000
0.2222 0.0556 0.0000
0.2778 0.0278 0.0000
0.2778 0.0833 0.0000
0.2222 0.1667 0.0000
0.2778 0.1389 0.0000
0.2778 0.1944 0.0000
0.2222 0.2778 0.0000
0.2778 0.2500 0.0000
0.2778 0.3056 0.0000
0.2222 0.3889 0.0000
0.2778 0.3611 0.0000
0.2778 0.4167 0.0000
0.2222 0.5000 0.0000
0.2778 0.4722 0.0000
0.2778 0.5278 0.0000
0.2222 0.6111 0.0000
0.2778 0.5833 0.0000
0.2778 0.6389 0.0000
0.2222 0.7222 0.0000
0.2778 0.6944 0.0000
0.2778 0.7500 0.0000
0.2222 0.8333 0.0000
0.2778 0.8056 0.0000
0.2778 0.8611 0.0000
0.2222 0.9444 0.0000
0.2778 0.9167 0.0000
0.2778 0.9722 0.0000
0.4444 0.0556 0.0000
0.5000 0.0278 0.0000
0.5000 0.0833 0.0000
0.4444 0.1667 0.0000
0.5000 0.1389 0.0000
0.5000 0.1944 0.0000
0.4444 0.2778 0.0000
0.5000 0.2500 0.0000
0.5000 0.3056 0.0000
0.4444 0.3889 0.0000
0.5000 0.3611 0.0000
0.5000 0.4167 0.0000
0.4444 0.5000 0.0000
0.5000 0.4722 0.0000
0.5000 0.5278 0.0000
0.4444 0.6111 0.0000
0.5000 0.5833 0.0000
0.5000 0.6389 0.0000
0.4444 0.7222 0.0000
0.5000 0.6944 0.0000
0.5000 0.7500 0.0000
0.4444 0.8333 0.0000
0.5000 0.8056 0.0000
0.5000 0.8611 0.0000
0.4444 0.9444 0.0000
0.5000 0.9167 0.0000
0.5000 0.9722 0.0000
0.6667 0.0556 0.0000
0.7222 0.0278 0.0000
0.7222 0.0833 0.0000
0.6667 0.1667 0.0000
0.7222 0.1389 0.0000
0.7222 0.1944 0.0000
0.6667 0.2778 0.0000
0.7222 0.2500 0.0000
0.7222 0.3056 0.0000
0.6667 0.3889 0.0000
0.7222 0.3611 0.0000
0.7222 0.4167 0.0000
0.6667 0.5000 0.0000
0.7222 0.4722 0.0000
0.7222 0.5278 0.0000
0.6667 0.6111 0.0000
0.7222 0.5833 0.0000
0.7222 0.6389 0.0000
0.6667 0.7222 0.0000
0.7222 0.6944 0.0000
0.7222 0.7500 0.0000
0.6667 0.8333 0.0000
0.7222 0.8056 0.0000
0.7222 0.8611 0.0000
0.6667 0.9444 0.0000
0.7222 0.9167 0.0000
0.7222 0.9722 0.0000
0.8889 0.0556 0.0000
0.9444 0.0278 0.0000
0.9444 0.0833 0.0000
0.8889 0.1667 0.0000
0.9444 0.1389 0.0000
0.9444 0.1944 0.0000
0.8889 0.2778 0.0000
0.9444 0.2500 0.0000
0.9444 0.3056 0.0000
0.8889 0.3889 0.0000
0.9444 0.3611 0.0000
0.9444 0.4167 0.0000
0.8889 0.5000 0.0000
0.9444 0.4722 0.0000
0.9444 0.5278 0.0000
0.8889 0.6111 0.0000
0.9444 0.5833 0.0000
0.9444 0.6389 0.0000
0.8889 0.7222 0.0000
0.9444 0.6944 0.0000
0.9444 0.7500 0.0000
0.8889 0.8333 0.0000
0.9444 0.8056 0.0000
0.9444 0.8611 0.0000
0.8889 0.9444 0.0000
0.9444 0.9167 0.0000
0.9444 0.9722 0.0000
1.1111 0.0556 0.0000
1.1667 0.0278 0.0000
1.1667 0.0833 0.0000
1.1111 0.1667 0.0000
1.1667 0.1389 0.0000
1.1667 0.1944 0.0000
1.1111 0.2778 0.0000
1.1667 0.2500 0.0000
1.1667 0.3056 0.0000
1.1111 0.3889 0.0000
1.1667 0.3611 0.0000
1.1667 0.4167 0.0000
1.1111 0.5000 0.0000
1.1667 0.4722 0.0000
1.1667 0.5278 0.0000
1.1111 0.6111 0.0000
1.1667 0.5833 0.0000
1.1667 0.6389 0.0000
1.1111 0.7222 0.0000
1.1667 0.6944 0.0000
1.1667 0.7500 0.0000
1.1111 0.8333 0.0000
1.1667 0.8056 0.0000
1.1667 0.8611 0.0000
1.1111 0.9444 0.0000
1.1667 0.9167 0.0000
1.1667 0.9722 0.0000
1.3333 0.0556 0.0000
1.3889 0.0278 0.0000
1.3889 0.0833 0.0000
1.3333 0.1667 0.0000
1.3889 0.1389 0.0000
1.3889 0.1944 0.0000
1.3333 0.2778 0.0000
1.3889 0.2500 0.0000
1.3889 0.3056 0.0000
1.3333 0.3889 0.0000
1.3889 0.3611 0.0000
1.3889 0.4167 0.0000
1.3333 0.5000 0.0000
1.3889 0.4722 0.0000
1.3889 0.5278 0.0000
1.3333 0.6111 0.0000
1.3889 0.5833 0.0000
1.3889 0.6389 0.0000
1.3333 0.7222 0.0000
1.3889 0.6944 0.0000
1.3889 0.7500 0.0000
1.3333 0.8333 0.0000
1.3889 0.8056 0.0000
1.3889 0.8611 0.0000
1.3333 0.9444 0.0000
1.3889 0.9167 0.0000
1.3889 0.9722 0.0000
1.5556 0.0556 0.0000
1.6111 0.0278 0.0000
1.6111 0.0833 0.0000
1.5556 0.1667 0.0000
1.6111 0.1389 0.0000
1.6111 0.1944 0.0000
1.5556 0.2778 0.0000
1.6111 0.2500 0.0000
1.6111 0.3056 0.0000
1.5556 0.3889 0.0000
1.6111 0.3611 0.0000
1.6111 0.4167 0.0000
1.5556 0.5000 0.0000
1.6111 0.4722 0.0000
1.6111 0.5278 0.0000
1.5556 0.6111 0.0000
1.6111 0.5833 0.0000
1.6111 0.6389 0.0000
1.5556 0.7222 0.0000
1.6111 0.6944 0.0000
1.6111 0.7500 0.0000
1.5556 0.8333 0.0000
1.6111 0.8056 0.0000
1.6111 0.8611 0.0000
1.5556 0.9444 0.0000
1.6111 0.9167 0.0000
1.6111 0.9722 0.0000
1.7778 0.0556 0.0000
1.8333 0.0278 0.0000
1.8333 0.0833 0.0000
1.7778 0.1667 0.0000
1.8333 0.1389 0.0000
1.8333 0.1944 0.0000
1.7778 0.2778 0.0000
1.8333 0.2500 0.0000
1.8333 0.3056 0.0000
1.7778 0.3889 0.0000
1.8333 0.3611 0.0000
1.8333 0.4167 0.0000
1.7778 0.5000 0.0000
1.8333 0.4722 0.0000
1.8333 0.5278 0.0000
1.7778 0.6111 0.0000
1.8333 0.5833 0.0000
1.8333 0.6389 0.0000
1.7778 0.7222 0.0000
1.8333 0.6944 0.0000
1.8333 0.7500 0.0000
1.7778 0.8333 0.0000
1.8333 0.8056 0.0000
1.8333 0.8611 0.0000
1.7778 0.9444 0.0000
1.8333 0.9167 0.0000
1.8333 0.9722 0.0000
0.1111 0.1111 0.0000
0.1667 0.0833 0.0000
0.1111 0.2222 0.0000
0.1667 0.1944 0.0000
0.1111 0.3333 0.0000
0.1667 0.3056 0.0000
0.1111 0.4444 0.0000
0.1667 0.4167 0.0000
0.1111 0.5556 0.0000
0.1667 0.5278 0.0000
0.1111 0.6667 0.0000
0.1667 0.6389 0.0000
0.1111 0.7778 0.0000
0.1667 0.7500 0.0000
0.1111 0.8889 0.0000
0.1667 0.8611 0.0000
0.1111 1.0000 0.0000
0.1667 0.9722 0.0000
0.3333 0.1111 0.0000
0.3889 0.0833 0.0000
0.3333 0.2222 0.0000
0.3889 0.1944 0.0000
0.3333 0.3333 0.0000
0.3889 0.3056 0.0000
0.3333 0.4444 0.0000
0.3889 0.4167 0.0000
0.3333 0.5556 0.0000
0.3889 0.5278 0.0000
0.3333 0.6667 0.0000
0.3889 0.6389 0.0000
0.3333 0.7778 0.0000
0.3889 0.7500 0.0000
0.3333 0.8889 0.0000
0.3889 0.8611 0.0000
0.3333 1.0000 0.0000
0.3889 0.9722 0.0000
0.5556 0.1111 0.0000
[...]
         <PointData>
            <DataArray Name="fValues" NumberOfComponents="3" format="ascii" type="Float64">
-3.67130e-15 -2.44753e-15        00000 
 6.93287e-16  1.41959e-15        00000 
 2.66213e-16 -2.65601e-17        00000 
-1.57816e-15  3.28783e-16        00000 
-1.40666e-16 -9.32444e-16        00000 
 1.97270e-16 -7.23322e-16        00000 
 6.82817e-16 -4.86843e-16        00000 
-4.59879e-16 -2.95637e-16        00000 
 1.05669e-15 -1.84921e-15        00000 
-1.22377e-15 -3.05941e-15        00000 
-4.99390e+01 -3.79819e+01        00000 
-3.39782e+01 -2.92081e+01        00000 
-2.21508e+01 -2.30337e+01        00000 
-1.26284e+01 -1.94591e+01        00000 
-4.11337e+00 -1.78378e+01        00000 
 4.11291e+00 -1.78380e+01        00000 
 1.26281e+01 -1.94596e+01        00000 
 2.21501e+01 -2.30344e+01        00000 
 3.39773e+01 -2.92090e+01        00000 
 4.99383e+01 -3.79828e+01        00000 
-9.08904e+01 -8.07083e+01        00000 
-6.68885e+01 -7.30862e+01        00000 
-4.56038e+01 -6.71504e+01        00000 
-2.64817e+01 -6.31742e+01        00000 
-8.68205e+00 -6.12023e+01        00000 
 8.68228e+00 -6.12025e+01        00000 
 2.64817e+01 -6.31747e+01        00000 
 4.56034e+01 -6.71510e+01        00000 
 6.68876e+01 -7.30868e+01        00000 
 9.08889e+01 -8.07090e+01        00000 
-1.27036e+02 -1.39682e+02        00000 
-9.52047e+01 -1.33125e+02        00000 
-6.60290e+01 -1.28061e+02        00000 
-3.88094e+01 -1.24643e+02        00000 
-1.27997e+01 -1.22921e+02        00000 
 1.28005e+01 -1.22921e+02        00000 
 3.88100e+01 -1.24642e+02        00000 
 6.60292e+01 -1.28061e+02        00000 
 9.52045e+01 -1.33124e+02        00000 
 1.27035e+02 -1.39682e+02        00000 
-1.57808e+02 -2.13494e+02        00000 
-1.19168e+02 -2.08021e+02        00000 
-8.32028e+01 -2.03819e+02        00000 
-4.91500e+01 -2.01000e+02        00000 
-1.62542e+01 -1.99585e+02        00000 
 1.62541e+01 -1.99585e+02        00000 
 4.91503e+01 -2.00998e+02        00000 
 8.32033e+01 -2.03818e+02        00000 
 1.19169e+02 -2.08020e+02        00000 
 1.57808e+02 -2.13492e+02        00000 
-1.83021e+02 -2.99760e+02        00000 
-1.38782e+02 -2.95380e+02        00000 
-9.72194e+01 -2.92026e+02        00000 
-5.75646e+01 -2.89787e+02        00000 
-1.90604e+01 -2.88669e+02        00000 
 1.90591e+01 -2.88669e+02        00000 
 5.75641e+01 -2.89787e+02        00000 
 9.72197e+01 -2.92026e+02        00000 
 1.38783e+02 -2.95380e+02        00000 
 1.83022e+02 -2.99760e+02        00000 
-2.02657e+02 -3.95975e+02        00000 
-1.54047e+02 -3.92683e+02        00000 
-1.08088e+02 -3.90190e+02        00000 
-6.40592e+01 -3.88554e+02        00000 
-2.12195e+01 -3.87748e+02        00000 
 2.12174e+01 -3.87748e+02        00000 
 6.40577e+01 -3.88553e+02        00000 
 1.08087e+02 -3.90189e+02        00000 
 1.54047e+02 -3.92682e+02        00000 
 2.02657e+02 -3.95974e+02        00000 
-2.16852e+02 -4.99646e+02        00000 
-1.64975e+02 -4.97416e+02        00000 
-1.15699e+02 -4.95838e+02        00000 
-6.85116e+01 -4.94878e+02        00000 
-2.26825e+01 -4.94427e+02        00000 
 2.26786e+01 -4.94427e+02        00000 
 6.85087e+01 -4.94878e+02        00000 
 1.15697e+02 -4.95837e+02        00000 
 1.64974e+02 -4.97416e+02        00000 
 2.16851e+02 -4.99645e+02        00000 
-2.26284e+02 -6.08757e+02        00000 
-1.71504e+02 -6.07551e+02        00000 
-1.19784e+02 -6.06826e+02        00000 
-7.07690e+01 -6.06311e+02        00000 
-2.34078e+01 -6.06027e+02        00000 
 2.34034e+01 -6.06027e+02        00000 
 7.07648e+01 -6.06312e+02        00000 
 1.19781e+02 -6.06826e+02        00000 
 1.71501e+02 -6.07551e+02        00000 
 2.26281e+02 -6.08757e+02        00000 
-2.32096e+02 -7.27365e+02        00000 
-1.74223e+02 -7.24544e+02        00000 
-1.21674e+02 -7.21184e+02        00000 
-7.19685e+01 -7.18604e+02        00000 
-2.38226e+01 -7.17229e+02        00000 
 2.38185e+01 -7.17229e+02        00000 
 7.19647e+01 -7.18605e+02        00000 
 1.21670e+02 -7.21185e+02        00000 
 1.74219e+02 -7.24546e+02        00000 
 2.32093e+02 -7.27367e+02        00000 
-2.02090e+01 -1.61674e+01        00000 
-1.28984e+01 -9.86607e+00        00000 
-8.02393e+00 -6.81059e+00        00000 
-3.88159e+00 -5.35338e+00        00000 
-1.22819e-04 -4.91722e+00        00000 
 3.88137e+00 -5.35347e+00        00000 
 8.02358e+00 -6.81101e+00        00000 
 1.28978e+01 -9.86649e+00        00000 
 2.02086e+01 -1.61676e+01        00000 
-6.06367e+01 -5.30788e+01        00000 
-4.22492e+01 -4.57595e+01        00000 
-2.66836e+01 -4.05975e+01        00000 
-1.29303e+01 -3.76361e+01        00000 
-1.28976e-04 -3.66786e+01        00000 
 1.29302e+01 -3.76366e+01        00000 
 2.66832e+01 -4.05982e+01        00000 
 4.22484e+01 -4.57605e+01        00000 
 6.06355e+01 -5.30799e+01        00000 
-9.52314e+01 -1.04487e+02        00000 
-6.86170e+01 -9.81479e+01        00000 
-4.43536e+01 -9.35229e+01        00000 
-2.17508e+01 -9.07232e+01        00000 
 3.49243e-04 -8.97879e+01        00000 
 2.17513e+01 -9.07232e+01        00000 
 4.43537e+01 -9.35228e+01        00000 
 6.86167e+01 -9.81477e+01        00000 
 9.52306e+01 -1.04487e+02        00000 
-1.25037e+02 -1.71715e+02        00000 
-9.10858e+01 -1.66359e+02        00000 
-5.94250e+01 -1.62480e+02        00000 
-2.93184e+01 -1.60136e+02        00000 
 2.48706e-04 -1.59351e+02        00000 
 2.93190e+01 -1.60135e+02        00000 
 5.94256e+01 -1.62479e+02        00000 
 9.10860e+01 -1.66357e+02        00000 
 1.25037e+02 -1.71713e+02        00000 
-1.49929e+02 -2.52636e+02        00000 
-1.09776e+02 -2.48257e+02        00000 
-7.19080e+01 -2.45100e+02        00000 
-3.55703e+01 -2.43202e+02        00000 
-4.15414e-04 -2.42568e+02        00000 
 3.55697e+01 -2.43201e+02        00000 
 7.19080e+01 -2.45099e+02        00000 
 1.09776e+02 -2.48256e+02        00000 
 1.49930e+02 -2.52635e+02        00000 
-1.69860e+02 -3.44765e+02        00000 
-1.24718e+02 -3.41362e+02        00000 
-8.18603e+01 -3.38925e+02        00000 
-4.05417e+01 -3.37471e+02        00000 
-9.69259e-04 -3.36989e+02        00000 
 4.05405e+01 -3.37471e+02        00000 
 8.18600e+01 -3.38924e+02        00000 
 1.24719e+02 -3.41361e+02        00000 
 1.69861e+02 -3.44764e+02        00000 
-1.84861e+02 -4.45574e+02        00000 
-1.35895e+02 -4.43156e+02        00000 
-8.92305e+01 -4.41485e+02        00000 
-4.41925e+01 -4.40523e+02        00000 
-1.50506e-03 -4.40211e+02        00000 
 4.41899e+01 -4.40523e+02        00000 
 8.92290e+01 -4.41484e+02        00000 
 1.35894e+02 -4.43155e+02        00000 
 1.84861e+02 -4.45573e+02        00000 
-1.95112e+02 -5.52648e+02        00000 
-1.43175e+02 -5.51245e+02        00000 
-9.38014e+01 -5.50399e+02        00000 
-4.63892e+01 -5.49938e+02        00000 
-2.19800e-03 -5.49790e+02        00000 
 4.63851e+01 -5.49939e+02        00000 
 9.37982e+01 -5.50399e+02        00000 
 1.43172e+02 -5.51245e+02        00000 
 1.95110e+02 -5.52648e+02        00000 
-2.00793e+02 -6.65275e+02        00000 
-1.46398e+02 -6.64391e+02        00000 
-9.57137e+01 -6.63322e+02        00000 
-4.73109e+01 -6.62497e+02        00000 
-2.12520e-03 -6.62192e+02        00000 
 4.73067e+01 -6.62497e+02        00000 
 9.57097e+01 -6.63322e+02        00000 
 1.46395e+02 -6.64393e+02        00000 
 2.00790e+02 -6.65276e+02        00000 
-1.26052e-16  2.80109e-18        00000 
-1.10453e+01 -8.44214e+00        00000 
-8.38443e+00 -5.94569e+00        00000 
 1.45443e-15  2.50243e-15        00000 
-6.76295e+00 -4.38243e+00        00000 
-5.48149e+00 -3.32286e+00        00000 
-9.99201e-16        00000        00000 
-4.35767e+00 -2.58248e+00        00000 
-3.32219e+00 -2.06472e+00        00000 
 2.73245e-16 -3.44193e-16        00000 
-2.34078e+00 -1.71354e+00        00000 
-1.39246e+00 -1.49523e+00        00000 
-1.24900e-16 -3.74700e-16        00000 
-4.62297e-01 -1.39054e+00        00000 
 4.62110e-01 -1.39055e+00        00000 
 7.35472e-17 -1.10541e-15        00000 
 1.39228e+00 -1.49531e+00        00000 
 2.34058e+00 -1.71364e+00        00000 
 9.99201e-16  6.24500e-16        00000 
 3.32198e+00 -2.06490e+00        00000 
 4.35740e+00 -2.58267e+00        00000 
 9.99201e-16 -1.74860e-15        00000 
 5.48120e+00 -3.32302e+00        00000 
 6.76269e+00 -4.38257e+00        00000 
-7.13941e-16  1.64076e-15        00000 
 8.38420e+00 -5.94574e+00        00000 
 1.10452e+01 -8.44217e+00        00000 
-4.14877e+01 -3.34108e+01        00000 
-5.58164e+01 -4.51799e+01        00000 
-4.68563e+01 -4.07863e+01        00000 
-2.76518e+01 -2.57503e+01        00000 
-3.87518e+01 -3.69428e+01        00000 
-3.15366e+01 -3.37525e+01        00000 
-1.72039e+01 -2.09678e+01        00000 
-2.50164e+01 -3.12093e+01        00000 
-1.90027e+01 -2.92635e+01        00000 
-8.29666e+00 -1.84331e+01        00000 
-1.33437e+01 -2.78595e+01        00000 
-7.91814e+00 -2.69507e+01        00000 
-2.69304e-04 -1.76428e+01        00000 
-2.62522e+00 -2.65046e+01        00000 
 2.62479e+00 -2.65047e+01        00000 
 8.29639e+00 -1.84335e+01        00000 
 7.91785e+00 -2.69510e+01        00000 
 1.33435e+01 -2.78600e+01        00000 
 1.72035e+01 -2.09684e+01        00000 
 1.90024e+01 -2.92640e+01        00000 
 2.50159e+01 -3.12100e+01        00000 
 2.76508e+01 -2.57511e+01        00000 
 3.15357e+01 -3.37534e+01        00000 
 3.87508e+01 -3.69438e+01        00000 
 4.14868e+01 -3.34116e+01        00000 
 4.68552e+01 -4.07874e+01        00000 
 5.58153e+01 -4.51809e+01        00000 
-7.85262e+01 -7.67174e+01        00000 
-9.36172e+01 -9.22281e+01        00000 
-8.06153e+01 -8.83756e+01        00000 
-5.59326e+01 -6.98839e+01        00000 
-6.83083e+01 -8.50219e+01        00000 
-5.66389e+01 -8.21388e+01        00000 
-3.58214e+01 -6.49108e+01        00000 
-4.55357e+01 -7.97269e+01        00000 
-3.49112e+01 -7.77938e+01        00000 
-1.74726e+01 -6.19397e+01        00000 
-2.46650e+01 -7.63440e+01        00000 
-1.46903e+01 -7.53786e+01        00000 
 1.34602e-04 -6.09572e+01        00000 
-4.87846e+00 -7.48965e+01        00000 
 4.87899e+00 -7.48966e+01        00000 
 1.74727e+01 -6.19401e+01        00000 
 1.46907e+01 -7.53788e+01        00000 
 2.46652e+01 -7.63444e+01        00000 
 3.58212e+01 -6.49113e+01        00000 
 3.49112e+01 -7.77941e+01        00000 
 4.55355e+01 -7.97272e+01        00000 
 5.59320e+01 -6.98845e+01        00000 
 5.66385e+01 -8.21391e+01        00000 
 6.83077e+01 -8.50222e+01        00000 
 7.85250e+01 -7.67181e+01        00000 
 8.06144e+01 -8.83759e+01        00000 
 9.36159e+01 -9.22284e+01        00000 
-1.10742e+02 -1.36239e+02        00000 
-1.26536e+02 -1.55363e+02        00000 
-1.09734e+02 -1.52067e+02        00000 
-8.03284e+01 -1.30393e+02        00000 
-9.36368e+01 -1.49214e+02        00000 
-7.81575e+01 -1.46773e+02        00000 
-5.22198e+01 -1.26143e+02        00000 
-6.32082e+01 -1.44735e+02        00000 
-4.86983e+01 -1.43099e+02        00000 
-2.57025e+01 -1.23568e+02        00000 
-3.45344e+01 -1.41869e+02        00000 
-2.06200e+01 -1.41046e+02        00000 
 4.21340e-04 -1.22705e+02        00000 
-6.85629e+00 -1.40634e+02        00000 
 6.85702e+00 -1.40634e+02        00000 
 2.57032e+01 -1.23567e+02        00000 
 2.06207e+01 -1.41046e+02        00000 
 3.45350e+01 -1.41868e+02        00000 
 5.22202e+01 -1.26142e+02        00000 
 4.86989e+01 -1.43098e+02        00000 
 6.32086e+01 -1.44734e+02        00000 
 8.03284e+01 -1.30391e+02        00000 
 7.81578e+01 -1.46772e+02        00000 
 9.36369e+01 -1.49213e+02        00000 
 1.10742e+02 -1.36238e+02        00000 
 1.09734e+02 -1.52066e+02        00000 
 1.26536e+02 -1.55362e+02        00000 
-1.38102e+02 -2.10618e+02        00000 
-1.54294e+02 -2.32774e+02        00000 
-1.34236e+02 -2.30048e+02        00000 
-1.00900e+02 -2.05750e+02        00000 
-1.14890e+02 -2.27693e+02        00000 
-9.61623e+01 -2.25683e+02        00000 
-6.59842e+01 -2.02235e+02        00000 
-7.79593e+01 -2.24010e+02        00000 
-6.01867e+01 -2.22672e+02        00000 
-3.26053e+01 -2.00116e+02        00000 
-4.27499e+01 -2.21667e+02        00000 
-2.55537e+01 -2.20997e+02        00000 
-5.10154e-05 -1.99408e+02        00000 
-8.50194e+00 -2.20661e+02        00000 
 8.50149e+00 -2.20661e+02        00000 
 3.26054e+01 -2.00115e+02        00000 
 2.55533e+01 -2.20996e+02        00000 
 4.27498e+01 -2.21666e+02        00000 
 6.59846e+01 -2.02233e+02        00000 
 6.01868e+01 -2.22670e+02        00000 
 7.79596e+01 -2.24009e+02        00000 
 1.00900e+02 -2.05748e+02        00000 
 9.61628e+01 -2.25682e+02        00000 
 1.14890e+02 -2.27692e+02        00000 
 1.38103e+02 -2.10616e+02        00000 
 1.34236e+02 -2.30046e+02        00000 
 1.54294e+02 -2.32772e+02        00000 
-1.60515e+02 -2.97458e+02        00000 
-1.76788e+02 -3.22018e+02        00000 
-1.54085e+02 -3.19865e+02        00000 
-1.17715e+02 -2.93566e+02        00000 
-1.32093e+02 -3.18007e+02        00000 
-1.10718e+02 -3.16425e+02        00000 
-7.72007e+01 -2.90767e+02        00000 
-8.98678e+01 -3.15112e+02        00000 
-6.94481e+01 -3.14064e+02        00000 
-3.82163e+01 -2.89088e+02        00000 
-4.93647e+01 -3.13280e+02        00000 
-2.95225e+01 -3.12759e+02        00000 
-7.62834e-04 -2.88529e+02        00000 
-9.82525e+00 -3.12498e+02        00000 
 9.82360e+00 -3.12498e+02        00000 
 3.82153e+01 -2.89088e+02        00000 
 2.95211e+01 -3.12759e+02        00000 
 4.93638e+01 -3.13280e+02        00000 
 7.72005e+01 -2.90766e+02        00000 
 6.94477e+01 -3.14064e+02        00000 
 8.98678e+01 -3.15111e+02        00000 
 1.17716e+02 -2.93565e+02        00000 
 1.10718e+02 -3.16424e+02        00000 
 1.32093e+02 -3.18006e+02        00000 
 1.60516e+02 -2.97457e+02        00000 
 1.54085e+02 -3.19864e+02        00000 
 1.76788e+02 -3.22017e+02        00000 
-1.77971e+02 -3.94242e+02        00000 
-1.94030e+02 -4.20578e+02        00000 
-1.69288e+02 -4.18993e+02        00000 
-1.30781e+02 -3.91329e+02        00000 
-1.45244e+02 -4.17635e+02        00000 
-1.21815e+02 -4.16491e+02        00000 
-8.58774e+01 -3.89266e+02        00000 
-9.89160e+01 -4.15553e+02        00000 
-7.64614e+01 -4.14816e+02        00000 
-4.25390e+01 -3.88049e+02        00000 
-5.43590e+01 -4.14271e+02        00000 
-3.25124e+01 -4.13911e+02        00000 
-1.12650e-03 -3.87649e+02        00000 
-1.08210e+01 -4.13733e+02        00000 
 1.08184e+01 -4.13733e+02        00000 
 4.25371e+01 -3.88049e+02        00000 
 3.25100e+01 -4.13911e+02        00000 
 5.43570e+01 -4.14270e+02        00000 
 8.58765e+01 -3.89265e+02        00000 
 7.64599e+01 -4.14815e+02        00000 
 9.89151e+01 -4.15552e+02        00000 
 1.30781e+02 -3.91328e+02        00000 
 1.21814e+02 -4.16490e+02        00000 
 1.45244e+02 -4.17634e+02        00000 
 1.77971e+02 -3.94241e+02        00000 
 1.69288e+02 -4.18992e+02        00000 
 1.94029e+02 -4.20577e+02        00000 
-1.90559e+02 -4.98460e+02        00000 
-2.06198e+02 -5.25991e+02        00000 
-1.79919e+02 -5.24950e+02        00000 
-1.40040e+02 -4.96543e+02        00000 
-1.54304e+02 -5.24102e+02        00000 
-1.29325e+02 -5.23430e+02        00000 
-9.18845e+01 -4.95288e+02        00000 
-1.04934e+02 -5.22909e+02        00000 
-8.10558e+01 -5.22515e+02        00000 
-4.54807e+01 -4.94594e+02        00000 
-5.75925e+01 -5.22233e+02        00000 
-3.44331e+01 -5.22050e+02        00000 
-1.98532e-03 -4.94372e+02        00000 
-1.14585e+01 -5.21960e+02        00000 
 1.14542e+01 -5.21960e+02        00000 
 4.54772e+01 -4.94594e+02        00000 
 3.44291e+01 -5.22050e+02        00000 
 5.75890e+01 -5.22233e+02        00000 
 9.18821e+01 -4.95288e+02        00000 
 8.10527e+01 -5.22515e+02        00000 
 1.04931e+02 -5.22909e+02        00000 
 1.40038e+02 -4.96542e+02        00000 
 1.29322e+02 -5.23430e+02        00000 
 1.54302e+02 -5.24102e+02        00000 
 1.90558e+02 -4.98459e+02        00000 
 1.79917e+02 -5.24950e+02        00000 
 2.06197e+02 -5.25990e+02        00000 
-1.98575e+02 -6.08059e+02        00000 
-2.13947e+02 -6.36709e+02        00000 
-1.86008e+02 -6.36190e+02        00000 
-1.45250e+02 -6.07156e+02        00000 
-1.59039e+02 -6.35791e+02        00000 
-1.33002e+02 -6.35419e+02        00000 
-9.50010e+01 -6.06544e+02        00000 
-1.07760e+02 -6.35062e+02        00000 
-8.31611e+01 -6.34736e+02        00000 
-4.69507e+01 -6.06136e+02        00000 
-5.90547e+01 -6.34465e+02        00000 
-3.52959e+01 -6.34271e+02        00000 
-2.20666e-03 -6.05989e+02        00000 
-1.17438e+01 -6.34171e+02        00000 
 1.17395e+01 -6.34171e+02        00000 
 4.69464e+01 -6.06136e+02        00000 
 3.52915e+01 -6.34272e+02        00000 
 5.90504e+01 -6.34465e+02        00000 
 9.49971e+01 -6.06545e+02        00000 
 8.31570e+01 -6.34736e+02        00000 
 1.07756e+02 -6.35063e+02        00000 
 1.45247e+02 -6.07156e+02        00000 
 1.32998e+02 -6.35420e+02        00000 
 1.59036e+02 -6.35792e+02        00000 
 1.98572e+02 -6.08059e+02        00000 
 1.86005e+02 -6.36190e+02        00000 
 2.13944e+02 -6.36710e+02        00000 
-1.59931e+01 -1.24246e+01        00000 
-2.78561e+01 -2.24901e+01        00000 
-1.03194e+01 -8.07478e+00        00000 
-1.80943e+01 -1.59862e+01        00000 
-5.89961e+00 -5.93193e+00        00000 
-1.08274e+01 -1.24445e+01        00000 
-1.92623e+00 -5.02412e+00        00000 
-4.50717e+00 -1.07605e+01        00000 
 1.92593e+00 -5.02417e+00        00000 
 1.49389e+00 -1.04453e+01        00000 
 5.89938e+00 -5.93219e+00        00000 
 7.59691e+00 -1.14123e+01        00000 
 1.03189e+01 -8.07523e+00        00000 
 1.42829e+01 -1.39324e+01        00000 
 1.59926e+01 -1.24250e+01        00000 
 2.24786e+01 -1.87696e+01        00000 
 2.78715e+01 -2.17532e+01        00000 
 3.50660e+01 -2.73102e+01        00000 
-5.10586e+01 -4.91822e+01        00000 
-6.43345e+01 -6.25339e+01        00000 
-3.41692e+01 -4.28930e+01        00000 
-4.45205e+01 -5.58378e+01        00000 
-1.96476e+01 -3.88546e+01        00000 
-2.71645e+01 -5.12530e+01        00000 
-6.41592e+00 -3.69164e+01        00000 
-1.13739e+01 -4.87645e+01        00000 
 6.41573e+00 -3.69167e+01        00000 
 3.77382e+00 -4.82740e+01        00000 
 1.96475e+01 -3.88552e+01        00000 
 1.91334e+01 -4.97540e+01        00000 
 3.41686e+01 -4.28938e+01        00000 
 3.55855e+01 -5.32786e+01        00000 
 5.10576e+01 -4.91832e+01        00000 
 5.40799e+01 -5.89304e+01        00000 
 7.09610e+01 -5.73415e+01        00000 
 7.53050e+01 -6.66571e+01        00000 
-8.15931e+01 -1.01115e+02        00000 
-9.57482e+01 -1.18291e+02        00000 
-5.62310e+01 -9.56120e+01        00000 
-6.78452e+01 -1.12527e+02        00000 
-3.28934e+01 -9.18913e+01        00000 
-4.20974e+01 -1.08512e+02        00000 
-1.08216e+01 -9.00218e+01        00000 
-1.77805e+01 -1.06266e+02        00000 
 1.08223e+01 -9.00218e+01        00000 
 5.90984e+00 -1.05816e+02        00000 
 3.28936e+01 -9.18913e+01        00000 
 2.98097e+01 -1.07166e+02        00000 
 5.62309e+01 -9.56119e+01        00000 
 5.47449e+01 -1.10300e+02        00000 
 8.15925e+01 -1.01115e+02        00000 
 8.14857e+01 -1.15188e+02        00000 
 1.09610e+02 -1.08207e+02        00000 
 1.10708e+02 -1.21867e+02        00000 
-1.07730e+02 -1.68860e+02        00000 
-1.22565e+02 -1.89421e+02        00000 
-7.50145e+01 -1.64230e+02        00000 
-8.75931e+01 -1.84593e+02        00000 
-4.42247e+01 -1.61114e+02        00000 
-5.47238e+01 -1.81254e+02        00000 
-1.46096e+01 -1.59548e+02        00000 
-2.32091e+01 -1.79392e+02        00000 
 1.46101e+01 -1.59547e+02        00000 
 7.72010e+00 -1.79019e+02        00000 
 4.42252e+01 -1.61113e+02        00000 
 3.88452e+01 -1.80137e+02        00000 
 7.50149e+01 -1.64228e+02        00000 
 7.09424e+01 -1.82738e+02        00000 
 1.07730e+02 -1.68858e+02        00000 
 1.04770e+02 -1.86816e+02        00000 
 1.43111e+02 -1.74875e+02        00000 
 1.41070e+02 -1.92431e+02        00000 
-1.29519e+02 -2.50300e+02        00000 