<?xml version="1.0" encoding="utf-8"?>
<VTKFile byte_order="LittleEndian" type="UnstructuredGrid" version="0.1">
   <UnstructuredGrid>
      <Piece NumberOfCells="1296" NumberOfPoints="685">
         <Points>
            <DataArray Name="Points" NumberOfComponents="3" format="ascii" type="Float32">
0.0000 0.0000 0.0000
0.0000 0.1111 0.0000
0.0000 0.2222 0.0000
0.0000 0.3333 0.0000
0.0000 0.4444 0.0000
0.0000 0.5556 0.0000
0.0000 0.6667 0.0000
0.0000 0.7778 0.0000
0.0000 0.8889 0.0000
0.0000 1.0000 0.0000
0.2222 0.0000 0.0000
0.2222 0.1111 0.0000
0.2222 0.2222 0.0000
0.2222 0.3333 0.0000
0.2222 0.4444 0.0000
0.2222 0.5556 0.0000
0.2222 0.6667 0.0000
0.2222 0.7778 0.0000
0.2222 0.8889 0.0000
0.2222 1.0000 0.0000
0.4444 0.0000 0.0000
0.4444 0.1111 0.0000
0.4444 0.2222 0.0000
0.4444 0.3333 0.0000
0.4444 0.4444 0.0000
0.4444 0.5556 0.0000
0.4444 0.6667 0.0000
0.4444 0.7778 0.0000
0.4444 0.8889 0.0000
0.4444 1.0000 0.0000
0.6667 0.0000 0.0000
0.6667 0.1111 0.0000
0.6667 0.2222 0.0000
0.6667 0.3333 0.0000
0.6667 0.4444 0.0000
0.6667 0.5556 0.0000
0.6667 0.6667 0.0000
0.6667 0.7778 0.0000
0.6667 0.8889 0.0000
0.6667 1.0000 0.0000
0.8889 0.0000 0.0000
0.8889 0.1111 0.0000
0.8889 0.2222 0.0000
0.8889 0.3333 0.0000
0.8889 0.4444 0.0000
0.8889 0.5556 0.0000
0.8889 0.6667 0.0000
0.8889 0.7778 0.0000
0.8889 0.8889 0.0000
0.8889 1.0000 0.0000
1.1111 0.0000 0.0000
1.1111 0.1111 0.0000
1.1111 0.2222 0.0000
1.1111 0.3333 0.0000
1.1111 0.4444 0.0000
1.1111 0.5556 0.0000
1.1111 0.6667 0.0000
1.1111 0.7778 0.0000
1.1111 0.8889 0.0000
1.1111 1.0000 0.0000
1.3333 0.0000 0.0000
1.3333 0.1111 0.0000
1.3333 0.2222 0.0000
1.3333 0.3333 0.0000
1.3333 0.4444 0.0000
1.3333 0.5556 0.0000
1.3333 0.6667 0.0000
1.3333 0.7778 0.0000
1.3333 0.8889 0.0000
1.3333 1.0000 0.0000
1.5556 0.0000 0.0000
1.5556 0.1111 0.0000
1.5556 0.2222 0.0000
1.5556 0.3333 0.0000
1.5556 0.4444 0.0000
1.5556 0.5556 0.0000
1.5556 0.6667 0.0000
1.5556 0.7778 0.0000
1.5556 0.8889 0.0000
1.5556 1.0000 0.0000
1.7778 0.0000 0.0000
1.7778 0.1111 0.0000
1.7778 0.2222 0.0000
1.7778 0.3333 0.0000
1.7778 0.4444 0.0000
1.7778 0.5556 0.0000
1.7778 0.6667 0.0000
1.7778 0.7778 0.0000
1.7778 0.8889 0.0000
1.7778 1.0000 0.0000
2.0000 0.0000 0.0000
2.0000 0.1111 0.0000
2.0000 0.2222 0.0000
2.0000 0.3333 0.0000
2.0000 0.4444 0.0000
2.0000 0.5556 0.0000
2.0000 0.6667 0.0000
2.0000 0.7778 0.0000
2.0000 0.8889 0.0000
2.0000 1.0000 0.0000
0.1111 0.0556 0.0000
0.1111 0.1667 0.0000
0.1111 0.2778 0.0000
0.1111 0.3889 0.0000
0.1111 0.5000 0.0000
0.1111 0.6111 0.0000
0.1111 0.7222 0.0000
0.1111 0.8333 0.0000
0.1111 0.9444 0.0000
0.3333 0.0556 0.0000
0.3333 0.1667 0.0000
0.3333 0.2778 0.0000
0.3333 0.3889 0.0000
0.3333 0.5000 0.0000
0.3333 0.6111 0.0000
0.3333 0.7222 0.0000
0.3333 0.8333 0.0000
0.3333 0.9444 0.0000
0.5556 0.0556 0.0000
0.5556 0.1667 0.0000
0.5556 0.2778 0.0000
0.5556 0.3889 0.0000
0.5556 0.5000 0.0000
0.5556 0.6111 0.0000
0.5556 0.7222 0.0000
0.5556 0.8333 0.0000
0.5556 0.9444 0.0000
0.7778 0.0556 0.0000
0.7778 0.1667 0.0000
0.7778 0.2778 0.0000
0.7778 0.3889 0.0000
0.7778 0.5000 0.0000
0.7778 0.6111 0.0000
0.7778 0.7222 0.0000
0.7778 0.8333 0.0000
0.7778 0.9444 0.0000
1.0000 0.0556 0.0000
1.0000 0.1667 0.0000
1.0000 0.2778 0.0000
1.0000 0.3889 0.0000
1.0000 0.5000 0.0000
1.0000 0.6111 0.0000
1.0000 0.7222 0.0000
1.0000 0.8333 0.0000
1.0000 0.9444 0.0000
1.2222 0.0556 0.0000
1.2222 0.1667 0.0000
1.2222 0.2778 0.0000
1.2222 0.3889 0.0000
1.2222 0.5000 0.0000
1.2222 0.6111 0.0000
1.2222 0.7222 0.0000
1.2222 0.8333 0.0000
1.2222 0.9444 0.0000
1.4444 0.0556 0.0000
1.4444 0.1667 0.0000
1.4444 0.2778 0.0000
1.4444 0.3889 0.0000
1.4444 0.5000 0.0000
1.4444 0.6111 0.0000
1.4444 0.7222 0.0000
1.4444 0.8333 0.0000
1.4444 0.9444 0.0000
1.6667 0.0556 0.0000
1.6667 0.1667 0.0000
1.6667 0.2778 0.0000
1.6667 0.3889 0.0000
1.6667 0.5000 0.0000
1.6667 0.6111 0.0000
1.6667 0.7222 0.0000
1.6667 0.8333 0.0000
1.6667 0.9444 0.0000
1.8889 0.0556 0.0000
1.8889 0.1667 0.0000
1.8889 0.2778 0.0000
1.8889 0.3889 0.0000
1.8889 0.5000 0.0000
1.8889 0.6111 0.0000
1.8889 0.7222 0.0000
1.8889 0.8333 0.0000
1.8889 0.9444 0.0000
0.0000 0.0556 0.0000
0.0556 0.0278 0.0000
0.0556 0.0833 0.0000
0.0000 0.1667 0.0000
0.0556 0.1389 0.0000
0.0556 0.1944 0.0000
0.0000 0.2778 0.0000
0.0556 0.2500 0.0000
0.0556 0.3056 0.0000
0.0000 0.3889 0.0000
0.0556 0.3611 0.0000
0.0556 0.4167 0.0000
0.0000 0.5000 0.0000
0.0556 0.4722 0.0000
0.0556 0.5278 0.0000
0.0000 0.6111 0.0000
0.0556 0.5833 0.0000
0.0556 0.6389 0.0000
0.0000 0.7222 0.0000
0.0556 0.6944 0.0000
0.0556 0.7500 0.0000
0.0000 0.8333 0.0000
0.0556 0.8056 0.0000
0.0556 0.8611 0.0000
0.0000 0.9444 0.0000
0.0556 0.9167 0.0000
0.0556 0.9722 0.0000
0.2222 0.0556 0.0000
0.2778 0.0278 0.0000
0.2778 0.0833 0.0000
0.2222 0.1667 0.0000
0.2778 0.1389 0.0000
0.2778 0.1944 0.0000
0.2222 0.2778 0.0000
0.2778 0.2500 0.0000
0.2778 0.3056 0.0000
0.2222 0.3889 0.0000
0.2778 0.3611 0.0000
0.2778 0.4167 0.0000
0.2222 0.5000 0.0000
0.2778 0.4722 0.0000
0.2778 0.5278 0.0000
0.2222 0.6111 0.0000
0.2778 0.5833 0.0000
0.2778 0.6389 0.0000
0.2222 0.7222 0.0000
0.2778 0.6944 0.0000
0.2778 0.7500 0.0000
0.2222 0.8333 0.0000
0.2778 0.8056 0.0000
0.2778 0.8611 0.0000
0.2222 0.9444 0.0000
0.2778 0.9167 0.0000
0.2778 0.9722 0.0000
0.4444 0.0556 0.0000
0.5000 0.0278 0.0000
0.5000 0.0833 0.0000
0.4444 0.1667 0.0000
0.5000 0.1389 0.0000
0.5000 0.1944 0.0000
0.4444 0.2778 0.0000
0.5000 0.2500 0.0000
0.5000 0.3056 0.0000
0.4444 0.3889 0.0000
0.5000 0.3611 0.0000
0.5000 0.4167 0.0000
0.4444 0.5000 0.0000
0.5000 0.4722 0.0000
0.5000 0.5278 0.0000
0.4444 0.6111 0.0000
0.5000 0.5833 0.0000
0.5000 0.6389 0.0000
0.4444 0.7222 0.0000
0.5000 0.6944 0.0000
0.5000 0.7500 0.0000
0.4444 0.8333 0.0000
0.5000 0.8056 0.0000
0.5000 0.8611 0.0000
0.4444 0.9444 0.0000
0.5000 0.9167 0.0000
0.5000 0.9722 0.0000
0.6667 0.0556 0.0000
0.7222 0.0278 0.0000
0.7222 0.0833 0.0000
0.6667 0.1667 0.0000
0.7222 0.1389 0.0000
0.7222 0.1944 0.0000
0.6667 0.2778 0.0000
0.7222 0.2500 0.0000
0.7222 0.3056 0.0000
0.6667 0.3889 0.0000
0.7222 0.3611 0.0000
0.7222 0.4167 0.0000
0.6667 0.5000 0.0000
0.7222 0.4722 0.0000
0.7222 0.5278 0.0000
0.6667 0.6111 0.0000
0.7222 0.5833 0.0000
0.7222 0.6389 0.0000
0.6667 0.7222 0.0000
0.7222 0.6944 0.0000
0.7222 0.7500 0.0000
0.6667 0.8333 0.0000
0.7222 0.8056 0.0000
0.7222 0.8611 0.0000
0.6667 0.9444 0.0000
0.7222 0.9167 0.0000
0.7222 0.9722 0.0000
0.8889 0.0556 0.0000
0.9444 0.0278 0.0000
0.9444 0.0833 0.0000
0.8889 0.1667 0.0000
0.9444 0.1389 0.0000
0.9444 0.1944 0.0000
0.8889 0.2778 0.0000
0.9444 0.2500 0.0000
0.9444 0.3056 0.0000
0.8889 0.3889 0.0000
0.9444 0.3611 0.0000
0.9444 0.4167 0.0000
0.8889 0.5000 0.0000
0.9444 0.4722 0.0000
0.9444 0.5278 0.0000
0.8889 0.6111 0.0000
0.9444 0.5833 0.0000
0.9444 0.6389 0.0000
0.8889 0.7222 0.0000
0.9444 0.6944 0.0000
0.9444 0.7500 0.0000
0.8889 0.8333 0.0000
0.9444 0.8056 0.0000
0.9444 0.8611 0.0000
0.8889 0.9444 0.0000
0.9444 0.9167 0.0000
0.9444 0.9722 0.0000
1.1111 0.0556 0.0000
1.1667 0.0278 0.0000
1.1667 0.0833 0.0000
1.1111 0.1667 0.0000
1.1667 0.1389 0.0000
1.1667 0.1944 0.0000
1.1111 0.2778 0.0000
1.1667 0.2500 0.0000
1.1667 0.3056 0.0000
1.1111 0.3889 0.0000
1.1667 0.3611 0.0000
1.1667 0.4167 0.0000
1.1111 0.5000 0.0000
1.1667 0.4722 0.0000
1.1667 0.5278 0.0000
1.1111 0.6111 0.0000
1.1667 0.5833 0.0000
1.1667 0.6389 0.0000
1.1111 0.7222 0.0000
1.1667 0.6944 0.0000
1.1667 0.7500 0.0000
1.1111 0.8333 0.0000
1.1667 0.8056 0.0000
1.1667 0.8611 0.0000
1.1111 0.9444 0.0000
1.1667 0.9167 0.0000
1.1667 0.9722 0.0000
1.3333 0.0556 0.0000
1.3889 0.0278 0.0000
1.3889 0.0833 0.0000
1.3333 0.1667 0.0000
1.3889 0.1389 0.0000
1.3889 0.1944 0.0000
1.3333 0.2778 0.0000
1.3889 0.2500 0.0000
1.3889 0.3056 0.0000
1.3333 0.3889 0.0000
1.3889 0.3611 0.0000
1.3889 0.4167 0.0000
1.3333 0.5000 0.0000
1.3889 0.4722 0.0000
1.3889 0.5278 0.0000
1.3333 0.6111 0.0000
1.3889 0.5833 0.0000
1.3889 0.6389 0.0000
1.3333 0.7222 0.0000
1.3889 0.6944 0.0000
1.3889 0.7500 0.0000
1.3333 0.8333 0.0000
1.3889 0.8056 0.0000
1.3889 0.8611 0.0000
1.3333 0.9444 0.0000
1.3889 0.9167 0.0000
1.3889 0.9722 0.0000
1.5556 0.0556 0.0000
1.6111 0.0278 0.0000
1.6111 0.0833 0.0000
1.5556 0.1667 0.0000
1.6111 0.1389 0.0000
1.6111 0.1944 0.0000
1.5556 0.2778 0.0000
1.6111 0.2500 0.0000
1.6111 0.3056 0.0000
1.5556 0.3889 0.0000
1.6111 0.3611 0.0000
1.6111 0.4167 0.0000
1.5556 0.5000 0.0000
1.6111 0.4722 0.0000
1.6111 0.5278 0.0000
1.5556 0.6111 0.0000
1.6111 0.5833 0.0000
1.6111 0.6389 0.0000
1.5556 0.7222 0.0000
1.6111 0.6944 0.0000
1.6111 0.7500 0.0000
1.5556 0.8333 0.0000
1.6111 0.8056 0.0000
1.6111 0.8611 0.0000
1.5556 0.9444 0.0000
1.6111 0.9167 0.0000
1.6111 0.9722 0.0000
1.7778 0.0556 0.0000
1.8333 0.0278 0.0000
1.8333 0.0833 0.0000
1.7778 0.1667 0.0000
1.8333 0.1389 0.0000
1.8333 0.1944 0.0000
1.7778 0.2778 0.0000
1.8333 0.2500 0.0000
1.8333 0.3056 0.0000
1.7778 0.3889 0.0000
1.8333 0.3611 0.0000
1.8333 0.4167 0.0000
1.7778 0.5000 0.0000
1.8333 0.4722 0.0000
1.8333 0.5278 0.0000
1.7778 0.6111 0.0000
1.8333 0.5833 0.0000
1.8333 0.6389 0.0000
1.7778 0.7222 0.0000
1.8333 0.6944 0.0000
1.8333 0.7500 0.0000
1.7778 0.8333 0.0000
1.8333 0.8056 0.0000
1.8333 0.8611 0.0000
1.7778 0.9444 0.0000
1.8333 0.9167 0.0000
1.8333 0.9722 0.0000
0.1111 0.1111 0.0000
0.1667 0.0833 0.0000
0.1111 0.2222 0.0000
0.1667 0.1944 0.0000
0.1111 0.3333 0.0000
0.1667 0.3056 0.0000
0.1111 0.4444 0.0000
0.1667 0.4167 0.0000
0.1111 0.5556 0.0000
0.1667 0.5278 0.0000
0.1111 0.6667 0.0000
0.1667 0.6389 0.0000
0.1111 0.7778 0.0000
0.1667 0.7500 0.0000
0.1111 0.8889 0.0000
0.1667 0.8611 0.0000
0.1111 1.0000 0.0000
0.1667 0.9722 0.0000
0.3333 0.1111 0.0000
0.3889 0.0833 0.0000
0.3333 0.2222 0.0000
0.3889 0.1944 0.0000
0.3333 0.3333 0.0000
0.3889 0.3056 0.0000
0.3333 0.4444 0.0000
0.3889 0.4167 0.0000
0.3333 0.5556 0.0000
0.3889 0.5278 0.0000
0.3333 0.6667 0.0000
0.3889 0.6389 0.0000
0.3333 0.7778 0.0000
0.3889 0.7500 0.0000
0.3333 0.8889 0.0000
0.3889 0.8611 0.0000
0.3333 1.0000 0.0000
0.3889 0.9722 0.0000
0.5556 0.1111 0.0000
[...]
         <PointData>
            <DataArray Name="fValues" NumberOfComponents="3" format="ascii" type="Float64">
-1.22377e-15  6.11883e-16        00000 
 1.98082e-15  5.28218e-16        00000 
-2.62216e-16 -2.06292e-18        00000 
 3.94539e-16  1.97270e-16        00000 
 2.83653e-18 -2.15060e-16        00000 
-2.63026e-16 -3.28783e-16        00000 
-3.13560e-16  7.75648e-16        00000 
-1.70812e-15 -1.97091e-16        00000 
-7.92517e-16 -1.18878e-15        00000 
 1.22377e-15  3.67130e-15        00000 
-4.99399e+01 -3.79832e+01        00000 
-3.39787e+01 -2.92093e+01        00000 
-2.21512e+01 -2.30347e+01        00000 
-1.26286e+01 -1.94599e+01        00000 
-4.11337e+00 -1.78385e+01        00000 
 4.11263e+00 -1.78386e+01        00000 
 1.26276e+01 -1.94602e+01        00000 
 2.21497e+01 -2.30348e+01        00000 
 3.39769e+01 -2.92092e+01        00000 
 4.99378e+01 -3.79829e+01        00000 
-9.08907e+01 -8.07099e+01        00000 
-6.68891e+01 -7.30880e+01        00000 
-4.56042e+01 -6.71524e+01        00000 
-2.64822e+01 -6.31764e+01        00000 
-8.68286e+00 -6.12043e+01        00000 
 8.68160e+00 -6.12043e+01        00000 
 2.64806e+01 -6.31764e+01        00000 
 4.56021e+01 -6.71526e+01        00000 
 6.68865e+01 -7.30884e+01        00000 
 9.08882e+01 -8.07104e+01        00000 
-1.27036e+02 -1.39684e+02        00000 
-9.52051e+01 -1.33126e+02        00000 
-6.60295e+01 -1.28063e+02        00000 
-3.88104e+01 -1.24644e+02        00000 
-1.28011e+01 -1.22923e+02        00000 
 1.27989e+01 -1.22923e+02        00000 
 3.88081e+01 -1.24644e+02        00000 
 6.60271e+01 -1.28063e+02        00000 
 9.52027e+01 -1.33126e+02        00000 
 1.27034e+02 -1.39684e+02        00000 
-1.57808e+02 -2.13495e+02        00000 
-1.19169e+02 -2.08023e+02        00000 
-8.32037e+01 -2.03821e+02        00000 
-4.91511e+01 -2.01001e+02        00000 
-1.62558e+01 -1.99587e+02        00000 
 1.62526e+01 -1.99587e+02        00000 
 4.91489e+01 -2.01001e+02        00000 
 8.32019e+01 -2.03820e+02        00000 
 1.19168e+02 -2.08023e+02        00000 
 1.57807e+02 -2.13495e+02        00000 
-1.83022e+02 -2.99762e+02        00000 
-1.38783e+02 -2.95382e+02        00000 
-9.72197e+01 -2.92028e+02        00000 
-5.75647e+01 -2.89790e+02        00000 
-1.90605e+01 -2.88672e+02        00000 
 1.90587e+01 -2.88672e+02        00000 
 5.75634e+01 -2.89790e+02        00000 
 9.72190e+01 -2.92029e+02        00000 
 1.38783e+02 -2.95383e+02        00000 
 1.83023e+02 -2.99763e+02        00000 
-2.02658e+02 -3.95979e+02        00000 
-1.54047e+02 -3.92687e+02        00000 
-1.08088e+02 -3.90194e+02        00000 
-6.40585e+01 -3.88557e+02        00000 
-2.12185e+01 -3.87753e+02        00000 
 2.12181e+01 -3.87753e+02        00000 
 6.40578e+01 -3.88558e+02        00000 
 1.08087e+02 -3.90195e+02        00000 
 1.54047e+02 -3.92688e+02        00000 
 2.02659e+02 -3.95980e+02        00000 
-2.16853e+02 -4.99652e+02        00000 
-1.64976e+02 -4.97422e+02        00000 
-1.15698e+02 -4.95844e+02        00000 
-6.85105e+01 -4.94884e+02        00000 
-2.26808e+01 -4.94434e+02        00000 
 2.26805e+01 -4.94434e+02        00000 
 6.85101e+01 -4.94884e+02        00000 
 1.15698e+02 -4.95845e+02        00000 
 1.64975e+02 -4.97423e+02        00000 
 2.16853e+02 -4.99653e+02        00000 
-2.26285e+02 -6.08766e+02        00000 
-1.71504e+02 -6.07560e+02        00000 
-1.19784e+02 -6.06835e+02        00000 
-7.07674e+01 -6.06321e+02        00000 
-2.34059e+01 -6.06036e+02        00000 
 2.34054e+01 -6.06036e+02        00000 
 7.07664e+01 -6.06321e+02        00000 
 1.19782e+02 -6.06835e+02        00000 
 1.71502e+02 -6.07560e+02        00000 
 2.26283e+02 -6.08766e+02        00000 
-2.32097e+02 -7.27377e+02        00000 
-1.74223e+02 -7.24556e+02        00000 
-1.21673e+02 -7.21195e+02        00000 
-7.19672e+01 -7.18614e+02        00000 
-2.38210e+01 -7.17238e+02        00000 
 2.38205e+01 -7.17238e+02        00000 
 7.19657e+01 -7.18613e+02        00000 
 1.21671e+02 -7.21194e+02        00000 
 1.74220e+02 -7.24554e+02        00000 
 2.32093e+02 -7.27376e+02        00000 
-2.02094e+01 -1.61678e+01        00000 
-1.28986e+01 -9.86640e+00        00000 
-8.02406e+00 -6.81084e+00        00000 
-3.88152e+00 -5.35359e+00        00000 
-4.21039e-05 -4.91757e+00        00000 
 3.88120e+00 -5.35377e+00        00000 
 8.02346e+00 -6.81120e+00        00000 
 1.28977e+01 -9.86665e+00        00000 
 2.02084e+01 -1.61677e+01        00000 
-6.06374e+01 -5.30806e+01        00000 
-4.22499e+01 -4.57613e+01        00000 
-2.66840e+01 -4.05993e+01        00000 
-1.29307e+01 -3.76377e+01        00000 
-5.12945e-04 -3.66799e+01        00000 
 1.29295e+01 -3.76379e+01        00000 
 2.66823e+01 -4.05995e+01        00000 
 4.22476e+01 -4.57615e+01        00000 
 6.06350e+01 -5.30807e+01        00000 
-9.52318e+01 -1.04488e+02        00000 
-6.86174e+01 -9.81493e+01        00000 
-4.43540e+01 -9.35245e+01        00000 
-2.17517e+01 -9.07249e+01        00000 
-8.04788e-04 -8.97896e+01        00000 
 2.17500e+01 -9.07248e+01        00000 
 4.43520e+01 -9.35244e+01        00000 
 6.86150e+01 -9.81493e+01        00000 
 9.52292e+01 -1.04489e+02        00000 
-1.25038e+02 -1.71717e+02        00000 
-9.10864e+01 -1.66360e+02        00000 
-5.94259e+01 -1.62481e+02        00000 
-2.93199e+01 -1.60137e+02        00000 
-1.39933e-03 -1.59353e+02        00000 
 2.93173e+01 -1.60137e+02        00000 
 5.94237e+01 -1.62481e+02        00000 
 9.10842e+01 -1.66360e+02        00000 
 1.25036e+02 -1.71716e+02        00000 
-1.49930e+02 -2.52638e+02        00000 
-1.09776e+02 -2.48259e+02        00000 
-7.19086e+01 -2.45102e+02        00000 
-3.55711e+01 -2.43204e+02        00000 
-1.47552e-03 -2.42571e+02        00000 
 3.55688e+01 -2.43204e+02        00000 
 7.19071e+01 -2.45102e+02        00000 
 1.09775e+02 -2.48259e+02        00000 
 1.49929e+02 -2.52638e+02        00000 
-1.69861e+02 -3.44768e+02        00000 
-1.24718e+02 -3.41364e+02        00000 
-8.18602e+01 -3.38928e+02        00000 
-4.05411e+01 -3.37474e+02        00000 
-4.12454e-04 -3.36993e+02        00000 
 4.05403e+01 -3.37475e+02        00000 
 8.18596e+01 -3.38929e+02        00000 
 1.24718e+02 -3.41365e+02        00000 
 1.69862e+02 -3.44769e+02        00000 
-1.84862e+02 -4.45579e+02        00000 
-1.35895e+02 -4.43160e+02        00000 
-8.92300e+01 -4.41489e+02        00000 
-4.41913e+01 -4.40528e+02        00000 
-5.63350e-05 -4.40216e+02        00000 
 4.41910e+01 -4.40528e+02        00000 
 8.92295e+01 -4.41490e+02        00000 
 1.35895e+02 -4.43161e+02        00000 
 1.84862e+02 -4.45580e+02        00000 
-1.95113e+02 -5.52656e+02        00000 
-1.43174e+02 -5.51252e+02        00000 
-9.38004e+01 -5.50407e+02        00000 
-4.63876e+01 -5.49946e+02        00000 
-2.01897e-04 -5.49798e+02        00000 
 4.63871e+01 -5.49947e+02        00000 
 9.37995e+01 -5.50408e+02        00000 
 1.43173e+02 -5.51253e+02        00000 
 1.95111e+02 -5.52656e+02        00000 
-2.00794e+02 -6.65285e+02        00000 
-1.46398e+02 -6.64402e+02        00000 
-9.57125e+01 -6.63332e+02        00000 
-4.73090e+01 -6.62506e+02        00000 
-3.28513e-05 -6.62201e+02        00000 
 4.73083e+01 -6.62506e+02        00000 
 9.57109e+01 -6.63331e+02        00000 
 1.46396e+02 -6.64402e+02        00000 
 2.00790e+02 -6.65285e+02        00000 
 6.83482e-16 -8.78763e-16        00000 
-1.10457e+01 -8.44234e+00        00000 
-8.38465e+00 -5.94580e+00        00000 
 1.54250e-15  1.99875e-15        00000 
-6.76308e+00 -4.38249e+00        00000 
-5.48157e+00 -3.32287e+00        00000 
-4.99600e-16 -2.49800e-16        00000 
-4.35773e+00 -2.58246e+00        00000 
-3.32219e+00 -2.06467e+00        00000 
-5.00073e-16  9.10144e-16        00000 
-2.34074e+00 -1.71354e+00        00000 
-1.39247e+00 -1.49527e+00        00000 
 2.81025e-16 -4.37150e-16        00000 
-4.62261e-01 -1.39064e+00        00000 
 4.62100e-01 -1.39072e+00        00000 
 5.22599e-17  1.82976e-16        00000 
 1.39226e+00 -1.49545e+00        00000 
 2.34049e+00 -1.71371e+00        00000 
-6.24500e-16  4.99600e-16        00000 
 3.32194e+00 -2.06490e+00        00000 
 4.35740e+00 -2.58267e+00        00000 
 1.49880e-15 -7.49401e-16        00000 
 5.48119e+00 -3.32302e+00        00000 
 6.76263e+00 -4.38262e+00        00000 
 1.18773e-15 -3.05675e-16        00000 
 8.38409e+00 -5.94582e+00        00000 
 1.10450e+01 -8.44221e+00        00000 
-4.14883e+01 -3.34120e+01        00000 
-5.58172e+01 -4.51814e+01        00000 
-4.68570e+01 -4.07878e+01        00000 
-2.76523e+01 -2.57514e+01        00000 
-3.87524e+01 -3.69442e+01        00000 
-3.15371e+01 -3.37539e+01        00000 
-1.72042e+01 -2.09686e+01        00000 
-2.50169e+01 -3.12105e+01        00000 
-1.90031e+01 -2.92647e+01        00000 
-8.29676e+00 -1.84339e+01        00000 
-1.33439e+01 -2.78607e+01        00000 
-7.91834e+00 -2.69518e+01        00000 
-3.51543e-04 -1.76434e+01        00000 
-2.62536e+00 -2.65055e+01        00000 
 2.62448e+00 -2.65056e+01        00000 
 8.29588e+00 -1.84341e+01        00000 
 7.91734e+00 -2.69519e+01        00000 
 1.33428e+01 -2.78609e+01        00000 
 1.72030e+01 -2.09689e+01        00000 
 1.90017e+01 -2.92649e+01        00000 
 2.50152e+01 -3.12108e+01        00000 
 2.76505e+01 -2.57514e+01        00000 
 3.15352e+01 -3.37540e+01        00000 
 3.87503e+01 -3.69443e+01        00000 
 4.14863e+01 -3.34117e+01        00000 
 4.68548e+01 -4.07878e+01        00000 
 5.58149e+01 -4.51812e+01        00000 
-7.85267e+01 -7.67191e+01        00000 
-9.36175e+01 -9.22296e+01        00000 
-8.06158e+01 -8.83771e+01        00000 
-5.59332e+01 -6.98858e+01        00000 
-6.83088e+01 -8.50234e+01        00000 
-5.66392e+01 -8.21404e+01        00000 
-3.58219e+01 -6.49129e+01        00000 
-4.55361e+01 -7.97287e+01        00000 
-3.49117e+01 -7.77957e+01        00000 
-1.74733e+01 -6.19418e+01        00000 
-2.46657e+01 -7.63459e+01        00000 
-1.46912e+01 -7.53805e+01        00000 
-6.42538e-04 -6.09591e+01        00000 
-4.87943e+00 -7.48983e+01        00000 
 4.87806e+00 -7.48983e+01        00000 
 1.74718e+01 -6.19418e+01        00000 
 1.46897e+01 -7.53805e+01        00000 
 2.46640e+01 -7.63459e+01        00000 
 3.58200e+01 -6.49130e+01        00000 
 3.49098e+01 -7.77957e+01        00000 
 4.55339e+01 -7.97287e+01        00000 
 5.59307e+01 -6.98860e+01        00000 
 5.66370e+01 -8.21405e+01        00000 
 6.83063e+01 -8.50237e+01        00000 
 7.85240e+01 -7.67195e+01        00000 
 8.06131e+01 -8.83774e+01        00000 
 9.36148e+01 -9.22299e+01        00000 
-1.10742e+02 -1.36240e+02        00000 
-1.26536e+02 -1.55364e+02        00000 
-1.09734e+02 -1.52068e+02        00000 
-8.03288e+01 -1.30394e+02        00000 
-9.36372e+01 -1.49216e+02        00000 
-7.81581e+01 -1.46775e+02        00000 
-5.22204e+01 -1.26144e+02        00000 
-6.32089e+01 -1.44736e+02        00000 
-4.86992e+01 -1.43101e+02        00000 
-2.57037e+01 -1.23569e+02        00000 
-3.45356e+01 -1.41870e+02        00000 
-2.06214e+01 -1.41048e+02        00000 
-1.07571e-03 -1.22707e+02        00000 
-6.85786e+00 -1.40636e+02        00000 
 6.85536e+00 -1.40636e+02        00000 
 2.57015e+01 -1.23569e+02        00000 
 2.06190e+01 -1.41047e+02        00000 
 3.45332e+01 -1.41870e+02        00000 
 5.22181e+01 -1.26144e+02        00000 
 4.86968e+01 -1.43100e+02        00000 
 6.32065e+01 -1.44736e+02        00000 
 8.03264e+01 -1.30394e+02        00000 
 7.81558e+01 -1.46774e+02        00000 
 9.36350e+01 -1.49215e+02        00000 
 1.10740e+02 -1.36240e+02        00000 
 1.09732e+02 -1.52068e+02        00000 
 1.26534e+02 -1.55364e+02        00000 
-1.38103e+02 -2.10619e+02        00000 
-1.54294e+02 -2.32776e+02        00000 
-1.34236e+02 -2.30050e+02        00000 
-1.00901e+02 -2.05752e+02        00000 
-1.14891e+02 -2.27695e+02        00000 
-9.61630e+01 -2.25685e+02        00000 
-6.59851e+01 -2.02236e+02        00000 
-7.79601e+01 -2.24012e+02        00000 
-6.01876e+01 -2.22673e+02        00000 
-3.26067e+01 -2.00118e+02        00000 
-4.27510e+01 -2.21669e+02        00000 
-2.55549e+01 -2.20998e+02        00000 
-1.69017e-03 -1.99410e+02        00000 
-8.50335e+00 -2.20663e+02        00000 
 8.50013e+00 -2.20663e+02        00000 
 3.26040e+01 -2.00117e+02        00000 
 2.55521e+01 -2.20998e+02        00000 
 4.27487e+01 -2.21668e+02        00000 
 6.59832e+01 -2.02236e+02        00000 
 6.01857e+01 -2.22673e+02        00000 
 7.79585e+01 -2.24012e+02        00000 
 1.00899e+02 -2.05751e+02        00000 
 9.61618e+01 -2.25685e+02        00000 
 1.14889e+02 -2.27694e+02        00000 
 1.38102e+02 -2.10619e+02        00000 
 1.34235e+02 -2.30050e+02        00000 
 1.54293e+02 -2.32775e+02        00000 
-1.60516e+02 -2.97459e+02        00000 
-1.76789e+02 -3.22021e+02        00000 
-1.54085e+02 -3.19867e+02        00000 
-1.17716e+02 -2.93568e+02        00000 
-1.32093e+02 -3.18009e+02        00000 
-1.10718e+02 -3.16427e+02        00000 
-7.72009e+01 -2.90769e+02        00000 
-8.98679e+01 -3.15114e+02        00000 
-6.94481e+01 -3.14066e+02        00000 
-3.82163e+01 -2.89091e+02        00000 
-4.93645e+01 -3.13283e+02        00000 
-2.95221e+01 -3.12762e+02        00000 
-9.99158e-04 -2.88533e+02        00000 
-9.82497e+00 -3.12501e+02        00000 
 9.82366e+00 -3.12502e+02        00000 
 3.82148e+01 -2.89092e+02        00000 
 2.95209e+01 -3.12762e+02        00000 
 4.93633e+01 -3.13284e+02        00000 
 7.71998e+01 -2.90770e+02        00000 
 6.94471e+01 -3.14068e+02        00000 
 8.98672e+01 -3.15115e+02        00000 
 1.17715e+02 -2.93568e+02        00000 
 1.10718e+02 -3.16428e+02        00000 
 1.32093e+02 -3.18010e+02        00000 
 1.60516e+02 -2.97460e+02        00000 
 1.54085e+02 -3.19868e+02        00000 
 1.76789e+02 -3.22021e+02        00000 
-1.77972e+02 -3.94246e+02        00000 
-1.94030e+02 -4.20583e+02        00000 
-1.69288e+02 -4.18997e+02        00000 
-1.30781e+02 -3.91333e+02        00000 
-1.45244e+02 -4.17639e+02        00000 
-1.21815e+02 -4.16495e+02        00000 
-8.58770e+01 -3.89269e+02        00000 
-9.89157e+01 -4.15557e+02        00000 
-7.64607e+01 -4.14820e+02        00000 
-4.25380e+01 -3.88053e+02        00000 
-5.43581e+01 -4.14275e+02        00000 
-3.25113e+01 -4.13915e+02        00000 
-1.11272e-04 -3.87653e+02        00000 
-1.08197e+01 -4.13737e+02        00000 
 1.08196e+01 -4.13737e+02        00000 
 4.25375e+01 -3.88054e+02        00000 
 3.25109e+01 -4.13916e+02        00000 
 5.43576e+01 -4.14275e+02        00000 
 8.58764e+01 -3.89270e+02        00000 
 7.64602e+01 -4.14821e+02        00000 
 9.89153e+01 -4.15558e+02        00000 
 1.30781e+02 -3.91334e+02        00000 
 1.21814e+02 -4.16496e+02        00000 
 1.45244e+02 -4.17640e+02        00000 
 1.77972e+02 -3.94247e+02        00000 
 1.69289e+02 -4.18998e+02        00000 
 1.94031e+02 -4.20583e+02        00000 
-1.90560e+02 -4.98466e+02        00000 
-2.06199e+02 -5.25998e+02        00000 
-1.79920e+02 -5.24957e+02        00000 
-1.40040e+02 -4.96549e+02        00000 
-1.54304e+02 -5.24109e+02        00000 
-1.29324e+02 -5.23437e+02        00000 
-9.18837e+01 -4.95294e+02        00000 
-1.04933e+02 -5.22915e+02        00000 
-8.10547e+01 -5.22522e+02        00000 
-4.54792e+01 -4.94600e+02        00000 
-5.75911e+01 -5.22240e+02        00000 
-3.44314e+01 -5.22057e+02        00000 
-1.53619e-04 -4.94379e+02        00000 
-1.14565e+01 -5.21967e+02        00000 
 1.14563e+01 -5.21968e+02        00000 
 4.54789e+01 -4.94601e+02        00000 
 3.44311e+01 -5.22058e+02        00000 
 5.75908e+01 -5.22240e+02        00000 
 9.18832e+01 -4.95295e+02        00000 
 8.10542e+01 -5.22523e+02        00000 
 1.04932e+02 -5.22916e+02        00000 
 1.40039e+02 -4.96550e+02        00000 
 1.29323e+02 -5.23438e+02        00000 
 1.54303e+02 -5.24110e+02        00000 
 1.90559e+02 -4.98466e+02        00000 
 1.79919e+02 -5.24958e+02        00000 
 2.06198e+02 -5.25998e+02        00000 
-1.98576e+02 -6.08068e+02        00000 
-2.13948e+02 -6.36719e+02        00000 
-1.86009e+02 -6.36200e+02        00000 
-1.45250e+02 -6.07165e+02        00000 
-1.59039e+02 -6.35801e+02        00000 
-1.33001e+02 -6.35429e+02        00000 
-9.49998e+01 -6.06553e+02        00000 
-1.07759e+02 -6.35072e+02        00000 
-8.31596e+01 -6.34745e+02        00000 
-4.69489e+01 -6.06145e+02        00000 
-5.90529e+01 -6.34474e+02        00000 
-3.52939e+01 -6.34281e+02        00000 
-1.80584e-04 -6.05999e+02        00000 
-1.17417e+01 -6.34180e+02        00000 
 1.17416e+01 -6.34180e+02        00000 
 4.69483e+01 -6.06145e+02        00000 
 3.52934e+01 -6.34281e+02        00000 
 5.90520e+01 -6.34474e+02        00000 
 9.49984e+01 -6.06553e+02        00000 
 8.31583e+01 -6.34745e+02        00000 
 1.07757e+02 -6.35071e+02        00000 
 1.45248e+02 -6.07165e+02        00000 
 1.32999e+02 -6.35429e+02        00000 
 1.59037e+02 -6.35801e+02        00000 
 1.98573e+02 -6.08068e+02        00000 
 1.86006e+02 -6.36200e+02        00000 
 2.13945e+02 -6.36719e+02        00000 
-1.59934e+01 -1.24250e+01        00000 
-2.78565e+01 -2.24909e+01        00000 
-1.03196e+01 -8.07512e+00        00000 
-1.80947e+01 -1.59870e+01        00000 
-5.89963e+00 -5.93216e+00        00000 
-1.08276e+01 -1.24451e+01        00000 
-1.92612e+00 -5.02445e+00        00000 
-4.50712e+00 -1.07611e+01        00000 
 1.92585e+00 -5.02454e+00        00000 
 1.49384e+00 -1.04459e+01        00000 
 5.89917e+00 -5.93241e+00        00000 
 7.59654e+00 -1.14128e+01        00000 
 1.03188e+01 -8.07538e+00        00000 
 1.42827e+01 -1.39328e+01        00000 
 1.59924e+01 -1.24251e+01        00000 
 2.24784e+01 -1.87698e+01        00000 
 2.78712e+01 -2.17533e+01        00000 
 3.50656e+01 -2.73102e+01        00000 
-5.10593e+01 -4.91840e+01        00000 
-6.43351e+01 -6.25357e+01        00000 
-3.41697e+01 -4.28948e+01        00000 
-4.45211e+01 -5.58399e+01        00000 
-1.96480e+01 -3.88563e+01        00000 
-2.71649e+01 -5.12552e+01        00000 
-6.41626e+00 -3.69179e+01        00000 
-1.13745e+01 -4.87666e+01        00000 
 6.41525e+00 -3.69180e+01        00000 
 3.77328e+00 -4.82756e+01        00000 
 1.96466e+01 -3.88566e+01        00000 
 1.91326e+01 -4.97556e+01        00000 
 3.41677e+01 -4.28951e+01        00000 
 3.55844e+01 -5.32803e+01        00000 
 5.10569e+01 -4.91841e+01        00000 
 5.40789e+01 -5.89317e+01        00000 
 7.09608e+01 -5.73422e+01        00000 
 7.53043e+01 -6.66582e+01        00000 
-8.15935e+01 -1.01116e+02        00000 
-9.57486e+01 -1.18293e+02        00000 
-5.62314e+01 -9.56135e+01        00000 
-6.78456e+01 -1.12529e+02        00000 
-3.28940e+01 -9.18929e+01        00000 
-4.20980e+01 -1.08514e+02        00000 
-1.08228e+01 -9.00235e+01        00000 
-1.77817e+01 -1.06268e+02        00000 
 1.08211e+01 -9.00235e+01        00000 
 5.90846e+00 -1.05818e+02        00000 
 3.28922e+01 -9.18928e+01        00000 
 2.98081e+01 -1.07167e+02        00000 
 5.62292e+01 -9.56134e+01        00000 
 5.47430e+01 -1.10302e+02        00000 
 8.15909e+01 -1.01116e+02        00000 
 8.14839e+01 -1.15190e+02        00000 
 1.09609e+02 -1.08209e+02        00000 
 1.10706e+02 -1.21869e+02        00000 
-1.07730e+02 -1.68861e+02        00000 
-1.22566e+02 -1.89423e+02        00000 
-7.50153e+01 -1.64231e+02        00000 
-8.75939e+01 -1.84595e+02        00000 
-4.42258e+01 -1.61116e+02        00000 
-5.47248e+01 -1.81256e+02        00000 
-1.46112e+01 -1.59549e+02        00000 
-2.32106e+01 -1.79394e+02        00000 
 1.46084e+01 -1.59549e+02        00000 
 7.71846e+00 -1.79021e+02        00000 
 4.42234e+01 -1.61115e+02        00000 
 3.88436e+01 -1.80139e+02        00000 
 7.50130e+01 -1.64230e+02        00000 
 7.09407e+01 -1.82740e+02        00000 
 1.07728e+02 -1.68861e+02        00000 
 1.04769e+02 -1.86819e+02        00000 
 1.43110e+02 -1.74878e+02        00000 
 1.41069e+02 -1.92434e+02        00000 
-1.29520e+02 -2.50301e+02        00000 