<?xml version="1.0" encoding="utf-8"?>
<VTKFile byte_order="LittleEndian" type="UnstructuredGrid" version="0.1">
   <UnstructuredGrid>
      <Piece NumberOfCells="1296" NumberOfPoints="685">
         <Points>
            <DataArray Name="Points" NumberOfComponents="3" format="ascii" type="Float32">
0.0000 0.0000 0.0000
0.0000 0.1111 0.0000
0.0000 0.2222 0.0000
0.0000 0.3333 0.0000
0.0000 0.4444 0.0000
0.0000 0.5556 0.0000
0.0000 0.6667 0.0000
0.0000 0.7778 0.0000
0.0000 0.8889 0.0000
0.0000 1.0000 0.0000
0.2222 0.0000 0.0000
0.2222 0.1111 0.0000
0.2222 0.2222 0.0000
0.2222 0.3333 0.0000
0.2222 0.4444 0.0000
0.2222 0.5556 0.0000
0.2222 0.6667 0.0000
0.2222 0.7778 0.0000
0.2222 0.8889 0.0000
0.2222 1.0000 0.0000
0.4444 0.0000 0.0000
0.4444 0.1111 0.0000
0.4444 0.2222 0.0000
0.4444 0.3333 0.0000
0.4444 0.4444 0.0000
0.4444 0.5556 0.0000
0.4444 0.6667 0.0000
0.4444 0.7778 0.0000
0.4444 0.8889 0.0000
0.4444 1.0000 0.0000
0.6667 0.0000 0.0000
0.6667 0.1111 0.0000
0.6667 0.2222 0.0000
0.6667 0.3333 0.0000
0.6667 0.4444 0.0000
0.6667 0.5556 0.0000
0.6667 0.6667 0.0000
0.6667 0.7778 0.0000
0.6667 0.8889 0.0000
0.6667 1.0000 0.0000
0.8889 0.0000 0.0000
0.8889 0.1111 0.0000
0.8889 0.2222 0.0000
0.8889 0.3333 0.0000
0.8889 0.4444 0.0000
0.8889 0.5556 0.0000
0.8889 0.6667 0.0000
0.8889 0.7778 0.0000
0.8889 0.8889 0.0000
0.8889 1.0000 0.0000
1.1111 0.0000 0.0000
1.1111 0.1111 0.0000
1.1111 0.2222 0.0000
1.1111 0.3333 0.0000
1.1111 0.4444 0.0000
1.1111 0.5556 0.0000
1.1111 0.6667 0.0000
1.1111 0.7778 0.0000
1.1111 0.8889 0.0000
1.1111 1.0000 0.0000
1.3333 0.0000 0.0000
1.3333 0.1111 0.0000
1.3333 0.2222 0.0000
1.3333 0.3333 0.0000
1.3333 0.4444 0.0000
1.3333 0.5556 0.0000
1.3333 0.6667 0.0000
1.3333 0.7778 0.0000
1.3333 0.8889 0.0000
1.3333 1.0000 0.0000
1.5556 0.0000 0.0000
1.5556 0.1111 0.0000
1.5556 0.2222 0.0000
1.5556 0.3333 0.0000
1.5556 0.4444 0.0000
1.5556 0.5556 0.0000
1.5556 0.6667 0.0000
1.5556 0.7778 0.0000
1.5556 0.8889 0.0000
1.5556 1.0000 0.0000
1.7778 0.0000 0.0000
1.7778 0.1111 0.0000
1.7778 0.2222 0.0000
1.7778 0.3333 0.0000
1.7778 0.4444 0.0000
1.7778 0.5556 0.0000
1.7778 0.6667 0.0000
1.7778 0.7778 0.0000
1.7778 0.8889 0.0000
1.7778 1.0000 0.0000
2.0000 0.0000 0.0000
2.0000 0.1111 0.0000
2.0000 0.2222 0.0000
2.0000 0.3333 0.0000
2.0000 0.4444 0.0000
2.0000 0.5556 0.0000
2.0000 0.6667 0.0000
2.0000 0.7778 0.0000
2.0000 0.8889 0.0000
2.0000 1.0000 0.0000
0.1111 0.0556 0.0000
0.1111 0.1667 0.0000
0.1111 0.2778 0.0000
0.1111 0.3889 0.0000
0.1111 0.5000 0.0000
0.1111 0.6111 0.0000
0.1111 0.7222 0.0000
0.1111 0.8333 0.0000
0.1111 0.9444 0.0000
0.3333 0.0556 0.0000
0.3333 0.1667 0.0000
0.3333 0.2778 0.0000
0.3333 0.3889 0.0000
0.3333 0.5000 0.0000
0.3333 0.6111 0.0000
0.3333 0.7222 0.0000
0.3333 0.8333 0.0000
0.3333 0.9444 0.0000
0.5556 0.0556 0.0000
0.5556 0.1667 0.0000
0.5556 0.2778 0.0000
0.5556 0.3889 0.0000
0.5556 0.5000 0.0000
0.5556 0.6111 0.0000
0.5556 0.7222 0.0000
0.5556 0.8333 0.0000
0.5556 0.9444 0.0000
0.7778 0.0556 0.0000
0.7778 0.1667 0.0000
0.7778 0.2778 0.0000
0.7778 0.3889 0.0000
0.7778 0.5000 0.0000
0.7778 0.6111 0.0000
0.7778 0.7222 0.0000
0.7778 0.8333 0.0000
0.7778 0.9444 0.0000
1.0000 0.0556 0.0000
1.0000 0.1667 0.0000
1.0000 0.2778 0.0000
1.0000 0.3889 0.0000
1.0000 0.5000 0.0000
1.0000 0.6111 0.0000
1.0000 0.7222 0.0000
1.0000 0.8333 0.0000
1.0000 0.9444 0.0000
1.2222 0.0556 0.0000
1.2222 0.1667 0.0000
1.2222 0.2778 0.0000
1.2222 0.3889 0.0000
1.2222 0.5000 0.0000
1.2222 0.6111 0.0000
1.2222 0.7222 0.0000
1.2222 0.8333 0.0000
1.2222 0.9444 0.0000
1.4444 0.0556 0.0000
1.4444 0.1667 0.0000
1.4444 0.2778 0.0000
1.4444 0.3889 0.0000
1.4444 0.5000 0.0000
1.4444 0.6111 0.0000
1.4444 0.7222 0.0000
1.4444 0.8333 0.0000
1.4444 0.9444 0.0000
1.6667 0.0556 0.0000
1.6667 0.1667 0.0000
1.6667 0.2778 0.0000
1.6667 0.3889 0.0000
1.6667 0.5000 0.0000
1.6667 0.6111 0.0000
1.6667 0.7222 0.0000
1.6667 0.8333 0.0000
1.6667 0.9444 0.0000
1.8889 0.0556 0.0000
1.8889 0.1667 0.0000
1.8889 0.2778 0.0000
1.8889 0.3889 0.0000
1.8889 0.5000 0.0000
1.8889 0.6111 0.0000
1.8889 0.7222 0.0000
1.8889 0.8333 0.0000
1.8889 0.9444 0.0000
0.0000 0.0556 0.0000
0.0556 0.0278 0.0000
0.0556 0.0833 0.0000
0.0000 0.1667 0.0000
0.0556 0.1389 0.0000
0.0556 0.1944 0.0000
0.0000 0.2778 0.0000
0.0556 0.2500 0.0000
0.0556 0.3056 0.0000
0.0000 0.3889 0.0000
0.0556 0.3611 0.0000
0.0556 0.4167 0.0000
0.0000 0.5000 0.0000
0.0556 0.4722 0.0000
0.0556 0.5278 0.0000
0.0000 0.6111 0.0000
0.0556 0.5833 0.0000
0.0556 0.6389 0.0000
0.0000 0.7222 0.0000
0.0556 0.6944 0.0000
0.0556 0.7500 0.0000
0.0000 0.8333 0.0000
0.0556 0.8056 0.0000
0.0556 0.8611 0.0000
0.0000 0.9444 0.0000
0.0556 0.9167 0.0000
0.0556 0.9722 0.0000
0.2222 0.0556 0.0000
0.2778 0.0278 0.0000
0.2778 0.0833 0.0000
0.2222 0.1667 0.0000
0.2778 0.1389 0.0000
0.2778 0.1944 0.0000
0.2222 0.2778 0.0000
0.2778 0.2500 0.0000
0.2778 0.3056 0.0000
0.2222 0.3889 0.0000
0.2778 0.3611 0.0000
0.2778 0.4167 0.0000
0.2222 0.5000 0.0000
0.2778 0.4722 0.0000
0.2778 0.5278 0.0000
0.2222 0.6111 0.0000
0.2778 0.5833 0.0000
0.2778 0.6389 0.0000
0.2222 0.7222 0.0000
0.2778 0.6944 0.0000
0.2778 0.7500 0.0000
0.2222 0.8333 0.0000
0.2778 0.8056 0.0000
0.2778 0.8611 0.0000
0.2222 0.9444 0.0000
0.2778 0.9167 0.0000
0.2778 0.9722 0.0000
0.4444 0.0556 0.0000
0.5000 0.0278 0.0000
0.5000 0.0833 0.0000
0.4444 0.1667 0.0000
0.5000 0.1389 0.0000
0.5000 0.1944 0.0000
0.4444 0.2778 0.0000
0.5000 0.2500 0.0000
0.5000 0.3056 0.0000
0.4444 0.3889 0.0000
0.5000 0.3611 0.0000
0.5000 0.4167 0.0000
0.4444 0.5000 0.0000
0.5000 0.4722 0.0000
0.5000 0.5278 0.0000
0.4444 0.6111 0.0000
0.5000 0.5833 0.0000
0.5000 0.6389 0.0000
0.4444 0.7222 0.0000
0.5000 0.6944 0.0000
0.5000 0.7500 0.0000
0.4444 0.8333 0.0000
0.5000 0.8056 0.0000
0.5000 0.8611 0.0000
0.4444 0.9444 0.0000
0.5000 0.9167 0.0000
0.5000 0.9722 0.0000
0.6667 0.0556 0.0000
0.7222 0.0278 0.0000
0.7222 0.0833 0.0000
0.6667 0.1667 0.0000
0.7222 0.1389 0.0000
0.7222 0.1944 0.0000
0.6667 0.2778 0.0000
0.7222 0.2500 0.0000
0.7222 0.3056 0.0000
0.6667 0.3889 0.0000
0.7222 0.3611 0.0000
0.7222 0.4167 0.0000
0.6667 0.5000 0.0000
0.7222 0.4722 0.0000
0.7222 0.5278 0.0000
0.6667 0.6111 0.0000
0.7222 0.5833 0.0000
0.7222 0.6389 0.0000
0.6667 0.7222 0.0000
0.7222 0.6944 0.0000
0.7222 0.7500 0.0000
0.6667 0.8333 0.0000
0.7222 0.8056 0.0000
0.7222 0.8611 0.0000
0.6667 0.9444 0.0000
0.7222 0.9167 0.0000
0.7222 0.9722 0.0000
0.8889 0.0556 0.0000
0.9444 0.0278 0.0000
0.9444 0.0833 0.0000
0.8889 0.1667 0.0000
0.9444 0.1389 0.0000
0.9444 0.1944 0.0000
0.8889 0.2778 0.0000
0.9444 0.2500 0.0000
0.9444 0.3056 0.0000
0.8889 0.3889 0.0000
0.9444 0.3611 0.0000
0.9444 0.4167 0.0000
0.8889 0.5000 0.0000
0.9444 0.4722 0.0000
0.9444 0.5278 0.0000
0.8889 0.6111 0.0000
0.9444 0.5833 0.0000
0.9444 0.6389 0.0000
0.8889 0.7222 0.0000
0.9444 0.6944 0.0000
0.9444 0.7500 0.0000
0.8889 0.8333 0.0000
0.9444 0.8056 0.0000
0.9444 0.8611 0.0000
0.8889 0.9444 0.0000
0.9444 0.9167 0.0000
0.9444 0.9722 0.0000
1.1111 0.0556 0.0000
1.1667 0.0278 0.0000
1.1667 0.0833 0.0000
1.1111 0.1667 0.0000
1.1667 0.1389 0.0000
1.1667 0.1944 0.0000
1.1111 0.2778 0.0000
1.1667 0.2500 0.0000
1.1667 0.3056 0.0000
1.1111 0.3889 0.0000
1.1667 0.3611 0.0000
1.1667 0.4167 0.0000
1.1111 0.5000 0.0000
1.1667 0.4722 0.0000
1.1667 0.5278 0.0000
1.1111 0.6111 0.0000
1.1667 0.5833 0.0000
1.1667 0.6389 0.0000
1.1111 0.7222 0.0000
1.1667 0.6944 0.0000
1.1667 0.7500 0.0000
1.1111 0.8333 0.0000
1.1667 0.8056 0.0000
1.1667 0.8611 0.0000
1.1111 0.9444 0.0000
1.1667 0.9167 0.0000
1.1667 0.9722 0.0000
1.3333 0.0556 0.0000
1.3889 0.0278 0.0000
1.3889 0.0833 0.0000
1.3333 0.1667 0.0000
1.3889 0.1389 0.0000
1.3889 0.1944 0.0000
1.3333 0.2778 0.0000
1.3889 0.2500 0.0000
1.3889 0.3056 0.0000
1.3333 0.3889 0.0000
1.3889 0.3611 0.0000
1.3889 0.4167 0.0000
1.3333 0.5000 0.0000
1.3889 0.4722 0.0000
1.3889 0.5278 0.0000
1.3333 0.6111 0.0000
1.3889 0.5833 0.0000
1.3889 0.6389 0.0000
1.3333 0.7222 0.0000
1.3889 0.6944 0.0000
1.3889 0.7500 0.0000
1.3333 0.8333 0.0000
1.3889 0.8056 0.0000
1.3889 0.8611 0.0000
1.3333 0.9444 0.0000
1.3889 0.9167 0.0000
1.3889 0.9722 0.0000
1.5556 0.0556 0.0000
1.6111 0.0278 0.0000
1.6111 0.0833 0.0000
1.5556 0.1667 0.0000
1.6111 0.1389 0.0000
1.6111 0.1944 0.0000
1.5556 0.2778 0.0000
1.6111 0.2500 0.0000
1.6111 0.3056 0.0000
1.5556 0.3889 0.0000
1.6111 0.3611 0.0000
1.6111 0.4167 0.0000
1.5556 0.5000 0.0000
1.6111 0.4722 0.0000
1.6111 0.5278 0.0000
1.5556 0.6111 0.0000
1.6111 0.5833 0.0000
1.6111 0.6389 0.0000
1.5556 0.7222 0.0000
1.6111 0.6944 0.0000
1.6111 0.7500 0.0000
1.5556 0.8333 0.0000
1.6111 0.8056 0.0000
1.6111 0.8611 0.0000
1.5556 0.9444 0.0000
1.6111 0.9167 0.0000
1.6111 0.9722 0.0000
1.7778 0.0556 0.0000
1.8333 0.0278 0.0000
1.8333 0.0833 0.0000
1.7778 0.1667 0.0000
1.8333 0.1389 0.0000
1.8333 0.1944 0.0000
1.7778 0.2778 0.0000
1.8333 0.2500 0.0000
1.8333 0.3056 0.0000
1.7778 0.3889 0.0000
1.8333 0.3611 0.0000
1.8333 0.4167 0.0000
1.7778 0.5000 0.0000
1.8333 0.4722 0.0000
1.8333 0.5278 0.0000
1.7778 0.6111 0.0000
1.8333 0.5833 0.0000
1.8333 0.6389 0.0000
1.7778 0.7222 0.0000
1.8333 0.6944 0.0000
1.8333 0.7500 0.0000
1.7778 0.8333 0.0000
1.8333 0.8056 0.0000
1.8333 0.8611 0.0000
1.7778 0.9444 0.0000
1.8333 0.9167 0.0000
1.8333 0.9722 0.0000
0.1111 0.1111 0.0000
0.1667 0.0833 0.0000
0.1111 0.2222 0.0000
0.1667 0.1944 0.0000
0.1111 0.3333 0.0000
0.1667 0.3056 0.0000
0.1111 0.4444 0.0000
0.1667 0.4167 0.0000
0.1111 0.5556 0.0000
0.1667 0.5278 0.0000
0.1111 0.6667 0.0000
0.1667 0.6389 0.0000
0.1111 0.7778 0.0000
0.1667 0.7500 0.0000
0.1111 0.8889 0.0000
0.1667 0.8611 0.0000
0.1111 1.0000 0.0000
0.1667 0.9722 0.0000
0.3333 0.1111 0.0000
0.3889 0.0833 0.0000
0.3333 0.2222 0.0000
0.3889 0.1944 0.0000
0.3333 0.3333 0.0000
0.3889 0.3056 0.0000
0.3333 0.4444 0.0000
0.3889 0.4167 0.0000
0.3333 0.5556 0.0000
0.3889 0.5278 0.0000
0.3333 0.6667 0.0000
0.3889 0.6389 0.0000
0.3333 0.7778 0.0000
0.3889 0.7500 0.0000
0.3333 0.8889 0.0000
0.3889 0.8611 0.0000
0.3333 1.0000 0.0000
0.3889 0.9722 0.0000
0.5556 0.1111 0.0000
[...]
         <PointData>
            <DataArray Name="fValues" NumberOfComponents="3" format="ascii" type="Float64">
 1.22377e-15  6.11883e-16        00000 
-2.27794e-15 -1.32055e-16        00000 
 9.74310e-16  4.47267e-16        00000 
 3.94539e-16 -7.89078e-16        00000 
-2.21636e-16  9.54105e-17        00000 
-1.31513e-16 -3.94539e-16        00000 
 5.11597e-16 -3.71321e-16        00000 
 7.22668e-16 -2.62788e-16        00000 
 1.05669e-15 -1.32086e-16        00000 
-2.44753e-15 -2.44753e-15        00000 
-4.98565e+01 -3.79095e+01        00000 
-3.39253e+01 -2.91496e+01        00000 
-2.21167e+01 -2.29854e+01        00000 
-1.26083e+01 -1.94177e+01        00000 
-4.10774e+00 -1.77999e+01        00000 
 4.10599e+00 -1.78010e+01        00000 
 1.26083e+01 -1.94212e+01        00000 
 2.21125e+01 -2.29917e+01        00000 
 3.39193e+01 -2.91575e+01        00000 
 4.98527e+01 -3.79172e+01        00000 
-9.07474e+01 -8.05586e+01        00000 
-6.67842e+01 -7.29479e+01        00000 
-4.55322e+01 -6.70215e+01        00000 
-2.64395e+01 -6.30512e+01        00000 
-8.66663e+00 -6.10832e+01        00000 
 8.67146e+00 -6.10854e+01        00000 
 2.64431e+01 -6.30561e+01        00000 
 4.55333e+01 -6.70278e+01        00000 
 6.67807e+01 -7.29551e+01        00000 
 9.07393e+01 -8.05661e+01        00000 
-1.26840e+02 -1.39437e+02        00000 
-9.50580e+01 -1.32890e+02        00000 
-6.59264e+01 -1.27834e+02        00000 
-3.87471e+01 -1.24420e+02        00000 
-1.27757e+01 -1.22700e+02        00000 
 1.27877e+01 -1.22698e+02        00000 
 3.87572e+01 -1.24416e+02        00000 
 6.59325e+01 -1.27828e+02        00000 
 9.50612e+01 -1.32884e+02        00000 
 1.26839e+02 -1.39433e+02        00000 
-1.57567e+02 -2.13135e+02        00000 
-1.18987e+02 -2.07670e+02        00000 
-8.30746e+01 -2.03474e+02        00000 
-4.90729e+01 -2.00657e+02        00000 
-1.62274e+01 -1.99242e+02        00000 
 1.62337e+01 -1.99239e+02        00000 
 4.90818e+01 -2.00649e+02        00000 
 8.30834e+01 -2.03462e+02        00000 
 1.18994e+02 -2.07657e+02        00000 
 1.57573e+02 -2.13122e+02        00000 
-1.82745e+02 -2.99265e+02        00000 
-1.38574e+02 -2.94891e+02        00000 
-9.70752e+01 -2.91540e+02        00000 
-5.74807e+01 -2.89302e+02        00000 
-1.90343e+01 -2.88185e+02        00000 
 1.90311e+01 -2.88183e+02        00000 
 5.74826e+01 -2.89298e+02        00000 
 9.70811e+01 -2.91534e+02        00000 
 1.38583e+02 -2.94884e+02        00000 
 1.82754e+02 -2.99260e+02        00000 
-2.02364e+02 -3.95337e+02        00000 
-1.53826e+02 -3.92047e+02        00000 
-1.07934e+02 -3.89556e+02        00000 
-6.39714e+01 -3.87922e+02        00000 
-2.11940e+01 -3.87117e+02        00000 
 2.11822e+01 -3.87115e+02        00000 
 6.39643e+01 -3.87917e+02        00000 
 1.07934e+02 -3.89549e+02        00000 
 1.53828e+02 -3.92039e+02        00000 
 2.02368e+02 -3.95326e+02        00000 
-2.16555e+02 -4.98861e+02        00000 
-1.64749e+02 -4.96632e+02        00000 
-1.15542e+02 -4.95055e+02        00000 
-6.84234e+01 -4.94095e+02        00000 
-2.26616e+01 -4.93644e+02        00000 
 2.26349e+01 -4.93643e+02        00000 
 6.84029e+01 -4.94092e+02        00000 
 1.15529e+02 -4.95049e+02        00000 
 1.64738e+02 -4.96623e+02        00000 
 2.16542e+02 -4.98849e+02        00000 
-2.25986e+02 -6.07821e+02        00000 
-1.71280e+02 -6.06615e+02        00000 
-1.19632e+02 -6.05890e+02        00000 
-7.06849e+01 -6.05375e+02        00000 
-2.33895e+01 -6.05090e+02        00000 
 2.33572e+01 -6.05092e+02        00000 
 7.06525e+01 -6.05377e+02        00000 
 1.19602e+02 -6.05890e+02        00000 
 1.71253e+02 -6.06612e+02        00000 
 2.25963e+02 -6.07815e+02        00000 
-2.31800e+02 -7.26280e+02        00000 
-1.73999e+02 -7.23460e+02        00000 
-1.21521e+02 -7.20103e+02        00000 
-7.18835e+01 -7.17527e+02        00000 
-2.38038e+01 -7.16154e+02        00000 
 2.37712e+01 -7.16154e+02        00000 
 7.18515e+01 -7.17528e+02        00000 
 1.21488e+02 -7.20107e+02        00000 
 1.73966e+02 -7.23466e+02        00000 
 2.31770e+02 -7.26287e+02        00000 
-2.01761e+01 -1.61368e+01        00000 
-1.28787e+01 -9.84470e+00        00000 
-8.01159e+00 -6.79442e+00        00000 
-3.87576e+00 -5.34072e+00        00000 
-4.09597e-04 -4.90566e+00        00000 
 3.87507e+00 -5.34153e+00        00000 
 8.00976e+00 -6.79811e+00        00000 
 1.28751e+01 -9.84864e+00        00000 
 2.01739e+01 -1.61393e+01        00000 
-6.05407e+01 -5.29752e+01        00000 
-4.21838e+01 -4.56682e+01        00000 
-2.66416e+01 -4.05151e+01        00000 
-1.29096e+01 -3.75589e+01        00000 
 5.84124e-05 -3.66047e+01        00000 
 1.29110e+01 -3.75630e+01        00000 
 2.66413e+01 -4.05209e+01        00000 
 4.21795e+01 -4.56768e+01        00000 
 6.05341e+01 -5.29856e+01        00000 
-9.50834e+01 -1.04298e+02        00000 
-6.85106e+01 -9.79681e+01        00000 
-4.42843e+01 -9.33497e+01        00000 
-2.17142e+01 -9.05543e+01        00000 
 4.87568e-03 -8.96205e+01        00000 
 2.17227e+01 -9.05553e+01        00000 
 4.42896e+01 -9.33509e+01        00000 
 6.85119e+01 -9.79687e+01        00000 
 9.50809e+01 -1.04299e+02        00000 
-1.24846e+02 -1.71421e+02        00000 
-9.09458e+01 -1.66072e+02        00000 
-5.93317e+01 -1.62198e+02        00000 
-2.92706e+01 -1.59857e+02        00000 
 5.12626e-03 -1.59071e+02        00000 
 2.92814e+01 -1.59851e+02        00000 
 5.93418e+01 -1.62190e+02        00000 
 9.09526e+01 -1.66062e+02        00000 
 1.24850e+02 -1.71410e+02        00000 
-1.49702e+02 -2.52215e+02        00000 
-1.09609e+02 -2.47842e+02        00000 
-7.17990e+01 -2.44688e+02        00000 
-3.55170e+01 -2.42790e+02        00000 
 2.24083e-04 -2.42155e+02        00000 
 3.55195e+01 -2.42785e+02        00000 
 7.18052e+01 -2.44679e+02        00000 
 1.09617e+02 -2.47831e+02        00000 
 1.49709e+02 -2.52205e+02        00000 
-1.69610e+02 -3.44201e+02        00000 
-1.24536e+02 -3.40800e+02        00000 
-8.17427e+01 -3.38366e+02        00000 
-4.04857e+01 -3.36914e+02        00000 
-4.46506e-03 -3.36432e+02        00000 
 4.04814e+01 -3.36912e+02        00000 
 8.17439e+01 -3.38361e+02        00000 
 1.24541e+02 -3.40794e+02        00000 
 1.69617e+02 -3.44192e+02        00000 
-1.84602e+02 -4.44863e+02        00000 
-1.35705e+02 -4.42447e+02        00000 
-8.91082e+01 -4.40778e+02        00000 
-4.41368e+01 -4.39818e+02        00000 
-9.88613e-03 -4.39505e+02        00000 
 4.41198e+01 -4.39814e+02        00000 
 8.90993e+01 -4.40772e+02        00000 
 1.35701e+02 -4.42439e+02        00000 
 1.84597e+02 -4.44853e+02        00000 
-1.94851e+02 -5.51788e+02        00000 
-1.42984e+02 -5.50385e+02        00000 
-9.36809e+01 -5.49539e+02        00000 
-4.63370e+01 -5.49077e+02        00000 
-1.58085e-02 -5.48929e+02        00000 
 4.63070e+01 -5.49078e+02        00000 
 9.36559e+01 -5.49537e+02        00000 
 1.42964e+02 -5.50380e+02        00000 
 1.94832e+02 -5.51780e+02        00000 
-2.00533e+02 -6.64264e+02        00000 
-1.46210e+02 -6.63382e+02        00000 
-9.55958e+01 -6.62313e+02        00000 
-4.72594e+01 -6.61490e+02        00000 
-1.57610e-02 -6.61186e+02        00000 
 4.72273e+01 -6.61490e+02        00000 
 9.55631e+01 -6.62315e+02        00000 
 1.46179e+02 -6.63385e+02        00000 
 2.00504e+02 -6.64266e+02        00000 
-3.23854e-15 -2.36898e-16        00000 
-1.10269e+01 -8.42674e+00        00000 
-8.37102e+00 -5.93413e+00        00000 
 2.83522e-15  1.67406e-15        00000 
-6.75224e+00 -4.37307e+00        00000 
-5.47326e+00 -3.31524e+00        00000 
-2.49800e-16 -7.49401e-16        00000 
-4.35137e+00 -2.57601e+00        00000 
-3.31708e+00 -2.05923e+00        00000 
-5.87561e-16 -1.59017e-17        00000 
-2.33730e+00 -1.70903e+00        00000 
-1.39046e+00 -1.49121e+00        00000 
 6.24500e-17  6.24500e-17        00000 
-4.61993e-01 -1.38706e+00        00000 
 4.61011e-01 -1.38717e+00        00000 
-1.47716e-16 -5.63264e-19        00000 
 1.38959e+00 -1.49192e+00        00000 
 2.33617e+00 -1.70990e+00        00000 
-6.24500e-16 -2.49800e-16        00000 
 3.31599e+00 -2.06087e+00        00000 
 4.34968e+00 -2.57784e+00        00000 
-9.99201e-16  7.49401e-16        00000 
 5.47134e+00 -3.31688e+00        00000 
 6.75049e+00 -4.37468e+00        00000 
-1.92125e-16 -4.97800e-16        00000 
 8.36945e+00 -5.93505e+00        00000 
 1.10263e+01 -8.42749e+00        00000 
-4.14214e+01 -3.33457e+01        00000 
-5.57269e+01 -4.50923e+01        00000 
-4.67828e+01 -4.07057e+01        00000 
-2.76094e+01 -2.56976e+01        00000 
-3.86920e+01 -3.68684e+01        00000 
-3.14880e+01 -3.36838e+01        00000 
-1.71768e+01 -2.09233e+01        00000 
-2.49774e+01 -3.11452e+01        00000 
-1.89725e+01 -2.92029e+01        00000 
-8.28360e+00 -1.83937e+01        00000 
-1.33223e+01 -2.78019e+01        00000 
-7.90593e+00 -2.68951e+01        00000 
-1.22428e-03 -1.76055e+01        00000 
-2.62175e+00 -2.64504e+01        00000 
 2.62036e+00 -2.64511e+01        00000 
 8.28336e+00 -1.83962e+01        00000 
 7.90564e+00 -2.68974e+01        00000 
 1.33231e+01 -2.78055e+01        00000 
 1.71754e+01 -2.09283e+01        00000 
 1.89723e+01 -2.92077e+01        00000 
 2.49751e+01 -3.11512e+01        00000 
 2.76036e+01 -2.57046e+01        00000 
 3.14833e+01 -3.36911e+01        00000 
 3.86861e+01 -3.68774e+01        00000 
 4.14158e+01 -3.33534e+01        00000 
 4.67763e+01 -4.07154e+01        00000 
 5.57204e+01 -4.51020e+01        00000 
-7.84035e+01 -7.65739e+01        00000 
-9.34712e+01 -9.20595e+01        00000 
-8.04899e+01 -8.82126e+01        00000 
-5.58455e+01 -6.97508e+01        00000 
-6.82023e+01 -8.48638e+01        00000 
-5.65505e+01 -8.19850e+01        00000 
-3.57653e+01 -6.47852e+01        00000 
-4.54647e+01 -7.95766e+01        00000 
-3.48565e+01 -7.76465e+01        00000 
-1.74441e+01 -6.18186e+01        00000 
-2.46252e+01 -7.61988e+01        00000 
-1.46650e+01 -7.52352e+01        00000 
 2.50628e-03 -6.08396e+01        00000 
-4.86734e+00 -7.47544e+01        00000 
 4.87499e+00 -7.47554e+01        00000 
 1.74478e+01 -6.18228e+01        00000 
 1.46715e+01 -7.52375e+01        00000 
 2.46304e+01 -7.62023e+01        00000 
 3.57674e+01 -6.47909e+01        00000 
 3.48603e+01 -7.76502e+01        00000 
 4.54673e+01 -7.95807e+01        00000 
 5.58440e+01 -6.97575e+01        00000 
 5.65518e+01 -8.19889e+01        00000 
 6.82011e+01 -8.48677e+01        00000 
 7.83975e+01 -7.65808e+01        00000 
 8.04865e+01 -8.82163e+01        00000 
 9.34654e+01 -9.20634e+01        00000 
-1.10571e+02 -1.36000e+02        00000 
-1.26341e+02 -1.55095e+02        00000 
-1.09566e+02 -1.51803e+02        00000 
-8.02044e+01 -1.30161e+02        00000 
-9.34926e+01 -1.48954e+02        00000 
-7.80368e+01 -1.46516e+02        00000 
-5.21378e+01 -1.25917e+02        00000 
-6.31095e+01 -1.44481e+02        00000 
-4.86212e+01 -1.42848e+02        00000 
-2.56594e+01 -1.23346e+02        00000 
-3.44783e+01 -1.41619e+02        00000 
-2.05845e+01 -1.40797e+02        00000 
 6.03412e-03 -1.22484e+02        00000 
-6.84090e+00 -1.40384e+02        00000 
 6.85269e+00 -1.40383e+02        00000 
 2.56708e+01 -1.23343e+02        00000 
 2.05962e+01 -1.40793e+02        00000 
 3.44893e+01 -1.41614e+02        00000 
 5.21463e+01 -1.25913e+02        00000 
 4.86312e+01 -1.42841e+02        00000 
 6.31179e+01 -1.44474e+02        00000 
 8.02089e+01 -1.30156e+02        00000 
 7.80435e+01 -1.46509e+02        00000 
 9.34981e+01 -1.48946e+02        00000 
 1.10572e+02 -1.35994e+02        00000 
 1.09569e+02 -1.51795e+02        00000 
 1.26343e+02 -1.55086e+02        00000 
-1.37892e+02 -2.10263e+02        00000 
-1.54059e+02 -2.32384e+02        00000 
-1.34031e+02 -2.29662e+02        00000 
-1.00746e+02 -2.05402e+02        00000 
-1.14715e+02 -2.27311e+02        00000 
-9.60154e+01 -2.25304e+02        00000 
-6.58817e+01 -2.01891e+02        00000 
-7.78396e+01 -2.23633e+02        00000 
-6.00942e+01 -2.22295e+02        00000 
-3.25542e+01 -1.99773e+02        00000 
-4.26842e+01 -2.21291e+02        00000 
-2.55142e+01 -2.20620e+02        00000 
 2.96255e-03 -1.99064e+02        00000 
-8.48751e+00 -2.20284e+02        00000 
 8.49086e+00 -2.20282e+02        00000 
 3.25613e+01 -1.99768e+02        00000 
 2.55180e+01 -2.20616e+02        00000 
 4.26901e+01 -2.21284e+02        00000 
 6.58904e+01 -2.01881e+02        00000 
 6.01014e+01 -2.22286e+02        00000 
 7.78476e+01 -2.23622e+02        00000 
 1.00754e+02 -2.05390e+02        00000 
 9.60240e+01 -2.25292e+02        00000 
 1.14723e+02 -2.27299e+02        00000 
 1.37897e+02 -2.10249e+02        00000 
 1.34038e+02 -2.29650e+02        00000 
 1.54065e+02 -2.32372e+02        00000 
-1.60274e+02 -2.96966e+02        00000 
-1.76524e+02 -3.21489e+02        00000 
-1.53856e+02 -3.19338e+02        00000 
-1.17540e+02 -2.93078e+02        00000 
-1.31897e+02 -3.17482e+02        00000 
-1.10555e+02 -3.15901e+02        00000 
-7.70872e+01 -2.90281e+02        00000 
-8.97368e+01 -3.14589e+02        00000 
-6.93481e+01 -3.13542e+02        00000 
-3.81618e+01 -2.88604e+02        00000 
-4.92949e+01 -3.12759e+02        00000 
-2.94820e+01 -3.12238e+02        00000 
-2.52164e-03 -2.88044e+02        00000 
-9.81349e+00 -3.11977e+02        00000 
 9.80724e+00 -3.11977e+02        00000 
 3.81607e+01 -2.88601e+02        00000 
 2.94778e+01 -3.12236e+02        00000 
 4.92930e+01 -3.12756e+02        00000 
 7.70910e+01 -2.90276e+02        00000 
 6.93491e+01 -3.13538e+02        00000 
 8.97403e+01 -3.14584e+02        00000 
 1.17547e+02 -2.93071e+02        00000 
 1.10561e+02 -3.15895e+02        00000 
 1.31904e+02 -3.17475e+02        00000 
 1.60282e+02 -2.96959e+02        00000 
 1.53864e+02 -3.19331e+02        00000 
 1.76532e+02 -3.21482e+02        00000 
-1.77715e+02 -3.93605e+02        00000 
-1.93753e+02 -4.19903e+02        00000 
-1.69047e+02 -4.18320e+02        00000 
-1.30595e+02 -3.90694e+02        00000 
-1.45038e+02 -4.16963e+02        00000 
-1.21643e+02 -4.15820e+02        00000 
-8.57571e+01 -3.88633e+02        00000 
-9.87778e+01 -4.14884e+02        00000 
-7.63565e+01 -4.14148e+02        00000 
-4.24828e+01 -3.87418e+02        00000 
-5.42869e+01 -4.13603e+02        00000 
-3.24724e+01 -4.13244e+02        00000 
-6.42607e-03 -3.87017e+02        00000 
-1.08123e+01 -4.13065e+02        00000 
 1.07960e+01 -4.13064e+02        00000 
 4.24724e+01 -3.87414e+02        00000 
 3.24573e+01 -4.13240e+02        00000 
 5.42748e+01 -4.13598e+02        00000 
 8.57533e+01 -3.88627e+02        00000 
 7.63484e+01 -4.14141e+02        00000 
 9.87735e+01 -4.14877e+02        00000 
 1.30596e+02 -3.90687e+02        00000 
 1.21641e+02 -4.15812e+02        00000 
 1.45037e+02 -4.16955e+02        00000 
 1.77718e+02 -3.93595e+02        00000 
 1.69047e+02 -4.18311e+02        00000 
 1.93753e+02 -4.19893e+02        00000 
-1.90298e+02 -4.97675e+02        00000 
-2.05920e+02 -5.25169e+02        00000 
-1.79676e+02 -5.24128e+02        00000 
-1.39848e+02 -4.95759e+02        00000 
-1.54096e+02 -5.23280e+02        00000 
-1.29151e+02 -5.22608e+02        00000 
-9.17620e+01 -4.94505e+02        00000 
-1.04795e+02 -5.22087e+02        00000 
-8.09518e+01 -5.21694e+02        00000 
-4.54269e+01 -4.93811e+02        00000 
-5.75226e+01 -5.21411e+02        00000 
-3.43970e+01 -5.21228e+02        00000 
-1.39997e-02 -4.93588e+02        00000 
-1.14553e+01 -5.21138e+02        00000 
 1.14251e+01 -5.21138e+02        00000 
 4.54020e+01 -4.93809e+02        00000 
 3.43681e+01 -5.21228e+02        00000 
 5.74966e+01 -5.21410e+02        00000 
 9.17451e+01 -4.94500e+02        00000 
 8.09291e+01 -5.21691e+02        00000 
 1.04775e+02 -5.22084e+02        00000 
 1.39837e+02 -4.95752e+02        00000 
 1.29134e+02 -5.22603e+02        00000 
 1.54080e+02 -5.23273e+02        00000 
 1.90286e+02 -4.97664e+02        00000 
 1.79661e+02 -5.24119e+02        00000 
 2.05903e+02 -5.25159e+02        00000 
-1.98314e+02 -6.07123e+02        00000 
-2.13668e+02 -6.35735e+02        00000 
-1.85767e+02 -6.35216e+02        00000 
-1.45062e+02 -6.06220e+02        00000 
-1.58834e+02 -6.34818e+02        00000 
-1.32832e+02 -6.34446e+02        00000 
-9.48825e+01 -6.05608e+02        00000 
-1.07625e+02 -6.34089e+02        00000 
-8.30601e+01 -6.33763e+02        00000 
-4.68996e+01 -6.05199e+02        00000 
-5.89874e+01 -6.33493e+02        00000 
-3.52611e+01 -6.33300e+02        00000 
-1.61026e-02 -6.05054e+02        00000 
-1.17414e+01 -6.33199e+02        00000 
 1.17096e+01 -6.33200e+02        00000 
 4.68670e+01 -6.05201e+02        00000 
 3.52286e+01 -6.33301e+02        00000 
 5.89543e+01 -6.33494e+02        00000 
 9.48517e+01 -6.05609e+02        00000 
 8.30271e+01 -6.33765e+02        00000 
 1.07593e+02 -6.34091e+02        00000 
 1.45034e+02 -6.06219e+02        00000 
 1.32801e+02 -6.34448e+02        00000 
 1.58804e+02 -6.34818e+02        00000 
 1.98289e+02 -6.07118e+02        00000 
 1.85738e+02 -6.35215e+02        00000 
 2.13642e+02 -6.35734e+02        00000 
-1.59681e+01 -1.23997e+01        00000 
-2.78121e+01 -2.24460e+01        00000 
-1.03040e+01 -8.05652e+00        00000 
-1.80668e+01 -1.59520e+01        00000 
-5.89025e+00 -5.91765e+00        00000 
-1.08104e+01 -1.24167e+01        00000 
-1.92361e+00 -5.01223e+00        00000 
-4.50060e+00 -1.07364e+01        00000 
 1.92217e+00 -5.01264e+00        00000 
 1.49084e+00 -1.04220e+01        00000 
 5.88943e+00 -5.91996e+00        00000 
 7.58484e+00 -1.13887e+01        00000 
 1.03008e+01 -8.06051e+00        00000 
 1.42586e+01 -1.39063e+01        00000 
 1.59647e+01 -1.24029e+01        00000 
 2.24397e+01 -1.87361e+01        00000 
 2.78236e+01 -2.17152e+01        00000 
 3.50058e+01 -2.72628e+01        00000 
-5.09790e+01 -4.90850e+01        00000 
-6.42335e+01 -6.24134e+01        00000 
-3.41160e+01 -4.28067e+01        00000 
-4.44510e+01 -5.57281e+01        00000 
-1.96162e+01 -3.87750e+01        00000 
-2.71213e+01 -5.11503e+01        00000 
-6.40580e+00 -3.68412e+01        00000 
-1.13550e+01 -4.86664e+01        00000 
 6.40649e+00 -3.68435e+01        00000 
 3.76933e+00 -4.81786e+01        00000 
 1.96173e+01 -3.87801e+01        00000 
 1.91051e+01 -4.96584e+01        00000 
 3.41137e+01 -4.28139e+01        00000 
 3.55301e+01 -5.31791e+01        00000 
 5.09732e+01 -4.90946e+01        00000 
 5.39926e+01 -5.88233e+01        00000 
 7.08406e+01 -5.72407e+01        00000 
 7.51800e+01 -6.65388e+01        00000 
-8.14665e+01 -1.00931e+02        00000 
-9.56002e+01 -1.18080e+02        00000 
-5.61438e+01 -9.54360e+01        00000 
-6.77400e+01 -1.12324e+02        00000 
-3.28409e+01 -9.17206e+01        00000 
-4.20308e+01 -1.08315e+02        00000 
-1.08009e+01 -8.98541e+01        00000 
-1.77492e+01 -1.06072e+02        00000 
 1.08101e+01 -8.98546e+01        00000 
 5.90615e+00 -1.05621e+02        00000 
 3.28475e+01 -9.17219e+01        00000 
 2.97700e+01 -1.06969e+02        00000 
 5.61469e+01 -9.54368e+01        00000 
 5.46651e+01 -1.10099e+02        00000 
 8.14657e+01 -1.00931e+02        00000 
 8.13623e+01 -1.14979e+02        00000 
 1.09435e+02 -1.08014e+02        00000 
 1.10536e+02 -1.21649e+02        00000 
-1.07565e+02 -1.68570e+02        00000 
-1.22378e+02 -1.89100e+02        00000 
-7.48983e+01 -1.63946e+02        00000 
-8.74584e+01 -1.84278e+02        00000 
-4.41542e+01 -1.60834e+02        00000 
-5.46376e+01 -1.80943e+02        00000 
-1.45834e+01 -1.59269e+02        00000 
-2.31709e+01 -1.79082e+02        00000 
 1.45938e+01 -1.59266e+02        00000 
 7.71242e+00 -1.78707e+02        00000 
 4.41649e+01 -1.60827e+02        00000 
 3.87929e+01 -1.79821e+02        00000 
 7.49065e+01 -1.63936e+02        00000 
 7.08407e+01 -1.82416e+02        00000 
 1.07570e+02 -1.68559e+02        00000 
 1.04617e+02 -1.86488e+02        00000 
 1.42894e+02 -1.74567e+02        00000 
 1.40859e+02 -1.92094e+02        00000 
-1.29323e+02 -2.49882e+02        00000 