<?xml version="1.0" encoding="utf-8"?>
<VTKFile byte_order="LittleEndian" type="UnstructuredGrid" version="0.1">
   <UnstructuredGrid>
      <Piece NumberOfCells="1296" NumberOfPoints="685">
         <Points>
            <DataArray Name="Points" NumberOfComponents="3" format="ascii" type="Float32">
0.0000 0.0000 0.0000
0.0000 0.1111 0.0000
0.0000 0.2222 0.0000
0.0000 0.3333 0.0000
0.0000 0.4444 0.0000
0.0000 0.5556 0.0000
0.0000 0.6667 0.0000
0.0000 0.7778 0.0000
0.0000 0.8889 0.0000
0.0000 1.0000 0.0000
0.2222 0.0000 0.0000
0.2222 0.1111 0.0000
0.2222 0.2222 0.0000
0.2222 0.3333 0.0000
0.2222 0.4444 0.0000
0.2222 0.5556 0.0000
0.2222 0.6667 0.0000
0.2222 0.7778 0.0000
0.2222 0.8889 0.0000
0.2222 1.0000 0.0000
0.4444 0.0000 0.0000
0.4444 0.1111 0.0000
0.4444 0.2222 0.0000
0.4444 0.3333 0.0000
0.4444 0.4444 0.0000
0.4444 0.5556 0.0000
0.4444 0.6667 0.0000
0.4444 0.7778 0.0000
0.4444 0.8889 0.0000
0.4444 1.0000 0.0000
0.6667 0.0000 0.0000
0.6667 0.1111 0.0000
0.6667 0.2222 0.0000
0.6667 0.3333 0.0000
0.6667 0.4444 0.0000
0.6667 0.5556 0.0000
0.6667 0.6667 0.0000
0.6667 0.7778 0.0000
0.6667 0.8889 0.0000
0.6667 1.0000 0.0000
0.8889 0.0000 0.0000
0.8889 0.1111 0.0000
0.8889 0.2222 0.0000
0.8889 0.3333 0.0000
0.8889 0.4444 0.0000
0.8889 0.5556 0.0000
0.8889 0.6667 0.0000
0.8889 0.7778 0.0000
0.8889 0.8889 0.0000
0.8889 1.0000 0.0000
1.1111 0.0000 0.0000
1.1111 0.1111 0.0000
1.1111 0.2222 0.0000
1.1111 0.3333 0.0000
1.1111 0.4444 0.0000
1.1111 0.5556 0.0000
1.1111 0.6667 0.0000
1.1111 0.7778 0.0000
1.1111 0.8889 0.0000
1.1111 1.0000 0.0000
1.3333 0.0000 0.0000
1.3333 0.1111 0.0000
1.3333 0.2222 0.0000
1.3333 0.3333 0.0000
1.3333 0.4444 0.0000
1.3333 0.5556 0.0000
1.3333 0.6667 0.0000
1.3333 0.7778 0.0000
1.3333 0.8889 0.0000
1.3333 1.0000 0.0000
1.5556 0.0000 0.0000
1.5556 0.1111 0.0000
1.5556 0.2222 0.0000
1.5556 0.3333 0.0000
1.5556 0.4444 0.0000
1.5556 0.5556 0.0000
1.5556 0.6667 0.0000
1.5556 0.7778 0.0000
1.5556 0.8889 0.0000
1.5556 1.0000 0.0000
1.7778 0.0000 0.0000
1.7778 0.1111 0.0000
1.7778 0.2222 0.0000
1.7778 0.3333 0.0000
1.7778 0.4444 0.0000
1.7778 0.5556 0.0000
1.7778 0.6667 0.0000
1.7778 0.7778 0.0000
1.7778 0.8889 0.0000
1.7778 1.0000 0.0000
2.0000 0.0000 0.0000
2.0000 0.1111 0.0000
2.0000 0.2222 0.0000
2.0000 0.3333 0.0000
2.0000 0.4444 0.0000
2.0000 0.5556 0.0000
2.0000 0.6667 0.0000
2.0000 0.7778 0.0000
2.0000 0.8889 0.0000
2.0000 1.0000 0.0000
0.1111 0.0556 0.0000
0.1111 0.1667 0.0000
0.1111 0.2778 0.0000
0.1111 0.3889 0.0000
0.1111 0.5000 0.0000
0.1111 0.6111 0.0000
0.1111 0.7222 0.0000
0.1111 0.8333 0.0000
0.1111 0.9444 0.0000
0.3333 0.0556 0.0000
0.3333 0.1667 0.0000
0.3333 0.2778 0.0000
0.3333 0.3889 0.0000
0.3333 0.5000 0.0000
0.3333 0.6111 0.0000
0.3333 0.7222 0.0000
0.3333 0.8333 0.0000
0.3333 0.9444 0.0000
0.5556 0.0556 0.0000
0.5556 0.1667 0.0000
0.5556 0.2778 0.0000
0.5556 0.3889 0.0000
0.5556 0.5000 0.0000
0.5556 0.6111 0.0000
0.5556 0.7222 0.0000
0.5556 0.8333 0.0000
0.5556 0.9444 0.0000
0.7778 0.0556 0.0000
0.7778 0.1667 0.0000
0.7778 0.2778 0.0000
0.7778 0.3889 0.0000
0.7778 0.5000 0.0000
0.7778 0.6111 0.0000
0.7778 0.7222 0.0000
0.7778 0.8333 0.0000
0.7778 0.9444 0.0000
1.0000 0.0556 0.0000
1.0000 0.1667 0.0000
1.0000 0.2778 0.0000
1.0000 0.3889 0.0000
1.0000 0.5000 0.0000
1.0000 0.6111 0.0000
1.0000 0.7222 0.0000
1.0000 0.8333 0.0000
1.0000 0.9444 0.0000
1.2222 0.0556 0.0000
1.2222 0.1667 0.0000
1.2222 0.2778 0.0000
1.2222 0.3889 0.0000
1.2222 0.5000 0.0000
1.2222 0.6111 0.0000
1.2222 0.7222 0.0000
1.2222 0.8333 0.0000
1.2222 0.9444 0.0000
1.4444 0.0556 0.0000
1.4444 0.1667 0.0000
1.4444 0.2778 0.0000
1.4444 0.3889 0.0000
1.4444 0.5000 0.0000
1.4444 0.6111 0.0000
1.4444 0.7222 0.0000
1.4444 0.8333 0.0000
1.4444 0.9444 0.0000
1.6667 0.0556 0.0000
1.6667 0.1667 0.0000
1.6667 0.2778 0.0000
1.6667 0.3889 0.0000
1.6667 0.5000 0.0000
1.6667 0.6111 0.0000
1.6667 0.7222 0.0000
1.6667 0.8333 0.0000
1.6667 0.9444 0.0000
1.8889 0.0556 0.0000
1.8889 0.1667 0.0000
1.8889 0.2778 0.0000
1.8889 0.3889 0.0000
1.8889 0.5000 0.0000
1.8889 0.6111 0.0000
1.8889 0.7222 0.0000
1.8889 0.8333 0.0000
1.8889 0.9444 0.0000
0.0000 0.0556 0.0000
0.0556 0.0278 0.0000
0.0556 0.0833 0.0000
0.0000 0.1667 0.0000
0.0556 0.1389 0.0000
0.0556 0.1944 0.0000
0.0000 0.2778 0.0000
0.0556 0.2500 0.0000
0.0556 0.3056 0.0000
0.0000 0.3889 0.0000
0.0556 0.3611 0.0000
0.0556 0.4167 0.0000
0.0000 0.5000 0.0000
0.0556 0.4722 0.0000
0.0556 0.5278 0.0000
0.0000 0.6111 0.0000
0.0556 0.5833 0.0000
0.0556 0.6389 0.0000
0.0000 0.7222 0.0000
0.0556 0.6944 0.0000
0.0556 0.7500 0.0000
0.0000 0.8333 0.0000
0.0556 0.8056 0.0000
0.0556 0.8611 0.0000
0.0000 0.9444 0.0000
0.0556 0.9167 0.0000
0.0556 0.9722 0.0000
0.2222 0.0556 0.0000
0.2778 0.0278 0.0000
0.2778 0.0833 0.0000
0.2222 0.1667 0.0000
0.2778 0.1389 0.0000
0.2778 0.1944 0.0000
0.2222 0.2778 0.0000
0.2778 0.2500 0.0000
0.2778 0.3056 0.0000
0.2222 0.3889 0.0000
0.2778 0.3611 0.0000
0.2778 0.4167 0.0000
0.2222 0.5000 0.0000
0.2778 0.4722 0.0000
0.2778 0.5278 0.0000
0.2222 0.6111 0.0000
0.2778 0.5833 0.0000
0.2778 0.6389 0.0000
0.2222 0.7222 0.0000
0.2778 0.6944 0.0000
0.2778 0.7500 0.0000
0.2222 0.8333 0.0000
0.2778 0.8056 0.0000
0.2778 0.8611 0.0000
0.2222 0.9444 0.0000
0.2778 0.9167 0.0000
0.2778 0.9722 0.0000
0.4444 0.0556 0.0000
0.5000 0.0278 0.0000
0.5000 0.0833 0.0000
0.4444 0.1667 0.0000
0.5000 0.1389 0.0000
0.5000 0.1944 0.0000
0.4444 0.2778 0.0000
0.5000 0.2500 0.0000
0.5000 0.3056 0.0000
0.4444 0.3889 0.0000
0.5000 0.3611 0.0000
0.5000 0.4167 0.0000
0.4444 0.5000 0.0000
0.5000 0.4722 0.0000
0.5000 0.5278 0.0000
0.4444 0.6111 0.0000
0.5000 0.5833 0.0000
0.5000 0.6389 0.0000
0.4444 0.7222 0.0000
0.5000 0.6944 0.0000
0.5000 0.7500 0.0000
0.4444 0.8333 0.0000
0.5000 0.8056 0.0000
0.5000 0.8611 0.0000
0.4444 0.9444 0.0000
0.5000 0.9167 0.0000
0.5000 0.9722 0.0000
0.6667 0.0556 0.0000
0.7222 0.0278 0.0000
0.7222 0.0833 0.0000
0.6667 0.1667 0.0000
0.7222 0.1389 0.0000
0.7222 0.1944 0.0000
0.6667 0.2778 0.0000
0.7222 0.2500 0.0000
0.7222 0.3056 0.0000
0.6667 0.3889 0.0000
0.7222 0.3611 0.0000
0.7222 0.4167 0.0000
0.6667 0.5000 0.0000
0.7222 0.4722 0.0000
0.7222 0.5278 0.0000
0.6667 0.6111 0.0000
0.7222 0.5833 0.0000
0.7222 0.6389 0.0000
0.6667 0.7222 0.0000
0.7222 0.6944 0.0000
0.7222 0.7500 0.0000
0.6667 0.8333 0.0000
0.7222 0.8056 0.0000
0.7222 0.8611 0.0000
0.6667 0.9444 0.0000
0.7222 0.9167 0.0000
0.7222 0.9722 0.0000
0.8889 0.0556 0.0000
0.9444 0.0278 0.0000
0.9444 0.0833 0.0000
0.8889 0.1667 0.0000
0.9444 0.1389 0.0000
0.9444 0.1944 0.0000
0.8889 0.2778 0.0000
0.9444 0.2500 0.0000
0.9444 0.3056 0.0000
0.8889 0.3889 0.0000
0.9444 0.3611 0.0000
0.9444 0.4167 0.0000
0.8889 0.5000 0.0000
0.9444 0.4722 0.0000
0.9444 0.5278 0.0000
0.8889 0.6111 0.0000
0.9444 0.5833 0.0000
0.9444 0.6389 0.0000
0.8889 0.7222 0.0000
0.9444 0.6944 0.0000
0.9444 0.7500 0.0000
0.8889 0.8333 0.0000
0.9444 0.8056 0.0000
0.9444 0.8611 0.0000
0.8889 0.9444 0.0000
0.9444 0.9167 0.0000
0.9444 0.9722 0.0000
1.1111 0.0556 0.0000
1.1667 0.0278 0.0000
1.1667 0.0833 0.0000
1.1111 0.1667 0.0000
1.1667 0.1389 0.0000
1.1667 0.1944 0.0000
1.1111 0.2778 0.0000
1.1667 0.2500 0.0000
1.1667 0.3056 0.0000
1.1111 0.3889 0.0000
1.1667 0.3611 0.0000
1.1667 0.4167 0.0000
1.1111 0.5000 0.0000
1.1667 0.4722 0.0000
1.1667 0.5278 0.0000
1.1111 0.6111 0.0000
1.1667 0.5833 0.0000
1.1667 0.6389 0.0000
1.1111 0.7222 0.0000
1.1667 0.6944 0.0000
1.1667 0.7500 0.0000
1.1111 0.8333 0.0000
1.1667 0.8056 0.0000
1.1667 0.8611 0.0000
1.1111 0.9444 0.0000
1.1667 0.9167 0.0000
1.1667 0.9722 0.0000
1.3333 0.0556 0.0000
1.3889 0.0278 0.0000
1.3889 0.0833 0.0000
1.3333 0.1667 0.0000
1.3889 0.1389 0.0000
1.3889 0.1944 0.0000
1.3333 0.2778 0.0000
1.3889 0.2500 0.0000
1.3889 0.3056 0.0000
1.3333 0.3889 0.0000
1.3889 0.3611 0.0000
1.3889 0.4167 0.0000
1.3333 0.5000 0.0000
1.3889 0.4722 0.0000
1.3889 0.5278 0.0000
1.3333 0.6111 0.0000
1.3889 0.5833 0.0000
1.3889 0.6389 0.0000
1.3333 0.7222 0.0000
1.3889 0.6944 0.0000
1.3889 0.7500 0.0000
1.3333 0.8333 0.0000
1.3889 0.8056 0.0000
1.3889 0.8611 0.0000
1.3333 0.9444 0.0000
1.3889 0.9167 0.0000
1.3889 0.9722 0.0000
1.5556 0.0556 0.0000
1.6111 0.0278 0.0000
1.6111 0.0833 0.0000
1.5556 0.1667 0.0000
1.6111 0.1389 0.0000
1.6111 0.1944 0.0000
1.5556 0.2778 0.0000
1.6111 0.2500 0.0000
1.6111 0.3056 0.0000
1.5556 0.3889 0.0000
1.6111 0.3611 0.0000
1.6111 0.4167 0.0000
1.5556 0.5000 0.0000
1.6111 0.4722 0.0000
1.6111 0.5278 0.0000
1.5556 0.6111 0.0000
1.6111 0.5833 0.0000
1.6111 0.6389 0.0000
1.5556 0.7222 0.0000
1.6111 0.6944 0.0000
1.6111 0.7500 0.0000
1.5556 0.8333 0.0000
1.6111 0.8056 0.0000
1.6111 0.8611 0.0000
1.5556 0.9444 0.0000
1.6111 0.9167 0.0000
1.6111 0.9722 0.0000
1.7778 0.0556 0.0000
1.8333 0.0278 0.0000
1.8333 0.0833 0.0000
1.7778 0.1667 0.0000
1.8333 0.1389 0.0000
1.8333 0.1944 0.0000
1.7778 0.2778 0.0000
1.8333 0.2500 0.0000
1.8333 0.3056 0.0000
1.7778 0.3889 0.0000
1.8333 0.3611 0.0000
1.8333 0.4167 0.0000
1.7778 0.5000 0.0000
1.8333 0.4722 0.0000
1.8333 0.5278 0.0000
1.7778 0.6111 0.0000
1.8333 0.5833 0.0000
1.8333 0.6389 0.0000
1.7778 0.7222 0.0000
1.8333 0.6944 0.0000
1.8333 0.7500 0.0000
1.7778 0.8333 0.0000
1.8333 0.8056 0.0000
1.8333 0.8611 0.0000
1.7778 0.9444 0.0000
1.8333 0.9167 0.0000
1.8333 0.9722 0.0000
0.1111 0.1111 0.0000
0.1667 0.0833 0.0000
0.1111 0.2222 0.0000
0.1667 0.1944 0.0000
0.1111 0.3333 0.0000
0.1667 0.3056 0.0000
0.1111 0.4444 0.0000
0.1667 0.4167 0.0000
0.1111 0.5556 0.0000
0.1667 0.5278 0.0000
0.1111 0.6667 0.0000
0.1667 0.6389 0.0000
0.1111 0.7778 0.0000
0.1667 0.7500 0.0000
0.1111 0.8889 0.0000
0.1667 0.8611 0.0000
0.1111 1.0000 0.0000
0.1667 0.9722 0.0000
0.3333 0.1111 0.0000
0.3889 0.0833 0.0000
0.3333 0.2222 0.0000
0.3889 0.1944 0.0000
0.3333 0.3333 0.0000
0.3889 0.3056 0.0000
0.3333 0.4444 0.0000
0.3889 0.4167 0.0000
0.3333 0.5556 0.0000
0.3889 0.5278 0.0000
0.3333 0.6667 0.0000
0.3889 0.6389 0.0000
0.3333 0.7778 0.0000
0.3889 0.7500 0.0000
0.3333 0.8889 0.0000
0.3889 0.8611 0.0000
0.3333 1.0000 0.0000
0.3889 0.9722 0.0000
0.5556 0.1111 0.0000
[...]
         <PointData>
            <DataArray Name="fValues" NumberOfComponents="3" format="ascii" type="Float64">
       00000 -2.39017e-18        00000 
-8.38237e-19 -1.16064e-18        00000 
 1.80657e-18  1.98939e-20        00000 
-1.54117e-18  1.92646e-19        00000 
 3.97879e-19  2.08446e-19        00000 
-3.53185e-19        00000        00000 
-7.65527e-20  1.38802e-18        00000 
-4.65140e-19 -3.84944e-19        00000 
 1.80587e-18  2.09609e-19        00000 
 1.79263e-18        00000        00000 
-7.20480e-02 -4.31751e-02        00000 
-5.44642e-02 -2.91417e-02        00000 
-4.16470e-02 -1.74107e-02        00000 
-2.94999e-02 -8.47868e-03        00000 
-1.78831e-02 -2.86119e-03        00000 
-7.36539e-03 -3.09860e-04        00000 
 3.08169e-03 -2.21321e-04        00000 
 1.37889e-02 -2.42258e-03        00000 
 2.41543e-02 -7.01375e-03        00000 
 3.41195e-02 -1.40281e-02        00000 
-1.38490e-01 -8.39534e-02        00000 
-1.15190e-01 -6.94881e-02        00000 
-9.04337e-02 -5.77794e-02        00000 
-6.57066e-02 -4.83756e-02        00000 
-4.16756e-02 -4.14684e-02        00000 
-1.92931e-02 -3.67754e-02        00000 
 3.46708e-03 -3.49935e-02        00000 
 2.72046e-02 -3.51857e-02        00000 
 5.09918e-02 -3.84648e-02        00000 
 7.57656e-02 -4.55176e-02        00000 
-2.12702e-01 -1.48878e-01        00000 
-1.72633e-01 -1.35651e-01        00000 
-1.35555e-01 -1.25078e-01        00000 
-1.00850e-01 -1.16725e-01        00000 
-6.66968e-02 -1.10473e-01        00000 
-3.30002e-02 -1.05651e-01        00000 
 1.46224e-03 -1.03079e-01        00000 
 3.73283e-02 -1.02488e-01        00000 
 7.47911e-02 -1.04613e-01        00000 
 1.15067e-01 -1.10047e-01        00000 
-2.78623e-01 -2.45176e-01        00000 
-2.27785e-01 -2.32820e-01        00000 
-1.80304e-01 -2.22671e-01        00000 
-1.35048e-01 -2.14028e-01        00000 
-9.09688e-02 -2.07384e-01        00000 
-4.71257e-02 -2.02315e-01        00000 
-2.11853e-03 -1.99535e-01        00000 
 4.49114e-02 -1.98844e-01        00000 
 9.39248e-02 -2.00604e-01        00000 
 1.46630e-01 -2.05435e-01        00000 
-3.38083e-01 -3.63970e-01        00000 
-2.76927e-01 -3.52937e-01        00000 
-2.19184e-01 -3.43895e-01        00000 
-1.64774e-01 -3.36977e-01        00000 
-1.12170e-01 -3.31874e-01        00000 
-5.97367e-02 -3.27823e-01        00000 
-6.23331e-03 -3.25449e-01        00000 
 4.97630e-02 -3.24658e-01        00000 
 1.09235e-01 -3.26370e-01        00000 
 1.75050e-01 -3.30759e-01        00000 
-3.85748e-01 -5.02397e-01        00000 
-3.16057e-01 -4.93870e-01        00000 
-2.51020e-01 -4.87012e-01        00000 
-1.89417e-01 -4.81054e-01        00000 
-1.30789e-01 -4.76583e-01        00000 
-7.15858e-02 -4.73249e-01        00000 
-1.16239e-02 -4.71551e-01        00000 
 5.13006e-02 -4.71219e-01        00000 
 1.17952e-01 -4.72160e-01        00000 
 1.90219e-01 -4.74338e-01        00000 
-4.18581e-01 -6.49357e-01        00000 
-3.45200e-01 -6.43893e-01        00000 
-2.75246e-01 -6.39401e-01        00000 
-2.09094e-01 -6.35893e-01        00000 
-1.45309e-01 -6.33263e-01        00000 
-8.07908e-02 -6.31121e-01        00000 
-1.52622e-02 -6.30011e-01        00000 
 5.19519e-02 -6.30070e-01        00000 
 1.22799e-01 -6.30737e-01        00000 
 2.00529e-01 -6.32184e-01        00000 
-4.41125e-01 -8.06061e-01        00000 
-3.62400e-01 -8.02814e-01        00000 
-2.88734e-01 -8.01092e-01        00000 
-2.20594e-01 -7.99580e-01        00000 
-1.54628e-01 -7.98416e-01        00000 
-8.83590e-02 -7.97405e-01        00000 
-1.99813e-02 -7.96046e-01        00000 
 5.08415e-02 -7.95279e-01        00000 
 1.25420e-01 -7.95483e-01        00000 
 2.06134e-01 -7.96634e-01        00000 
-4.52266e-01 -9.72136e-01        00000 
-3.70545e-01 -9.68159e-01        00000 
-2.94055e-01 -9.61970e-01        00000 
-2.25742e-01 -9.56707e-01        00000 
-1.59080e-01 -9.54870e-01        00000 
-9.22633e-02 -9.55810e-01        00000 
-2.38427e-02 -9.59364e-01        00000 
 4.93302e-02 -9.64196e-01        00000 
 1.27677e-01 -9.70984e-01        00000 
 2.16827e-01 -9.76851e-01        00000 
-2.97600e-02 -1.80707e-02        00000 
-2.19520e-02 -7.83852e-03        00000 
-1.63126e-02 -1.64445e-03        00000 
-1.07878e-02  2.17186e-03        00000 
-5.69419e-03  4.04837e-03        00000 
-1.04044e-03  4.57233e-03        00000 
 3.75544e-03  3.56065e-03        00000 
 8.66358e-03  1.20221e-04        00000 
 1.33600e-02 -5.14864e-03        00000 
-9.44870e-02 -5.68214e-02        00000 
-7.51792e-02 -4.20819e-02        00000 
-5.68751e-02 -3.03143e-02        00000 
-3.82339e-02 -2.16287e-02        00000 
-2.09213e-02 -1.59412e-02        00000 
-4.66874e-03 -1.31561e-02        00000 
 1.21143e-02 -1.30821e-02        00000 
 2.93965e-02 -1.58685e-02        00000 
 4.60801e-02 -2.15561e-02        00000 
-1.60211e-01 -1.04721e-01        00000 
-1.28374e-01 -9.23266e-02        00000 
-9.83506e-02 -8.29161e-02        00000 
-6.88431e-02 -7.53089e-02        00000 
-3.98690e-02 -6.96489e-02        00000 
-1.18942e-02 -6.60024e-02        00000 
 1.71772e-02 -6.46868e-02        00000 
 4.80157e-02 -6.64588e-02        00000 
 7.98011e-02 -7.11609e-02        00000 
-2.23331e-01 -1.88385e-01        00000 
-1.79414e-01 -1.75882e-01        00000 
-1.38558e-01 -1.66137e-01        00000 
-9.89629e-02 -1.58469e-01        00000 
-5.97658e-02 -1.52942e-01        00000 
-2.08412e-02 -1.49078e-01        00000 
 1.96683e-02 -1.47419e-01        00000 
 6.27338e-02 -1.48444e-01        00000 
 1.07805e-01 -1.52098e-01        00000 
-2.81105e-01 -2.96411e-01        00000 
-2.26589e-01 -2.85357e-01        00000 
-1.75629e-01 -2.76409e-01        00000 
-1.26505e-01 -2.69287e-01        00000 
-7.78767e-02 -2.63842e-01        00000 
-2.93173e-02 -2.60218e-01        00000 
 2.11195e-02 -2.58480e-01        00000 
 7.45093e-02 -2.58607e-01        00000 
 1.31309e-01 -2.61193e-01        00000 
-3.30266e-01 -4.24752e-01        00000 
-2.66569e-01 -4.16648e-01        00000 
-2.06686e-01 -4.10125e-01        00000 
-1.49476e-01 -4.04873e-01        00000 
-9.36189e-02 -4.00879e-01        00000 
-3.76418e-02 -3.98093e-01        00000 
 2.02839e-02 -3.96931e-01        00000 
 8.21251e-02 -3.97307e-01        00000 
 1.48428e-01 -3.99235e-01        00000 
-3.67194e-01 -5.71421e-01        00000 
-2.97553e-01 -5.64916e-01        00000 
-2.32078e-01 -5.59596e-01        00000 
-1.69361e-01 -5.54928e-01        00000 
-1.07924e-01 -5.51327e-01        00000 
-4.54771e-02 -5.49303e-01        00000 
 1.80494e-02 -5.48851e-01        00000 
 8.52855e-02 -5.49054e-01        00000 
 1.57287e-01 -5.49766e-01        00000 
-3.92794e-01 -7.24629e-01        00000 
-3.18859e-01 -7.21342e-01        00000 
-2.49410e-01 -7.19087e-01        00000 
-1.83210e-01 -7.16787e-01        00000 
-1.17967e-01 -7.15086e-01        00000 
-5.13926e-02 -7.13742e-01        00000 
 1.67247e-02 -7.12869e-01        00000 
 8.75298e-02 -7.12657e-01        00000 
 1.62963e-01 -7.13306e-01        00000 
-4.07484e-01 -8.85679e-01        00000 
-3.28834e-01 -8.82840e-01        00000 
-2.57529e-01 -8.80694e-01        00000 
-1.90847e-01 -8.79015e-01        00000 
-1.24837e-01 -8.78447e-01        00000 
-5.79979e-02 -8.78274e-01        00000 
 1.21125e-02 -8.78294e-01        00000 
 8.65486e-02 -8.78968e-01        00000 
 1.67523e-01 -8.80270e-01        00000 
-3.41469e-18  2.11025e-19        00000 
-1.56122e-02 -9.96361e-03        00000 
-1.26716e-02 -6.38865e-03        00000 
 4.57782e-18  1.46036e-18        00000 
-1.09051e-02 -3.65255e-03        00000 
-9.46124e-03 -1.72286e-03        00000 
-9.75782e-19  3.04932e-20        00000 
-8.38773e-03 -2.41824e-04        00000 
-7.16689e-03  1.15878e-03        00000 
-5.54204e-19  8.72317e-20        00000 
-5.75653e-03  1.96124e-03        00000 
-4.49777e-03  2.61082e-03        00000 
-1.34170e-18  2.43945e-19        00000 
-3.28590e-03  3.01215e-03        00000 
-2.19514e-03  3.25535e-03        00000 
 3.17691e-19 -2.31337e-19        00000 
-1.10734e-03  3.45342e-03        00000 
-3.81765e-05  3.32227e-03        00000 
 1.21973e-19  2.43945e-19        00000 
 1.08705e-03  2.99619e-03        00000 
 2.25570e-03  2.30489e-03        00000 
 2.43945e-19 -2.13452e-19        00000 
 3.42921e-03  1.50305e-03        00000 
 4.66980e-03  3.46911e-04        00000 
-1.09272e-18  8.92856e-20        00000 
 5.63447e-03 -1.31811e-03        00000 
 6.61772e-03 -3.28152e-03        00000 
-6.28386e-02 -3.59832e-02        00000 
-8.35330e-02 -5.01759e-02        00000 
-7.38229e-02 -4.27846e-02        00000 
-4.81056e-02 -2.28953e-02        00000 
-6.53284e-02 -3.56479e-02        00000 
-5.76867e-02 -2.95018e-02        00000 
-3.57097e-02 -1.25253e-02        00000 
-5.00373e-02 -2.38192e-02        00000 
-4.24224e-02 -1.88747e-02        00000 
-2.40052e-02 -5.30506e-03        00000 
-3.47011e-02 -1.47074e-02        00000 
-2.72520e-02 -1.15772e-02        00000 
-1.26693e-02 -1.33252e-03        00000 
-1.98286e-02 -8.96766e-03        00000 
-1.35115e-02 -7.40904e-03        00000 
-2.27439e-03 -6.59686e-05        00000 
-6.73828e-03 -6.18215e-03        00000 
-1.07727e-04 -5.88054e-03        00000 
 8.27713e-03 -9.99538e-04        00000 
 6.92556e-03 -5.74950e-03        00000 
 1.36900e-02 -6.73927e-03        00000 
 1.88655e-02 -4.45515e-03        00000 
 2.07343e-02 -8.17426e-03        00000 
 2.75450e-02 -1.04929e-02        00000 
 2.93264e-02 -1.03453e-02        00000 
 3.44638e-02 -1.36504e-02        00000 
 4.07068e-02 -1.73963e-02        00000 
-1.27292e-01 -7.66081e-02        00000 
-1.50833e-01 -9.36353e-02        00000 
-1.36767e-01 -8.61172e-02        00000 
-1.02894e-01 -6.33717e-02        00000 
-1.22584e-01 -7.97867e-02        00000 
-1.08728e-01 -7.42608e-02        00000 
-7.81292e-02 -5.29125e-02        00000 
-9.50532e-02 -6.94151e-02        00000 
-8.14605e-02 -6.51461e-02        00000 
-5.37081e-02 -4.47191e-02        00000 
-6.79730e-02 -6.12990e-02        00000 
-5.44899e-02 -5.77583e-02        00000 
-3.03511e-02 -3.89656e-02        00000 
-4.11905e-02 -5.46780e-02        00000 
-2.87253e-02 -5.23628e-02        00000 
-7.95860e-03 -3.56560e-02        00000 
-1.62043e-02 -5.07062e-02        00000 
-3.49811e-03 -4.96357e-02        00000 
 1.52476e-02 -3.48785e-02        00000 
 9.62117e-03 -4.88876e-02        00000 
 2.30033e-02 -4.88650e-02        00000 
 3.90753e-02 -3.65216e-02        00000 
 3.66735e-02 -4.97175e-02        00000 
 5.06630e-02 -5.13718e-02        00000 
 6.30112e-02 -4.15744e-02        00000 
 6.46444e-02 -5.41517e-02        00000 
 7.86485e-02 -5.76689e-02        00000 
-1.92378e-01 -1.41727e-01        00000 
-2.18883e-01 -1.67636e-01        00000 
-1.97143e-01 -1.61219e-01        00000 
-1.53896e-01 -1.30153e-01        00000 
-1.76373e-01 -1.54883e-01        00000 
-1.56919e-01 -1.49665e-01        00000 
-1.18219e-01 -1.20658e-01        00000 
-1.37727e-01 -1.44675e-01        00000 
-1.19160e-01 -1.40605e-01        00000 
-8.39965e-02 -1.13473e-01        00000 
-1.00715e-01 -1.36954e-01        00000 
-8.23715e-02 -1.33780e-01        00000 
-4.98298e-02 -1.07995e-01        00000 
-6.39078e-02 -1.30769e-01        00000 
-4.59048e-02 -1.28581e-01        00000 
-1.59488e-02 -1.04197e-01        00000 
-2.77692e-02 -1.26658e-01        00000 
-9.41252e-03 -1.25430e-01        00000 
 1.90989e-02 -1.02519e-01        00000 
 9.63354e-03 -1.24268e-01        00000 
 2.89448e-02 -1.23919e-01        00000 
 5.56694e-02 -1.03226e-01        00000 
 4.89031e-02 -1.24203e-01        00000 
 6.94642e-02 -1.25526e-01        00000 
 9.45437e-02 -1.06852e-01        00000 
 9.05561e-02 -1.27688e-01        00000 
 1.12126e-01 -1.30345e-01        00000 
-2.53023e-01 -2.38779e-01        00000 
-2.80865e-01 -2.70123e-01        00000 
-2.53708e-01 -2.63704e-01        00000 
-2.03871e-01 -2.27668e-01        00000 
-2.27966e-01 -2.58226e-01        00000 
-2.03026e-01 -2.53271e-01        00000 
-1.57794e-01 -2.18305e-01        00000 
-1.78954e-01 -2.48710e-01        00000 
-1.55188e-01 -2.44604e-01        00000 
-1.13294e-01 -2.10780e-01        00000 
-1.31879e-01 -2.41051e-01        00000 
-1.08496e-01 -2.37633e-01        00000 
-6.91828e-02 -2.04899e-01        00000 
-8.52086e-02 -2.34615e-01        00000 
-6.22556e-02 -2.32195e-01        00000 
-2.49983e-02 -2.00869e-01        00000 
-3.90695e-02 -2.30267e-01        00000 
-1.55999e-02 -2.28955e-01        00000 
 2.09361e-02 -1.99033e-01        00000 
 8.75495e-03 -2.27816e-01        00000 
 3.34975e-02 -2.27305e-01        00000 
 6.89227e-02 -1.99542e-01        00000 
 5.89613e-02 -2.27357e-01        00000 
 8.49771e-02 -2.28235e-01        00000 
 1.19652e-01 -2.02728e-01        00000 
 1.11859e-01 -2.30074e-01        00000 
 1.39633e-01 -2.32560e-01        00000 
-3.07320e-01 -3.58480e-01        00000 
-3.35366e-01 -3.93650e-01        00000 
-3.03596e-01 -3.88230e-01        00000 
-2.47845e-01 -3.48242e-01        00000 
-2.72659e-01 -3.83633e-01        00000 
-2.42723e-01 -3.79456e-01        00000 
-1.91886e-01 -3.40381e-01        00000 
-2.13809e-01 -3.75905e-01        00000 
-1.85504e-01 -3.72772e-01        00000 
-1.38544e-01 -3.34541e-01        00000 
-1.57977e-01 -3.70171e-01        00000 
-1.30692e-01 -3.67654e-01        00000 
-8.60483e-02 -3.29903e-01        00000 
-1.03495e-01 -3.65501e-01        00000 
-7.63837e-02 -3.63670e-01        00000 
-3.33215e-02 -3.26551e-01        00000 
-4.93005e-02 -3.62323e-01        00000 
-2.19554e-02 -3.61373e-01        00000 
 2.11929e-02 -3.24803e-01        00000 
 6.46554e-03 -3.60542e-01        00000 
 3.52803e-02 -3.60189e-01        00000 
 7.86384e-02 -3.25239e-01        00000 
 6.52550e-02 -3.60262e-01        00000 
 9.61053e-02 -3.61189e-01        00000 
 1.40939e-01 -3.28400e-01        00000 
 1.28580e-01 -3.62835e-01        00000 
 1.62077e-01 -3.64564e-01        00000 
-3.50122e-01 -4.97936e-01        00000 
-3.76830e-01 -5.36669e-01        00000 
-3.41514e-01 -5.32662e-01        00000 
-2.83415e-01 -4.90442e-01        00000 
-3.07400e-01 -5.29171e-01        00000 
-2.74554e-01 -5.26079e-01        00000 
-2.20009e-01 -4.83921e-01        00000 
-2.42109e-01 -5.22949e-01        00000 
-2.10699e-01 -5.20236e-01        00000 
-1.60016e-01 -4.78817e-01        00000 
-1.80074e-01 -5.17807e-01        00000 
-1.50094e-01 -5.15545e-01        00000 
-1.01516e-01 -4.74856e-01        00000 
-1.20122e-01 -5.13489e-01        00000 
-8.97558e-02 -5.11892e-01        00000 
-4.19270e-02 -4.72244e-01        00000 
-5.92610e-02 -5.10859e-01        00000 
-2.86848e-02 -5.10261e-01        00000 
 1.91740e-02 -4.71196e-01        00000 
 2.60317e-03 -5.09793e-01        00000 
 3.46057e-02 -5.09670e-01        00000 
 8.38304e-02 -4.71684e-01        00000 
 6.75724e-02 -5.09579e-01        00000 
 1.01771e-01 -5.10054e-01        00000 
 1.53279e-01 -4.72970e-01        00000 
 1.37233e-01 -5.10680e-01        00000 
 1.73947e-01 -5.11655e-01        00000 
-3.81466e-01 -6.46538e-01        00000 
-4.06335e-01 -6.86545e-01        00000 
-3.68964e-01 -6.84257e-01        00000 
-3.10000e-01 -6.41592e-01        00000 
-3.32672e-01 -6.82206e-01        00000 
-2.97547e-01 -6.80598e-01        00000 
-2.42188e-01 -6.37633e-01        00000 
-2.62982e-01 -6.78838e-01        00000 
-2.29727e-01 -6.77648e-01        00000 
-1.77336e-01 -6.34502e-01        00000 
-1.96801e-01 -6.76107e-01        00000 
-1.64702e-01 -6.75029e-01        00000 
-1.13555e-01 -6.32128e-01        00000 
-1.32191e-01 -6.73748e-01        00000 
-9.97325e-02 -6.72822e-01        00000 
-4.83277e-02 -6.30346e-01        00000 
-6.65960e-02 -6.72163e-01        00000 
-3.35028e-02 -6.71848e-01        00000 
 1.77765e-02 -6.29969e-01        00000 
 3.70881e-04 -6.71370e-01        00000 
 3.43071e-02 -6.71271e-01        00000 
 8.66080e-02 -6.30216e-01        00000 
 6.92318e-02 -6.71174e-01        00000 
 1.04955e-01 -6.71635e-01        00000 
 1.60601e-01 -6.31295e-01        00000 
 1.42505e-01 -6.72091e-01        00000 
 1.81622e-01 -6.72471e-01        00000 
-4.01337e-01 -8.04352e-01        00000 
-4.24850e-01 -8.45406e-01        00000 
-3.84713e-01 -8.44003e-01        00000 
-3.24910e-01 -8.01797e-01        00000 
-3.45680e-01 -8.42571e-01        00000 
-3.08671e-01 -8.41622e-01        00000 
-2.54480e-01 -8.00265e-01        00000 
-2.73177e-01 -8.40668e-01        00000 
-2.39264e-01 -8.40028e-01        00000 
-1.87900e-01 -7.98814e-01        00000 
-2.06029e-01 -8.39115e-01        00000 
-1.72965e-01 -8.38780e-01        00000 
-1.22051e-01 -7.97686e-01        00000 
-1.39950e-01 -8.38099e-01        00000 
-1.07121e-01 -8.37894e-01        00000 
-5.48086e-02 -7.96686e-01        00000 
-7.35289e-02 -8.37580e-01        00000 
-3.94580e-02 -8.37043e-01        00000 
 1.45580e-02 -7.95513e-01        00000 
-4.61759e-03 -8.36412e-01        00000 
 3.13527e-02 -8.36107e-01        00000 
 8.71486e-02 -7.95353e-01        00000 
 6.81242e-02 -8.36029e-01        00000 
 1.06061e-01 -8.36564e-01        00000 
 1.65109e-01 -7.95689e-01        00000 
 1.45525e-01 -8.36893e-01        00000 
 1.87628e-01 -8.37965e-01        00000 
-2.51980e-02 -1.22857e-02        00000 
-4.29635e-02 -2.33340e-02        00000 
-1.90051e-02 -4.47751e-03        00000 
-3.23123e-02 -1.19105e-02        00000 
-1.35177e-02  3.26036e-04        00000 
-2.34442e-02 -4.06998e-03        00000 
-8.17931e-03  3.25313e-03        00000 
-1.49395e-02  1.06591e-03        00000 
-3.46994e-03  4.47294e-03        00000 
-7.31107e-03  3.48757e-03        00000 
 1.36563e-03  4.30556e-03        00000 
 3.33251e-04  3.80686e-03        00000 
 6.13824e-03  2.04624e-03        00000 
 8.13853e-03  1.68249e-03        00000 
 1.11102e-02 -2.13506e-03        00000 
 1.54774e-02 -2.62331e-03        00000 
 1.61027e-02 -9.35453e-03        00000 
 2.33699e-02 -9.31863e-03        00000 
-8.45166e-02 -4.91092e-02        00000 
-1.05387e-01 -6.23658e-02        00000 
-6.60016e-02 -3.56886e-02        00000 
-8.37249e-02 -4.82815e-02        00000 
-4.75060e-02 -2.55255e-02        00000 
-6.20248e-02 -3.76082e-02        00000 
-2.92275e-02 -1.83499e-02        00000 
-4.05443e-02 -2.94991e-02        00000 
-1.30360e-02 -1.41538e-02        00000 
-2.07236e-02 -2.44183e-02        00000 
 3.59459e-03 -1.27180e-02        00000 
-1.27247e-03 -2.21529e-02        00000 
 2.06255e-02 -1.42103e-02        00000 
 1.89995e-02 -2.27321e-02        00000 
 3.77236e-02 -1.83775e-02        00000 
 3.93765e-02 -2.58196e-02        00000 
 5.35041e-02 -2.56767e-02        00000 
 5.95939e-02 -3.24498e-02        00000 
-1.44039e-01 -9.82270e-02        00000 
-1.67486e-01 -1.19139e-01        00000 
-1.13188e-01 -8.74116e-02        00000 
-1.32925e-01 -1.07366e-01        00000 
-8.36757e-02 -7.91265e-02        00000 
-1.00454e-01 -9.84091e-02        00000 
-5.42266e-02 -7.23463e-02        00000 
-6.86492e-02 -9.14244e-02        00000 
-2.62019e-02 -6.75955e-02        00000 
-3.74580e-02 -8.62407e-02        00000 
 2.40781e-03 -6.50935e-02        00000 
-6.03236e-03 -8.30451e-02        00000 
 3.22813e-02 -6.53036e-02        00000 
 2.65407e-02 -8.25931e-02        00000 
 6.37737e-02 -6.84105e-02        00000 
 6.05733e-02 -8.45310e-02        00000 
 9.54776e-02 -7.54111e-02        00000 
 9.66086e-02 -8.96202e-02        00000 
-2.00736e-01 -1.81832e-01        00000 
-2.26298e-01 -2.09880e-01        00000 
-1.58880e-01 -1.70757e-01        00000 
-1.80624e-01 -1.98061e-01        00000 
-1.18739e-01 -1.62098e-01        00000 
-1.37481e-01 -1.88711e-01        00000 
-7.94148e-02 -1.55422e-01        00000 
-9.54945e-02 -1.81362e-01        00000 
-4.07152e-02 -1.50654e-01        00000 
-5.41637e-02 -1.76060e-01        00000 
-9.42640e-04 -1.47857e-01        00000 
-1.20655e-02 -1.72801e-01        00000 
 4.07799e-02 -1.47554e-01        00000 
 3.17669e-02 -1.72120e-01        00000 
 8.49224e-02 -1.49938e-01        00000 
 7.77150e-02 -1.73771e-01        00000 
 1.30847e-01 -1.55021e-01        00000 
 1.26306e-01 -1.77985e-01        00000 
-2.53048e-01 -2.90527e-01        00000 