<?xml version="1.0" encoding="utf-8"?>
<VTKFile byte_order="LittleEndian" type="UnstructuredGrid" version="0.1">
   <UnstructuredGrid>
      <Piece NumberOfCells="1296" NumberOfPoints="685">
         <Points>
            <DataArray Name="Points" NumberOfComponents="3" format="ascii" type="Float32">
0.0000 0.0000 0.0000
0.0000 0.1111 0.0000
0.0000 0.2222 0.0000
0.0000 0.3333 0.0000
0.0000 0.4444 0.0000
0.0000 0.5556 0.0000
0.0000 0.6667 0.0000
0.0000 0.7778 0.0000
0.0000 0.8889 0.0000
0.0000 1.0000 0.0000
0.2222 0.0000 0.0000
0.2222 0.1111 0.0000
0.2222 0.2222 0.0000
0.2222 0.3333 0.0000
0.2222 0.4444 0.0000
0.2222 0.5556 0.0000
0.2222 0.6667 0.0000
0.2222 0.7778 0.0000
0.2222 0.8889 0.0000
0.2222 1.0000 0.0000
0.4444 0.0000 0.0000
0.4444 0.1111 0.0000
0.4444 0.2222 0.0000
0.4444 0.3333 0.0000
0.4444 0.4444 0.0000
0.4444 0.5556 0.0000
0.4444 0.6667 0.0000
0.4444 0.7778 0.0000
0.4444 0.8889 0.0000
0.4444 1.0000 0.0000
0.6667 0.0000 0.0000
0.6667 0.1111 0.0000
0.6667 0.2222 0.0000
0.6667 0.3333 0.0000
0.6667 0.4444 0.0000
0.6667 0.5556 0.0000
0.6667 0.6667 0.0000
0.6667 0.7778 0.0000
0.6667 0.8889 0.0000
0.6667 1.0000 0.0000
0.8889 0.0000 0.0000
0.8889 0.1111 0.0000
0.8889 0.2222 0.0000
0.8889 0.3333 0.0000
0.8889 0.4444 0.0000
0.8889 0.5556 0.0000
0.8889 0.6667 0.0000
0.8889 0.7778 0.0000
0.8889 0.8889 0.0000
0.8889 1.0000 0.0000
1.1111 0.0000 0.0000
1.1111 0.1111 0.0000
1.1111 0.2222 0.0000
1.1111 0.3333 0.0000
1.1111 0.4444 0.0000
1.1111 0.5556 0.0000
1.1111 0.6667 0.0000
1.1111 0.7778 0.0000
1.1111 0.8889 0.0000
1.1111 1.0000 0.0000
1.3333 0.0000 0.0000
1.3333 0.1111 0.0000
1.3333 0.2222 0.0000
1.3333 0.3333 0.0000
1.3333 0.4444 0.0000
1.3333 0.5556 0.0000
1.3333 0.6667 0.0000
1.3333 0.7778 0.0000
1.3333 0.8889 0.0000
1.3333 1.0000 0.0000
1.5556 0.0000 0.0000
1.5556 0.1111 0.0000
1.5556 0.2222 0.0000
1.5556 0.3333 0.0000
1.5556 0.4444 0.0000
1.5556 0.5556 0.0000
1.5556 0.6667 0.0000
1.5556 0.7778 0.0000
1.5556 0.8889 0.0000
1.5556 1.0000 0.0000
1.7778 0.0000 0.0000
1.7778 0.1111 0.0000
1.7778 0.2222 0.0000
1.7778 0.3333 0.0000
1.7778 0.4444 0.0000
1.7778 0.5556 0.0000
1.7778 0.6667 0.0000
1.7778 0.7778 0.0000
1.7778 0.8889 0.0000
1.7778 1.0000 0.0000
2.0000 0.0000 0.0000
2.0000 0.1111 0.0000
2.0000 0.2222 0.0000
2.0000 0.3333 0.0000
2.0000 0.4444 0.0000
2.0000 0.5556 0.0000
2.0000 0.6667 0.0000
2.0000 0.7778 0.0000
2.0000 0.8889 0.0000
2.0000 1.0000 0.0000
0.1111 0.0556 0.0000
0.1111 0.1667 0.0000
0.1111 0.2778 0.0000
0.1111 0.3889 0.0000
0.1111 0.5000 0.0000
0.1111 0.6111 0.0000
0.1111 0.7222 0.0000
0.1111 0.8333 0.0000
0.1111 0.9444 0.0000
0.3333 0.0556 0.0000
0.3333 0.1667 0.0000
0.3333 0.2778 0.0000
0.3333 0.3889 0.0000
0.3333 0.5000 0.0000
0.3333 0.6111 0.0000
0.3333 0.7222 0.0000
0.3333 0.8333 0.0000
0.3333 0.9444 0.0000
0.5556 0.0556 0.0000
0.5556 0.1667 0.0000
0.5556 0.2778 0.0000
0.5556 0.3889 0.0000
0.5556 0.5000 0.0000
0.5556 0.6111 0.0000
0.5556 0.7222 0.0000
0.5556 0.8333 0.0000
0.5556 0.9444 0.0000
0.7778 0.0556 0.0000
0.7778 0.1667 0.0000
0.7778 0.2778 0.0000
0.7778 0.3889 0.0000
0.7778 0.5000 0.0000
0.7778 0.6111 0.0000
0.7778 0.7222 0.0000
0.7778 0.8333 0.0000
0.7778 0.9444 0.0000
1.0000 0.0556 0.0000
1.0000 0.1667 0.0000
1.0000 0.2778 0.0000
1.0000 0.3889 0.0000
1.0000 0.5000 0.0000
1.0000 0.6111 0.0000
1.0000 0.7222 0.0000
1.0000 0.8333 0.0000
1.0000 0.9444 0.0000
1.2222 0.0556 0.0000
1.2222 0.1667 0.0000
1.2222 0.2778 0.0000
1.2222 0.3889 0.0000
1.2222 0.5000 0.0000
1.2222 0.6111 0.0000
1.2222 0.7222 0.0000
1.2222 0.8333 0.0000
1.2222 0.9444 0.0000
1.4444 0.0556 0.0000
1.4444 0.1667 0.0000
1.4444 0.2778 0.0000
1.4444 0.3889 0.0000
1.4444 0.5000 0.0000
1.4444 0.6111 0.0000
1.4444 0.7222 0.0000
1.4444 0.8333 0.0000
1.4444 0.9444 0.0000
1.6667 0.0556 0.0000
1.6667 0.1667 0.0000
1.6667 0.2778 0.0000
1.6667 0.3889 0.0000
1.6667 0.5000 0.0000
1.6667 0.6111 0.0000
1.6667 0.7222 0.0000
1.6667 0.8333 0.0000
1.6667 0.9444 0.0000
1.8889 0.0556 0.0000
1.8889 0.1667 0.0000
1.8889 0.2778 0.0000
1.8889 0.3889 0.0000
1.8889 0.5000 0.0000
1.8889 0.6111 0.0000
1.8889 0.7222 0.0000
1.8889 0.8333 0.0000
1.8889 0.9444 0.0000
0.0000 0.0556 0.0000
0.0556 0.0278 0.0000
0.0556 0.0833 0.0000
0.0000 0.1667 0.0000
0.0556 0.1389 0.0000
0.0556 0.1944 0.0000
0.0000 0.2778 0.0000
0.0556 0.2500 0.0000
0.0556 0.3056 0.0000
0.0000 0.3889 0.0000
0.0556 0.3611 0.0000
0.0556 0.4167 0.0000
0.0000 0.5000 0.0000
0.0556 0.4722 0.0000
0.0556 0.5278 0.0000
0.0000 0.6111 0.0000
0.0556 0.5833 0.0000
0.0556 0.6389 0.0000
0.0000 0.7222 0.0000
0.0556 0.6944 0.0000
0.0556 0.7500 0.0000
0.0000 0.8333 0.0000
0.0556 0.8056 0.0000
0.0556 0.8611 0.0000
0.0000 0.9444 0.0000
0.0556 0.9167 0.0000
0.0556 0.9722 0.0000
0.2222 0.0556 0.0000
0.2778 0.0278 0.0000
0.2778 0.0833 0.0000
0.2222 0.1667 0.0000
0.2778 0.1389 0.0000
0.2778 0.1944 0.0000
0.2222 0.2778 0.0000
0.2778 0.2500 0.0000
0.2778 0.3056 0.0000
0.2222 0.3889 0.0000
0.2778 0.3611 0.0000
0.2778 0.4167 0.0000
0.2222 0.5000 0.0000
0.2778 0.4722 0.0000
0.2778 0.5278 0.0000
0.2222 0.6111 0.0000
0.2778 0.5833 0.0000
0.2778 0.6389 0.0000
0.2222 0.7222 0.0000
0.2778 0.6944 0.0000
0.2778 0.7500 0.0000
0.2222 0.8333 0.0000
0.2778 0.8056 0.0000
0.2778 0.8611 0.0000
0.2222 0.9444 0.0000
0.2778 0.9167 0.0000
0.2778 0.9722 0.0000
0.4444 0.0556 0.0000
0.5000 0.0278 0.0000
0.5000 0.0833 0.0000
0.4444 0.1667 0.0000
0.5000 0.1389 0.0000
0.5000 0.1944 0.0000
0.4444 0.2778 0.0000
0.5000 0.2500 0.0000
0.5000 0.3056 0.0000
0.4444 0.3889 0.0000
0.5000 0.3611 0.0000
0.5000 0.4167 0.0000
0.4444 0.5000 0.0000
0.5000 0.4722 0.0000
0.5000 0.5278 0.0000
0.4444 0.6111 0.0000
0.5000 0.5833 0.0000
0.5000 0.6389 0.0000
0.4444 0.7222 0.0000
0.5000 0.6944 0.0000
0.5000 0.7500 0.0000
0.4444 0.8333 0.0000
0.5000 0.8056 0.0000
0.5000 0.8611 0.0000
0.4444 0.9444 0.0000
0.5000 0.9167 0.0000
0.5000 0.9722 0.0000
0.6667 0.0556 0.0000
0.7222 0.0278 0.0000
0.7222 0.0833 0.0000
0.6667 0.1667 0.0000
0.7222 0.1389 0.0000
0.7222 0.1944 0.0000
0.6667 0.2778 0.0000
0.7222 0.2500 0.0000
0.7222 0.3056 0.0000
0.6667 0.3889 0.0000
0.7222 0.3611 0.0000
0.7222 0.4167 0.0000
0.6667 0.5000 0.0000
0.7222 0.4722 0.0000
0.7222 0.5278 0.0000
0.6667 0.6111 0.0000
0.7222 0.5833 0.0000
0.7222 0.6389 0.0000
0.6667 0.7222 0.0000
0.7222 0.6944 0.0000
0.7222 0.7500 0.0000
0.6667 0.8333 0.0000
0.7222 0.8056 0.0000
0.7222 0.8611 0.0000
0.6667 0.9444 0.0000
0.7222 0.9167 0.0000
0.7222 0.9722 0.0000
0.8889 0.0556 0.0000
0.9444 0.0278 0.0000
0.9444 0.0833 0.0000
0.8889 0.1667 0.0000
0.9444 0.1389 0.0000
0.9444 0.1944 0.0000
0.8889 0.2778 0.0000
0.9444 0.2500 0.0000
0.9444 0.3056 0.0000
0.8889 0.3889 0.0000
0.9444 0.3611 0.0000
0.9444 0.4167 0.0000
0.8889 0.5000 0.0000
0.9444 0.4722 0.0000
0.9444 0.5278 0.0000
0.8889 0.6111 0.0000
0.9444 0.5833 0.0000
0.9444 0.6389 0.0000
0.8889 0.7222 0.0000
0.9444 0.6944 0.0000
0.9444 0.7500 0.0000
0.8889 0.8333 0.0000
0.9444 0.8056 0.0000
0.9444 0.8611 0.0000
0.8889 0.9444 0.0000
0.9444 0.9167 0.0000
0.9444 0.9722 0.0000
1.1111 0.0556 0.0000
1.1667 0.0278 0.0000
1.1667 0.0833 0.0000
1.1111 0.1667 0.0000
1.1667 0.1389 0.0000
1.1667 0.1944 0.0000
1.1111 0.2778 0.0000
1.1667 0.2500 0.0000
1.1667 0.3056 0.0000
1.1111 0.3889 0.0000
1.1667 0.3611 0.0000
1.1667 0.4167 0.0000
1.1111 0.5000 0.0000
1.1667 0.4722 0.0000
1.1667 0.5278 0.0000
1.1111 0.6111 0.0000
1.1667 0.5833 0.0000
1.1667 0.6389 0.0000
1.1111 0.7222 0.0000
1.1667 0.6944 0.0000
1.1667 0.7500 0.0000
1.1111 0.8333 0.0000
1.1667 0.8056 0.0000
1.1667 0.8611 0.0000
1.1111 0.9444 0.0000
1.1667 0.9167 0.0000
1.1667 0.9722 0.0000
1.3333 0.0556 0.0000
1.3889 0.0278 0.0000
1.3889 0.0833 0.0000
1.3333 0.1667 0.0000
1.3889 0.1389 0.0000
1.3889 0.1944 0.0000
1.3333 0.2778 0.0000
1.3889 0.2500 0.0000
1.3889 0.3056 0.0000
1.3333 0.3889 0.0000
1.3889 0.3611 0.0000
1.3889 0.4167 0.0000
1.3333 0.5000 0.0000
1.3889 0.4722 0.0000
1.3889 0.5278 0.0000
1.3333 0.6111 0.0000
1.3889 0.5833 0.0000
1.3889 0.6389 0.0000
1.3333 0.7222 0.0000
1.3889 0.6944 0.0000
1.3889 0.7500 0.0000
1.3333 0.8333 0.0000
1.3889 0.8056 0.0000
1.3889 0.8611 0.0000
1.3333 0.9444 0.0000
1.3889 0.9167 0.0000
1.3889 0.9722 0.0000
1.5556 0.0556 0.0000
1.6111 0.0278 0.0000
1.6111 0.0833 0.0000
1.5556 0.1667 0.0000
1.6111 0.1389 0.0000
1.6111 0.1944 0.0000
1.5556 0.2778 0.0000
1.6111 0.2500 0.0000
1.6111 0.3056 0.0000
1.5556 0.3889 0.0000
1.6111 0.3611 0.0000
1.6111 0.4167 0.0000
1.5556 0.5000 0.0000
1.6111 0.4722 0.0000
1.6111 0.5278 0.0000
1.5556 0.6111 0.0000
1.6111 0.5833 0.0000
1.6111 0.6389 0.0000
1.5556 0.7222 0.0000
1.6111 0.6944 0.0000
1.6111 0.7500 0.0000
1.5556 0.8333 0.0000
1.6111 0.8056 0.0000
1.6111 0.8611 0.0000
1.5556 0.9444 0.0000
1.6111 0.9167 0.0000
1.6111 0.9722 0.0000
1.7778 0.0556 0.0000
1.8333 0.0278 0.0000
1.8333 0.0833 0.0000
1.7778 0.1667 0.0000
1.8333 0.1389 0.0000
1.8333 0.1944 0.0000
1.7778 0.2778 0.0000
1.8333 0.2500 0.0000
1.8333 0.3056 0.0000
1.7778 0.3889 0.0000
1.8333 0.3611 0.0000
1.8333 0.4167 0.0000
1.7778 0.5000 0.0000
1.8333 0.4722 0.0000
1.8333 0.5278 0.0000
1.7778 0.6111 0.0000
1.8333 0.5833 0.0000
1.8333 0.6389 0.0000
1.7778 0.7222 0.0000
1.8333 0.6944 0.0000
1.8333 0.7500 0.0000
1.7778 0.8333 0.0000
1.8333 0.8056 0.0000
1.8333 0.8611 0.0000
1.7778 0.9444 0.0000
1.8333 0.9167 0.0000
1.8333 0.9722 0.0000
0.1111 0.1111 0.0000
0.1667 0.0833 0.0000
0.1111 0.2222 0.0000
0.1667 0.1944 0.0000
0.1111 0.3333 0.0000
0.1667 0.3056 0.0000
0.1111 0.4444 0.0000
0.1667 0.4167 0.0000
0.1111 0.5556 0.0000
0.1667 0.5278 0.0000
0.1111 0.6667 0.0000
0.1667 0.6389 0.0000
0.1111 0.7778 0.0000
0.1667 0.7500 0.0000
0.1111 0.8889 0.0000
0.1667 0.8611 0.0000
0.1111 1.0000 0.0000
0.1667 0.9722 0.0000
0.3333 0.1111 0.0000
0.3889 0.0833 0.0000
0.3333 0.2222 0.0000
0.3889 0.1944 0.0000
0.3333 0.3333 0.0000
0.3889 0.3056 0.0000
0.3333 0.4444 0.0000
0.3889 0.4167 0.0000
0.3333 0.5556 0.0000
0.3889 0.5278 0.0000
0.3333 0.6667 0.0000
0.3889 0.6389 0.0000
0.3333 0.7778 0.0000
0.3889 0.7500 0.0000
0.3333 0.8889 0.0000
0.3889 0.8611 0.0000
0.3333 1.0000 0.0000
0.3889 0.9722 0.0000
0.5556 0.1111 0.0000
[...]
         <PointData>
            <DataArray Name="fValues" NumberOfComponents="3" format="ascii" type="Float64">
-1.22377e-15  6.11883e-16        00000 
 3.30136e-17  3.30136e-16        00000 
 6.03823e-16  3.13564e-16        00000 
-1.31513e-16 -3.94539e-16        00000 
-2.17510e-16 -1.34606e-16        00000 
 1.31513e-16  6.57565e-17        00000 
-6.14226e-16 -6.35371e-16        00000 
 1.37964e-15  6.56971e-17        00000 
-2.64172e-16 -1.45295e-15        00000 
 2.44753e-15 -2.44753e-15        00000 
-4.34131e+01 -3.26368e+01        00000 
-2.96481e+01 -2.49912e+01        00000 
-1.93837e+01 -1.95701e+01        00000 
-1.11084e+01 -1.63942e+01        00000 
-3.69326e+00 -1.49389e+01        00000 
 3.53275e+00 -1.48793e+01        00000 
 1.10299e+01 -1.62807e+01        00000 
 1.93598e+01 -1.93532e+01        00000 
 2.95515e+01 -2.46894e+01        00000 
 4.32060e+01 -3.22768e+01        00000 
-7.92309e+01 -6.93531e+01        00000 
-5.85335e+01 -6.26700e+01        00000 
-4.01264e+01 -5.74993e+01        00000 
-2.34728e+01 -5.39994e+01        00000 
-7.85582e+00 -5.22113e+01        00000 
 7.37448e+00 -5.21640e+01        00000 
 2.29800e+01 -5.38253e+01        00000 
 3.97128e+01 -5.72615e+01        00000 
 5.82380e+01 -6.23935e+01        00000 
 7.90550e+01 -6.90581e+01        00000 
-1.11368e+02 -1.20308e+02        00000 
-8.37090e+01 -1.14444e+02        00000 
-5.82554e+01 -1.09951e+02        00000 
-3.44992e+01 -1.06956e+02        00000 
-1.16302e+01 -1.05434e+02        00000 
 1.08605e+01 -1.05407e+02        00000 
 3.36312e+01 -1.06917e+02        00000 
 5.75072e+01 -1.09938e+02        00000 
 8.30150e+01 -1.14366e+02        00000 
 1.10614e+02 -1.20071e+02        00000 
-1.39134e+02 -1.84608e+02        00000 
-1.05273e+02 -1.79626e+02        00000 
-7.36833e+01 -1.75853e+02        00000 
-4.38279e+01 -1.73356e+02        00000 
-1.49108e+01 -1.72100e+02        00000 
 1.36918e+01 -1.72078e+02        00000 
 4.26376e+01 -1.73273e+02        00000 
 7.25423e+01 -1.75736e+02        00000 
 1.04010e+02 -1.79403e+02        00000 
 1.37699e+02 -1.84228e+02        00000 
-1.61910e+02 -2.59912e+02        00000 
-1.23054e+02 -2.55928e+02        00000 
-8.63731e+01 -2.52854e+02        00000 
-5.14483e+01 -2.50812e+02        00000 
-1.74991e+01 -2.49803e+02        00000 
 1.61309e+01 -2.49778e+02        00000 
 5.00200e+01 -2.50750e+02        00000 
 8.48973e+01 -2.52726e+02        00000 
 1.21412e+02 -2.55714e+02        00000 
 1.60202e+02 -2.59612e+02        00000 
-1.79861e+02 -3.44471e+02        00000 
-1.37032e+02 -3.41447e+02        00000 
-9.64453e+01 -3.39156e+02        00000 
-5.74635e+01 -3.37638e+02        00000 
-1.95551e+01 -3.36860e+02        00000 
 1.79873e+01 -3.36770e+02        00000 
 5.58477e+01 -3.37413e+02        00000 
 9.46891e+01 -3.38837e+02        00000 
 1.35268e+02 -3.41050e+02        00000 
 1.78178e+02 -3.44047e+02        00000 
-1.93090e+02 -4.35821e+02        00000 
-1.47138e+02 -4.33785e+02        00000 
-1.03464e+02 -4.32403e+02        00000 
-6.15825e+01 -4.31563e+02        00000 
-2.09808e+01 -4.31144e+02        00000 
 1.91905e+01 -4.31124e+02        00000 
 5.98209e+01 -4.31474e+02        00000 
 1.01698e+02 -4.32286e+02        00000 
 1.45483e+02 -4.33766e+02        00000 
 1.91468e+02 -4.35864e+02        00000 
-2.02203e+02 -5.33091e+02        00000 
-1.53210e+02 -5.31954e+02        00000 
-1.07234e+02 -5.31303e+02        00000 
-6.37088e+01 -5.30821e+02        00000 
-2.16886e+01 -5.30536e+02        00000 
 1.98021e+01 -5.30511e+02        00000 
 6.18227e+01 -5.30752e+02        00000 
 1.05465e+02 -5.31199e+02        00000 
 1.51671e+02 -5.31844e+02        00000 
 2.00701e+02 -5.33031e+02        00000 
-2.07677e+02 -6.39873e+02        00000 
-1.55783e+02 -6.37180e+02        00000 
-1.09040e+02 -6.34000e+02        00000 
-6.48498e+01 -6.31628e+02        00000 
-2.20806e+01 -6.30379e+02        00000 
 2.01604e+01 -6.30311e+02        00000 
 6.28516e+01 -6.31623e+02        00000 
 1.07191e+02 -6.34126e+02        00000 
 1.54336e+02 -6.37451e+02        00000 
 2.06718e+02 -6.40294e+02        00000 
-1.75972e+01 -1.38394e+01        00000 
-1.12454e+01 -8.34082e+00        00000 
-6.99971e+00 -5.64602e+00        00000 
-3.41840e+00 -4.35267e+00        00000 
-1.71712e-02 -3.94335e+00        00000 
 3.39087e+00 -4.32490e+00        00000 
 7.02791e+00 -5.60943e+00        00000 
 1.12524e+01 -8.25585e+00        00000 
 1.75220e+01 -1.37096e+01        00000 
-5.28654e+01 -4.55682e+01        00000 
-3.70190e+01 -3.91352e+01        00000 
-2.34781e+01 -3.45954e+01        00000 
-1.14733e+01 -3.19449e+01        00000 
-1.71371e-01 -3.10788e+01        00000 
 1.11973e+01 -3.18726e+01        00000 
 2.32623e+01 -3.43852e+01        00000 
 3.68116e+01 -3.88261e+01        00000 
 5.26778e+01 -4.51753e+01        00000 
-8.33659e+01 -8.97857e+01        00000 
-6.03051e+01 -8.41816e+01        00000 
-3.91943e+01 -8.01326e+01        00000 
-1.94132e+01 -7.76654e+01        00000 
-3.22347e-01 -7.68362e+01        00000 
 1.87525e+01 -7.76145e+01        00000 
 3.85432e+01 -8.00168e+01        00000 
 5.98158e+01 -8.40484e+01        00000 
 8.29572e+01 -8.96222e+01        00000 
-1.10110e+02 -1.48054e+02        00000 
-8.03688e+01 -1.43236e+02        00000 
-5.26794e+01 -1.39803e+02        00000 
-2.62692e+01 -1.37751e+02        00000 
-4.92594e-01 -1.37063e+02        00000 
 2.52721e+01 -1.37715e+02        00000 
 5.16946e+01 -1.39795e+02        00000 
 7.94285e+01 -1.43200e+02        00000 
 1.09040e+02 -1.47882e+02        00000 
-1.32576e+02 -2.18595e+02        00000 
-9.72231e+01 -2.14613e+02        00000 
-6.39150e+01 -2.11778e+02        00000 
-3.19718e+01 -2.10104e+02        00000 
-6.46791e-01 -2.09532e+02        00000 
 3.06658e+01 -2.10080e+02        00000 
 6.26253e+01 -2.11722e+02        00000 
 9.58544e+01 -2.14478e+02        00000 
 1.31032e+02 -2.18344e+02        00000 
-1.50694e+02 -2.99365e+02        00000 
-1.10898e+02 -2.96259e+02        00000 
-7.30551e+01 -2.93971e+02        00000 
-3.65372e+01 -2.92620e+02        00000 
-7.04366e-01 -2.92133e+02        00000 
 3.50688e+01 -2.92530e+02        00000 
 7.14879e+01 -2.93805e+02        00000 
 1.09223e+02 -2.95978e+02        00000 
 1.48933e+02 -2.99047e+02        00000 
-1.64489e+02 -3.88069e+02        00000 
-1.21233e+02 -3.85880e+02        00000 
-7.98899e+01 -3.84349e+02        00000 
-3.99624e+01 -3.83462e+02        00000 
-8.57934e-01 -3.83131e+02        00000 
 3.82555e+01 -3.83328e+02        00000 
 7.81471e+01 -3.84111e+02        00000 
 1.19434e+02 -3.85602e+02        00000 
 1.62827e+02 -3.87874e+02        00000 
-1.74092e+02 -4.82821e+02        00000 
-1.27920e+02 -4.81598e+02        00000 
-8.40871e+01 -4.80891e+02        00000 
-4.20383e+01 -4.80474e+02        00000 
-9.21258e-01 -4.80310e+02        00000 
 4.01867e+01 -4.80410e+02        00000 
 8.23186e+01 -4.80790e+02        00000 
 1.26273e+02 -4.81552e+02        00000 
 1.72523e+02 -4.82837e+02        00000 
-1.79489e+02 -5.83782e+02        00000 
-1.30933e+02 -5.82946e+02        00000 
-8.59118e+01 -5.81956e+02        00000 
-4.29225e+01 -5.81180e+02        00000 
-9.45786e-01 -5.80868e+02        00000 
 4.09623e+01 -5.81143e+02        00000 
 8.39982e+01 -5.81887e+02        00000 
 1.29282e+02 -5.82894e+02        00000 
 1.78131e+02 -5.83754e+02        00000 
-2.87599e-15  4.61791e-16        00000 
-9.59460e+00 -7.23109e+00        00000 
-7.30721e+00 -5.04774e+00        00000 
 1.14836e-15  6.97140e-16        00000 
-5.90329e+00 -3.68025e+00        00000 
-4.77783e+00 -2.75631e+00        00000 
 2.49800e-16        00000        00000 
-3.80513e+00 -2.11016e+00        00000 
-2.90299e+00 -1.66410e+00        00000 
-8.86484e-17 -2.27366e-16        00000 
-2.06082e+00 -1.33921e+00        00000 
-1.21477e+00 -1.13110e+00        00000 
-1.87350e-16 -1.87350e-16        00000 
-4.04398e-01 -1.03326e+00        00000 
 4.07317e-01 -1.03533e+00        00000 
 6.64421e-16  2.30795e-16        00000 
 1.21558e+00 -1.13863e+00        00000 
 2.03877e+00 -1.33182e+00        00000 
 1.24900e-16 -1.06165e-15        00000 
 2.91464e+00 -1.63606e+00        00000 
 3.82718e+00 -2.09753e+00        00000 
 4.99600e-16 -2.49800e-16        00000 
 4.79273e+00 -2.74320e+00        00000 
 5.89324e+00 -3.66462e+00        00000 
-2.56105e-15  1.82962e-15        00000 
 7.28119e+00 -5.01962e+00        00000 
 9.53768e+00 -7.18428e+00        00000 
-3.61397e+01 -2.86657e+01        00000 
-4.85815e+01 -3.88075e+01        00000 
-4.08690e+01 -3.49547e+01        00000 
-2.41805e+01 -2.19654e+01        00000 
-3.38723e+01 -3.15737e+01        00000 
-2.76444e+01 -2.87806e+01        00000 
-1.50899e+01 -1.77412e+01        00000 
-2.19611e+01 -2.65404e+01        00000 
-1.67023e+01 -2.48265e+01        00000 
-7.33850e+00 -1.54772e+01        00000 
-1.17678e+01 -2.35732e+01        00000 
-7.05423e+00 -2.27559e+01        00000 
-8.86645e-02 -1.47357e+01        00000 
-2.43435e+00 -2.23269e+01        00000 
 2.17547e+00 -2.23028e+01        00000 
 7.22516e+00 -1.53949e+01        00000 
 6.84353e+00 -2.26838e+01        00000 
 1.16184e+01 -2.34546e+01        00000 
 1.50413e+01 -1.75875e+01        00000 
 1.65857e+01 -2.46521e+01        00000 
 2.18435e+01 -2.63243e+01        00000 
 2.41050e+01 -2.17036e+01        00000 
 2.75099e+01 -2.85161e+01        00000 
 3.37243e+01 -3.12780e+01        00000 
 3.59858e+01 -2.83170e+01        00000 
 4.07034e+01 -3.46053e+01        00000 
 4.84033e+01 -3.84136e+01        00000 
-6.85772e+01 -6.58454e+01        00000 
-8.17747e+01 -7.92546e+01        00000 
-7.05403e+01 -7.58554e+01        00000 
-4.90816e+01 -5.98873e+01        00000 
-5.99025e+01 -7.29168e+01        00000 
-4.98090e+01 -7.03962e+01        00000 
-3.16260e+01 -5.55301e+01        00000 
-4.01448e+01 -6.82841e+01        00000 
-3.08842e+01 -6.65829e+01        00000 
-1.55699e+01 -5.28846e+01        00000 
-2.19281e+01 -6.53037e+01        00000 
-1.31771e+01 -6.44466e+01        00000 
-2.50223e-01 -5.19667e+01        00000 
-4.58594e+00 -6.40083e+01        00000 
 3.99186e+00 -6.39839e+01        00000 
 1.50814e+01 -5.27816e+01        00000 
 1.26013e+01 -6.43701e+01        00000 
 2.13402e+01 -6.51813e+01        00000 
 3.11532e+01 -5.53274e+01        00000 
 3.03079e+01 -6.64284e+01        00000 
 3.96165e+01 -6.80875e+01        00000 
 4.87214e+01 -5.96275e+01        00000 
 4.93384e+01 -7.01857e+01        00000 
 5.95152e+01 -7.27030e+01        00000 
 6.83251e+01 -6.55531e+01        00000 
 7.02127e+01 -7.56502e+01        00000 
 8.14864e+01 -7.90293e+01        00000 
-9.72402e+01 -1.17226e+02        00000 
-1.11205e+02 -1.33876e+02        00000 
-9.65447e+01 -1.30910e+02        00000 
-7.07374e+01 -1.12025e+02        00000 
-8.24780e+01 -1.28363e+02        00000 
-6.89564e+01 -1.26205e+02        00000 
-4.62132e+01 -1.08275e+02        00000 
-5.58893e+01 -1.24394e+02        00000 
-4.32116e+01 -1.22950e+02        00000 
-2.29675e+01 -1.05998e+02        00000 
-3.07940e+01 -1.21879e+02        00000 
-1.85619e+01 -1.21151e+02        00000 
-3.93875e-01 -1.05228e+02        00000 
-6.47181e+00 -1.20778e+02        00000 
 5.59461e+00 -1.20766e+02        00000 
 2.21363e+01 -1.05974e+02        00000 
 1.76711e+01 -1.21122e+02        00000 
 2.98758e+01 -1.21848e+02        00000 
 4.53855e+01 -1.08253e+02        00000 
 4.22920e+01 -1.22938e+02        00000 
 5.50065e+01 -1.24394e+02        00000 
 7.00388e+01 -1.11980e+02        00000 
 6.81289e+01 -1.26178e+02        00000 
 8.16555e+01 -1.28309e+02        00000 
 9.64996e+01 -1.17077e+02        00000 
 9.56835e+01 -1.30784e+02        00000 
 1.10287e+02 -1.33691e+02        00000 
-1.21903e+02 -1.82011e+02        00000 
-1.36232e+02 -2.01353e+02        00000 
-1.18654e+02 -1.98878e+02        00000 
-8.92087e+01 -1.77578e+02        00000 
-1.01624e+02 -1.96738e+02        00000 
-8.51569e+01 -1.94910e+02        00000 
-5.85835e+01 -1.74443e+02        00000 
-6.91550e+01 -1.93403e+02        00000 
-5.35705e+01 -1.92225e+02        00000 
-2.92787e+01 -1.72574e+02        00000 
-3.82408e+01 -1.91349e+02        00000 
-2.31326e+01 -1.90755e+02        00000 
-6.09760e-01 -1.71935e+02        00000 
-8.12125e+00 -1.90450e+02        00000 
 6.84980e+00 -1.90450e+02        00000 
 2.80743e+01 -1.72521e+02        00000 
 2.18529e+01 -1.90737e+02        00000 
 3.69911e+01 -1.91300e+02        00000 
 5.74322e+01 -1.74346e+02        00000 
 5.23278e+01 -1.92159e+02        00000 
 6.79584e+01 -1.93305e+02        00000 
 8.80281e+01 -1.77409e+02        00000 
 8.39147e+01 -1.94770e+02        00000 
 1.00307e+02 -1.96543e+02        00000 
 1.20546e+02 -1.81681e+02        00000 
 1.17241e+02 -1.98607e+02        00000 
 1.34769e+02 -2.01020e+02        00000 
-1.42177e+02 -2.57817e+02        00000 
-1.56620e+02 -2.79399e+02        00000 
-1.36673e+02 -2.77447e+02        00000 
-1.04456e+02 -2.54267e+02        00000 
-1.17279e+02 -2.75739e+02        00000 
-9.83981e+01 -2.74285e+02        00000 
-6.87312e+01 -2.51700e+02        00000 
-8.00093e+01 -2.73062e+02        00000 
-6.20052e+01 -2.72099e+02        00000 
-3.43814e+01 -2.50174e+02        00000 
-4.42714e+01 -2.71379e+02        00000 
-2.67538e+01 -2.70900e+02        00000 
-6.78977e-01 -2.49671e+02        00000 
-9.36612e+00 -2.70660e+02        00000 
 7.98060e+00 -2.70656e+02        00000 
 3.29985e+01 -2.50142e+02        00000 
 2.53542e+01 -2.70887e+02        00000 
 4.28297e+01 -2.71328e+02        00000 
 6.72896e+01 -2.51608e+02        00000 
 6.05099e+01 -2.72026e+02        00000 
 7.84763e+01 -2.72956e+02        00000 
 1.02920e+02 -2.54083e+02        00000 
 9.68216e+01 -2.74117e+02        00000 
 1.15636e+02 -2.75511e+02        00000 
 1.40482e+02 -2.57553e+02        00000 
 1.34956e+02 -2.77173e+02        00000 
 1.54875e+02 -2.79122e+02        00000 
-1.58128e+02 -3.42887e+02        00000 
-1.72418e+02 -3.66095e+02        00000 
-1.50614e+02 -3.64636e+02        00000 
-1.16500e+02 -3.40200e+02        00000 
-1.29390e+02 -3.63399e+02        00000 
-1.08675e+02 -3.62347e+02        00000 
-7.67957e+01 -3.38296e+02        00000 
-8.84045e+01 -3.61487e+02        00000 
-6.85100e+01 -3.60800e+02        00000 
-3.84314e+01 -3.37176e+02        00000 
-4.89247e+01 -3.60297e+02        00000 
-2.95923e+01 -3.59957e+02        00000 
-7.75701e-01 -3.36736e+02        00000 
-1.03799e+01 -3.59768e+02        00000 
 8.75893e+00 -3.59726e+02        00000 
 3.68327e+01 -3.36992e+02        00000 
 2.79449e+01 -3.59831e+02        00000 
 4.72808e+01 -3.60097e+02        00000 
 7.51021e+01 -3.38018e+02        00000 
 6.68208e+01 -3.60544e+02        00000 
 8.66529e+01 -3.61186e+02        00000 
 1.14721e+02 -3.39840e+02        00000 
 1.06886e+02 -3.62017e+02        00000 
 1.27605e+02 -3.63040e+02        00000 
 1.56402e+02 -3.42463e+02        00000 
 1.48886e+02 -3.64296e+02        00000 
 1.70766e+02 -3.65769e+02        00000 
-1.69802e+02 -4.34724e+02        00000 
-1.83827e+02 -4.59140e+02        00000 
-1.60471e+02 -4.58197e+02        00000 
-1.25042e+02 -4.33014e+02        00000 
-1.37748e+02 -4.57438e+02        00000 
-1.15583e+02 -4.56880e+02        00000 
-8.23328e+01 -4.31917e+02        00000 
-9.39500e+01 -4.56440e+02        00000 
-7.27413e+01 -4.56094e+02        00000 
-4.11727e+01 -4.31308e+02        00000 
-5.19231e+01 -4.55842e+02        00000 
-3.14267e+01 -4.55665e+02        00000 
-8.90231e-01 -4.31090e+02        00000 
-1.10550e+01 -4.55576e+02        00000 
 9.24960e+00 -4.55557e+02        00000 
 3.93943e+01 -4.31257e+02        00000 
 2.95937e+01 -4.55632e+02        00000 
 5.01391e+01 -4.55775e+02        00000 
 8.05656e+01 -4.31817e+02        00000 
 7.09705e+01 -4.55997e+02        00000 
 9.21852e+01 -4.56340e+02        00000 
 1.23316e+02 -4.32954e+02        00000 
 1.13879e+02 -4.56808e+02        00000 
 1.36100e+02 -4.57422e+02        00000 
 1.68204e+02 -4.34729e+02        00000 
 1.58879e+02 -4.58204e+02        00000 
 1.82232e+02 -4.59172e+02        00000 
-1.77381e+02 -5.32425e+02        00000 
-1.91235e+02 -5.58132e+02        00000 
-1.66202e+02 -5.57656e+02        00000 
-1.29857e+02 -5.31594e+02        00000 
-1.42154e+02 -5.57280e+02        00000 
-1.19003e+02 -5.56945e+02        00000 
-8.52189e+01 -5.31038e+02        00000 
-9.65731e+01 -5.56605e+02        00000 
-7.47349e+01 -5.56300e+02        00000 
-4.25668e+01 -5.30642e+02        00000 
-5.33356e+01 -5.56036e+02        00000 
-3.22314e+01 -5.55842e+02        00000 
-9.42442e-01 -5.30482e+02        00000 
-1.13581e+01 -5.55739e+02        00000 
 9.46159e+00 -5.55737e+02        00000 
 4.06802e+01 -5.30610e+02        00000 
 3.03365e+01 -5.55835e+02        00000 
 5.14114e+01 -5.55997e+02        00000 
 8.33845e+01 -5.30955e+02        00000 
 7.28290e+01 -5.56238e+02        00000 
 9.47412e+01 -5.56522e+02        00000 
 1.28208e+02 -5.31484e+02        00000 
 1.17269e+02 -5.56846e+02        00000 
 1.40592e+02 -5.57191e+02        00000 
 1.75901e+02 -5.32357e+02        00000 
 1.64752e+02 -5.57556e+02        00000 
 1.89844e+02 -5.58087e+02        00000 
-1.39553e+01 -1.05825e+01        00000 
-2.42780e+01 -1.92499e+01        00000 
-8.99612e+00 -6.76446e+00        00000 
-1.57917e+01 -1.35473e+01        00000 
-5.17712e+00 -4.86834e+00        00000 
-9.49026e+00 -1.04176e+01        00000 
-1.70262e+00 -4.04783e+00        00000 
-3.99604e+00 -8.91817e+00        00000 
 1.67972e+00 -4.03077e+00        00000 
 1.26976e+00 -8.59812e+00        00000 
 5.16308e+00 -4.83504e+00        00000 
 6.63964e+00 -9.42950e+00        00000 
 9.03441e+00 -6.71222e+00        00000 
 1.24944e+01 -1.16300e+01        00000 
 1.39215e+01 -1.04702e+01        00000 
 1.95925e+01 -1.58124e+01        00000 
 2.40343e+01 -1.85329e+01        00000 
 3.03455e+01 -2.31888e+01        00000 
-4.46196e+01 -4.21500e+01        00000 
-5.61930e+01 -5.36524e+01        00000 
-3.00123e+01 -3.66239e+01        00000 
-3.90855e+01 -4.77997e+01        00000 
-1.73320e+01 -3.30317e+01        00000 
-2.39928e+01 -4.37539e+01        00000 
-5.78648e+00 -3.12989e+01        00000 
-1.01621e+01 -4.15175e+01        00000 
 5.46667e+00 -3.12674e+01        00000 
 3.10528e+00 -4.10535e+01        00000 
 1.70924e+01 -3.29131e+01        00000 
 1.65856e+01 -4.23027e+01        00000 
 2.97992e+01 -3.63483e+01        00000 
 3.10020e+01 -4.53032e+01        00000 
 4.44137e+01 -4.17954e+01        00000 
 4.70966e+01 -5.01676e+01        00000 
 6.15687e+01 -4.88993e+01        00000 
 6.54606e+01 -5.68886e+01        00000 
-7.15567e+01 -8.67947e+01        00000 
-8.40172e+01 -1.01670e+02        00000 
-4.95378e+01 -8.19598e+01        00000 
-5.97411e+01 -9.65531e+01        00000 
-2.91742e+01 -7.86836e+01        00000 
-3.72923e+01 -9.30240e+01        00000 
-9.81752e+00 -7.70482e+01        00000 
-1.59585e+01 -9.10613e+01        00000 
 9.16508e+00 -7.70355e+01        00000 
 4.84372e+00 -9.06511e+01        00000 
 2.84993e+01 -7.86132e+01        00000 
 2.57642e+01 -9.18225e+01        00000 
 4.89737e+01 -8.18287e+01        00000 
 4.76330e+01 -9.45482e+01        00000 
 7.11147e+01 -8.66597e+01        00000 
 7.10555e+01 -9.88265e+01        00000 
 9.53936e+01 -9.28690e+01        00000 
 9.64141e+01 -1.04672e+02        00000 
-9.49436e+01 -1.45474e+02        00000 
-1.08108e+02 -1.63479e+02        00000 
-6.63174e+01 -1.41348e+02        00000 
-7.74365e+01 -1.59106e+02        00000 
-3.93734e+01 -1.38611e+02        00000 
-4.86470e+01 -1.56154e+02        00000 
-1.33451e+01 -1.37242e+02        00000 
-2.09671e+01 -1.54524e+02        00000 
 1.23559e+01 -1.37214e+02        00000 
 6.24397e+00 -1.54177e+02        00000 
 3.83623e+01 -1.38574e+02        00000 
 3.35913e+01 -1.55131e+02        00000 
 6.53560e+01 -1.41341e+02        00000 
 6.17871e+01 -1.57405e+02        00000 
 9.39424e+01 -1.45382e+02        00000 
 9.13942e+01 -1.60970e+02        00000 
 1.24762e+02 -1.50651e+02        00000 
 1.23054e+02 -1.65906e+02        00000 
-1.14641e+02 -2.16480e+02        00000 