<?xml version="1.0" encoding="utf-8"?>
<VTKFile byte_order="LittleEndian" type="UnstructuredGrid" version="0.1">
   <UnstructuredGrid>
      <Piece NumberOfCells="1296" NumberOfPoints="685">
         <Points>
            <DataArray Name="Points" NumberOfComponents="3" format="ascii" type="Float32">
0.0000 0.0000 0.0000
0.0000 0.1111 0.0000
0.0000 0.2222 0.0000
0.0000 0.3333 0.0000
0.0000 0.4444 0.0000
0.0000 0.5556 0.0000
0.0000 0.6667 0.0000
0.0000 0.7778 0.0000
0.0000 0.8889 0.0000
0.0000 1.0000 0.0000
0.2222 0.0000 0.0000
0.2222 0.1111 0.0000
0.2222 0.2222 0.0000
0.2222 0.3333 0.0000
0.2222 0.4444 0.0000
0.2222 0.5556 0.0000
0.2222 0.6667 0.0000
0.2222 0.7778 0.0000
0.2222 0.8889 0.0000
0.2222 1.0000 0.0000
0.4444 0.0000 0.0000
0.4444 0.1111 0.0000
0.4444 0.2222 0.0000
0.4444 0.3333 0.0000
0.4444 0.4444 0.0000
0.4444 0.5556 0.0000
0.4444 0.6667 0.0000
0.4444 0.7778 0.0000
0.4444 0.8889 0.0000
0.4444 1.0000 0.0000
0.6667 0.0000 0.0000
0.6667 0.1111 0.0000
0.6667 0.2222 0.0000
0.6667 0.3333 0.0000
0.6667 0.4444 0.0000
0.6667 0.5556 0.0000
0.6667 0.6667 0.0000
0.6667 0.7778 0.0000
0.6667 0.8889 0.0000
0.6667 1.0000 0.0000
0.8889 0.0000 0.0000
0.8889 0.1111 0.0000
0.8889 0.2222 0.0000
0.8889 0.3333 0.0000
0.8889 0.4444 0.0000
0.8889 0.5556 0.0000
0.8889 0.6667 0.0000
0.8889 0.7778 0.0000
0.8889 0.8889 0.0000
0.8889 1.0000 0.0000
1.1111 0.0000 0.0000
1.1111 0.1111 0.0000
1.1111 0.2222 0.0000
1.1111 0.3333 0.0000
1.1111 0.4444 0.0000
1.1111 0.5556 0.0000
1.1111 0.6667 0.0000
1.1111 0.7778 0.0000
1.1111 0.8889 0.0000
1.1111 1.0000 0.0000
1.3333 0.0000 0.0000
1.3333 0.1111 0.0000
1.3333 0.2222 0.0000
1.3333 0.3333 0.0000
1.3333 0.4444 0.0000
1.3333 0.5556 0.0000
1.3333 0.6667 0.0000
1.3333 0.7778 0.0000
1.3333 0.8889 0.0000
1.3333 1.0000 0.0000
1.5556 0.0000 0.0000
1.5556 0.1111 0.0000
1.5556 0.2222 0.0000
1.5556 0.3333 0.0000
1.5556 0.4444 0.0000
1.5556 0.5556 0.0000
1.5556 0.6667 0.0000
1.5556 0.7778 0.0000
1.5556 0.8889 0.0000
1.5556 1.0000 0.0000
1.7778 0.0000 0.0000
1.7778 0.1111 0.0000
1.7778 0.2222 0.0000
1.7778 0.3333 0.0000
1.7778 0.4444 0.0000
1.7778 0.5556 0.0000
1.7778 0.6667 0.0000
1.7778 0.7778 0.0000
1.7778 0.8889 0.0000
1.7778 1.0000 0.0000
2.0000 0.0000 0.0000
2.0000 0.1111 0.0000
2.0000 0.2222 0.0000
2.0000 0.3333 0.0000
2.0000 0.4444 0.0000
2.0000 0.5556 0.0000
2.0000 0.6667 0.0000
2.0000 0.7778 0.0000
2.0000 0.8889 0.0000
2.0000 1.0000 0.0000
0.1111 0.0556 0.0000
0.1111 0.1667 0.0000
0.1111 0.2778 0.0000
0.1111 0.3889 0.0000
0.1111 0.5000 0.0000
0.1111 0.6111 0.0000
0.1111 0.7222 0.0000
0.1111 0.8333 0.0000
0.1111 0.9444 0.0000
0.3333 0.0556 0.0000
0.3333 0.1667 0.0000
0.3333 0.2778 0.0000
0.3333 0.3889 0.0000
0.3333 0.5000 0.0000
0.3333 0.6111 0.0000
0.3333 0.7222 0.0000
0.3333 0.8333 0.0000
0.3333 0.9444 0.0000
0.5556 0.0556 0.0000
0.5556 0.1667 0.0000
0.5556 0.2778 0.0000
0.5556 0.3889 0.0000
0.5556 0.5000 0.0000
0.5556 0.6111 0.0000
0.5556 0.7222 0.0000
0.5556 0.8333 0.0000
0.5556 0.9444 0.0000
0.7778 0.0556 0.0000
0.7778 0.1667 0.0000
0.7778 0.2778 0.0000
0.7778 0.3889 0.0000
0.7778 0.5000 0.0000
0.7778 0.6111 0.0000
0.7778 0.7222 0.0000
0.7778 0.8333 0.0000
0.7778 0.9444 0.0000
1.0000 0.0556 0.0000
1.0000 0.1667 0.0000
1.0000 0.2778 0.0000
1.0000 0.3889 0.0000
1.0000 0.5000 0.0000
1.0000 0.6111 0.0000
1.0000 0.7222 0.0000
1.0000 0.8333 0.0000
1.0000 0.9444 0.0000
1.2222 0.0556 0.0000
1.2222 0.1667 0.0000
1.2222 0.2778 0.0000
1.2222 0.3889 0.0000
1.2222 0.5000 0.0000
1.2222 0.6111 0.0000
1.2222 0.7222 0.0000
1.2222 0.8333 0.0000
1.2222 0.9444 0.0000
1.4444 0.0556 0.0000
1.4444 0.1667 0.0000
1.4444 0.2778 0.0000
1.4444 0.3889 0.0000
1.4444 0.5000 0.0000
1.4444 0.6111 0.0000
1.4444 0.7222 0.0000
1.4444 0.8333 0.0000
1.4444 0.9444 0.0000
1.6667 0.0556 0.0000
1.6667 0.1667 0.0000
1.6667 0.2778 0.0000
1.6667 0.3889 0.0000
1.6667 0.5000 0.0000
1.6667 0.6111 0.0000
1.6667 0.7222 0.0000
1.6667 0.8333 0.0000
1.6667 0.9444 0.0000
1.8889 0.0556 0.0000
1.8889 0.1667 0.0000
1.8889 0.2778 0.0000
1.8889 0.3889 0.0000
1.8889 0.5000 0.0000
1.8889 0.6111 0.0000
1.8889 0.7222 0.0000
1.8889 0.8333 0.0000
1.8889 0.9444 0.0000
0.0000 0.0556 0.0000
0.0556 0.0278 0.0000
0.0556 0.0833 0.0000
0.0000 0.1667 0.0000
0.0556 0.1389 0.0000
0.0556 0.1944 0.0000
0.0000 0.2778 0.0000
0.0556 0.2500 0.0000
0.0556 0.3056 0.0000
0.0000 0.3889 0.0000
0.0556 0.3611 0.0000
0.0556 0.4167 0.0000
0.0000 0.5000 0.0000
0.0556 0.4722 0.0000
0.0556 0.5278 0.0000
0.0000 0.6111 0.0000
0.0556 0.5833 0.0000
0.0556 0.6389 0.0000
0.0000 0.7222 0.0000
0.0556 0.6944 0.0000
0.0556 0.7500 0.0000
0.0000 0.8333 0.0000
0.0556 0.8056 0.0000
0.0556 0.8611 0.0000
0.0000 0.9444 0.0000
0.0556 0.9167 0.0000
0.0556 0.9722 0.0000
0.2222 0.0556 0.0000
0.2778 0.0278 0.0000
0.2778 0.0833 0.0000
0.2222 0.1667 0.0000
0.2778 0.1389 0.0000
0.2778 0.1944 0.0000
0.2222 0.2778 0.0000
0.2778 0.2500 0.0000
0.2778 0.3056 0.0000
0.2222 0.3889 0.0000
0.2778 0.3611 0.0000
0.2778 0.4167 0.0000
0.2222 0.5000 0.0000
0.2778 0.4722 0.0000
0.2778 0.5278 0.0000
0.2222 0.6111 0.0000
0.2778 0.5833 0.0000
0.2778 0.6389 0.0000
0.2222 0.7222 0.0000
0.2778 0.6944 0.0000
0.2778 0.7500 0.0000
0.2222 0.8333 0.0000
0.2778 0.8056 0.0000
0.2778 0.8611 0.0000
0.2222 0.9444 0.0000
0.2778 0.9167 0.0000
0.2778 0.9722 0.0000
0.4444 0.0556 0.0000
0.5000 0.0278 0.0000
0.5000 0.0833 0.0000
0.4444 0.1667 0.0000
0.5000 0.1389 0.0000
0.5000 0.1944 0.0000
0.4444 0.2778 0.0000
0.5000 0.2500 0.0000
0.5000 0.3056 0.0000
0.4444 0.3889 0.0000
0.5000 0.3611 0.0000
0.5000 0.4167 0.0000
0.4444 0.5000 0.0000
0.5000 0.4722 0.0000
0.5000 0.5278 0.0000
0.4444 0.6111 0.0000
0.5000 0.5833 0.0000
0.5000 0.6389 0.0000
0.4444 0.7222 0.0000
0.5000 0.6944 0.0000
0.5000 0.7500 0.0000
0.4444 0.8333 0.0000
0.5000 0.8056 0.0000
0.5000 0.8611 0.0000
0.4444 0.9444 0.0000
0.5000 0.9167 0.0000
0.5000 0.9722 0.0000
0.6667 0.0556 0.0000
0.7222 0.0278 0.0000
0.7222 0.0833 0.0000
0.6667 0.1667 0.0000
0.7222 0.1389 0.0000
0.7222 0.1944 0.0000
0.6667 0.2778 0.0000
0.7222 0.2500 0.0000
0.7222 0.3056 0.0000
0.6667 0.3889 0.0000
0.7222 0.3611 0.0000
0.7222 0.4167 0.0000
0.6667 0.5000 0.0000
0.7222 0.4722 0.0000
0.7222 0.5278 0.0000
0.6667 0.6111 0.0000
0.7222 0.5833 0.0000
0.7222 0.6389 0.0000
0.6667 0.7222 0.0000
0.7222 0.6944 0.0000
0.7222 0.7500 0.0000
0.6667 0.8333 0.0000
0.7222 0.8056 0.0000
0.7222 0.8611 0.0000
0.6667 0.9444 0.0000
0.7222 0.9167 0.0000
0.7222 0.9722 0.0000
0.8889 0.0556 0.0000
0.9444 0.0278 0.0000
0.9444 0.0833 0.0000
0.8889 0.1667 0.0000
0.9444 0.1389 0.0000
0.9444 0.1944 0.0000
0.8889 0.2778 0.0000
0.9444 0.2500 0.0000
0.9444 0.3056 0.0000
0.8889 0.3889 0.0000
0.9444 0.3611 0.0000
0.9444 0.4167 0.0000
0.8889 0.5000 0.0000
0.9444 0.4722 0.0000
0.9444 0.5278 0.0000
0.8889 0.6111 0.0000
0.9444 0.5833 0.0000
0.9444 0.6389 0.0000
0.8889 0.7222 0.0000
0.9444 0.6944 0.0000
0.9444 0.7500 0.0000
0.8889 0.8333 0.0000
0.9444 0.8056 0.0000
0.9444 0.8611 0.0000
0.8889 0.9444 0.0000
0.9444 0.9167 0.0000
0.9444 0.9722 0.0000
1.1111 0.0556 0.0000
1.1667 0.0278 0.0000
1.1667 0.0833 0.0000
1.1111 0.1667 0.0000
1.1667 0.1389 0.0000
1.1667 0.1944 0.0000
1.1111 0.2778 0.0000
1.1667 0.2500 0.0000
1.1667 0.3056 0.0000
1.1111 0.3889 0.0000
1.1667 0.3611 0.0000
1.1667 0.4167 0.0000
1.1111 0.5000 0.0000
1.1667 0.4722 0.0000
1.1667 0.5278 0.0000
1.1111 0.6111 0.0000
1.1667 0.5833 0.0000
1.1667 0.6389 0.0000
1.1111 0.7222 0.0000
1.1667 0.6944 0.0000
1.1667 0.7500 0.0000
1.1111 0.8333 0.0000
1.1667 0.8056 0.0000
1.1667 0.8611 0.0000
1.1111 0.9444 0.0000
1.1667 0.9167 0.0000
1.1667 0.9722 0.0000
1.3333 0.0556 0.0000
1.3889 0.0278 0.0000
1.3889 0.0833 0.0000
1.3333 0.1667 0.0000
1.3889 0.1389 0.0000
1.3889 0.1944 0.0000
1.3333 0.2778 0.0000
1.3889 0.2500 0.0000
1.3889 0.3056 0.0000
1.3333 0.3889 0.0000
1.3889 0.3611 0.0000
1.3889 0.4167 0.0000
1.3333 0.5000 0.0000
1.3889 0.4722 0.0000
1.3889 0.5278 0.0000
1.3333 0.6111 0.0000
1.3889 0.5833 0.0000
1.3889 0.6389 0.0000
1.3333 0.7222 0.0000
1.3889 0.6944 0.0000
1.3889 0.7500 0.0000
1.3333 0.8333 0.0000
1.3889 0.8056 0.0000
1.3889 0.8611 0.0000
1.3333 0.9444 0.0000
1.3889 0.9167 0.0000
1.3889 0.9722 0.0000
1.5556 0.0556 0.0000
1.6111 0.0278 0.0000
1.6111 0.0833 0.0000
1.5556 0.1667 0.0000
1.6111 0.1389 0.0000
1.6111 0.1944 0.0000
1.5556 0.2778 0.0000
1.6111 0.2500 0.0000
1.6111 0.3056 0.0000
1.5556 0.3889 0.0000
1.6111 0.3611 0.0000
1.6111 0.4167 0.0000
1.5556 0.5000 0.0000
1.6111 0.4722 0.0000
1.6111 0.5278 0.0000
1.5556 0.6111 0.0000
1.6111 0.5833 0.0000
1.6111 0.6389 0.0000
1.5556 0.7222 0.0000
1.6111 0.6944 0.0000
1.6111 0.7500 0.0000
1.5556 0.8333 0.0000
1.6111 0.8056 0.0000
1.6111 0.8611 0.0000
1.5556 0.9444 0.0000
1.6111 0.9167 0.0000
1.6111 0.9722 0.0000
1.7778 0.0556 0.0000
1.8333 0.0278 0.0000
1.8333 0.0833 0.0000
1.7778 0.1667 0.0000
1.8333 0.1389 0.0000
1.8333 0.1944 0.0000
1.7778 0.2778 0.0000
1.8333 0.2500 0.0000
1.8333 0.3056 0.0000
1.7778 0.3889 0.0000
1.8333 0.3611 0.0000
1.8333 0.4167 0.0000
1.7778 0.5000 0.0000
1.8333 0.4722 0.0000
1.8333 0.5278 0.0000
1.7778 0.6111 0.0000
1.8333 0.5833 0.0000
1.8333 0.6389 0.0000
1.7778 0.7222 0.0000
1.8333 0.6944 0.0000
1.8333 0.7500 0.0000
1.7778 0.8333 0.0000
1.8333 0.8056 0.0000
1.8333 0.8611 0.0000
1.7778 0.9444 0.0000
1.8333 0.9167 0.0000
1.8333 0.9722 0.0000
0.1111 0.1111 0.0000
0.1667 0.0833 0.0000
0.1111 0.2222 0.0000
0.1667 0.1944 0.0000
0.1111 0.3333 0.0000
0.1667 0.3056 0.0000
0.1111 0.4444 0.0000
0.1667 0.4167 0.0000
0.1111 0.5556 0.0000
0.1667 0.5278 0.0000
0.1111 0.6667 0.0000
0.1667 0.6389 0.0000
0.1111 0.7778 0.0000
0.1667 0.7500 0.0000
0.1111 0.8889 0.0000
0.1667 0.8611 0.0000
0.1111 1.0000 0.0000
0.1667 0.9722 0.0000
0.3333 0.1111 0.0000
0.3889 0.0833 0.0000
0.3333 0.2222 0.0000
0.3889 0.1944 0.0000
0.3333 0.3333 0.0000
0.3889 0.3056 0.0000
0.3333 0.4444 0.0000
0.3889 0.4167 0.0000
0.3333 0.5556 0.0000
0.3889 0.5278 0.0000
0.3333 0.6667 0.0000
0.3889 0.6389 0.0000
0.3333 0.7778 0.0000
0.3889 0.7500 0.0000
0.3333 0.8889 0.0000
0.3889 0.8611 0.0000
0.3333 1.0000 0.0000
0.3889 0.9722 0.0000
0.5556 0.1111 0.0000
[...]
         <PointData>
            <DataArray Name="fValues" NumberOfComponents="3" format="ascii" type="Float64">
-1.19508e-18 -2.39017e-18        00000 
-3.03055e-18 -4.51358e-19        00000 
-1.33213e-18 -6.25083e-19        00000 
 1.54117e-18 -5.77938e-19        00000 
 6.16209e-19 -2.26640e-19        00000 
-6.42154e-19 -1.28431e-19        00000 
-5.66087e-19 -7.69556e-19        00000 
 9.62359e-20  1.05860e-18        00000 
 2.57981e-18        00000        00000 
 5.97542e-18        00000        00000 
-7.82199e-02 -5.35559e-02        00000 
-5.56110e-02 -3.85402e-02        00000 
-3.83397e-02 -2.79620e-02        00000 
-2.50259e-02 -2.17402e-02        00000 
-1.36268e-02 -1.88608e-02        00000 
-3.34880e-03 -1.79608e-02        00000 
 6.47685e-03 -1.88697e-02        00000 
 1.77793e-02 -2.21914e-02        00000 
 3.12904e-02 -2.82275e-02        00000 
 4.82679e-02 -3.72216e-02        00000 
-1.43241e-01 -1.10396e-01        00000 
-1.11590e-01 -9.74109e-02        00000 
-8.16528e-02 -8.67110e-02        00000 
-5.43902e-02 -7.83071e-02        00000 
-3.04195e-02 -7.25316e-02        00000 
-7.92409e-03 -6.93232e-02        00000 
 1.43001e-02 -6.87769e-02        00000 
 3.86063e-02 -7.17018e-02        00000 
 6.55410e-02 -7.79331e-02        00000 
 9.34782e-02 -8.68802e-02        00000 
-2.00715e-01 -1.88738e-01        00000 
-1.59456e-01 -1.77271e-01        00000 
-1.20453e-01 -1.67069e-01        00000 
-8.26765e-02 -1.57918e-01        00000 
-4.70138e-02 -1.50310e-01        00000 
-1.25117e-02 -1.45470e-01        00000 
 2.23809e-02 -1.43962e-01        00000 
 5.90072e-02 -1.45516e-01        00000 
 9.78563e-02 -1.49644e-01        00000 
 1.39036e-01 -1.57245e-01        00000 
-2.48552e-01 -2.80200e-01        00000 
-1.99100e-01 -2.70941e-01        00000 
-1.52278e-01 -2.62620e-01        00000 
-1.07200e-01 -2.55404e-01        00000 
-6.17134e-02 -2.49909e-01        00000 
-1.51039e-02 -2.46418e-01        00000 
 3.11458e-02 -2.45385e-01        00000 
 7.82418e-02 -2.47216e-01        00000 
 1.28349e-01 -2.52025e-01        00000 
 1.82478e-01 -2.59451e-01        00000 
-2.89664e-01 -3.90077e-01        00000 
-2.32658e-01 -3.82418e-01        00000 
-1.78009e-01 -3.76195e-01        00000 
-1.24193e-01 -3.71580e-01        00000 
-7.02330e-02 -3.68083e-01        00000 
-1.58620e-02 -3.65951e-01        00000 
 4.03236e-02 -3.65209e-01        00000 
 9.80165e-02 -3.66774e-01        00000 
 1.57476e-01 -3.71204e-01        00000 
 2.18890e-01 -3.77249e-01        00000 
-3.24438e-01 -5.16225e-01        00000 
-2.57771e-01 -5.10384e-01        00000 
-1.94340e-01 -5.06351e-01        00000 
-1.33069e-01 -5.03249e-01        00000 
-7.28293e-02 -5.01088e-01        00000 
-1.25060e-02 -4.99703e-01        00000 
 5.03713e-02 -4.99570e-01        00000 
 1.15683e-01 -5.00584e-01        00000 
 1.82008e-01 -5.03504e-01        00000 
 2.49816e-01 -5.07945e-01        00000 
-3.49819e-01 -6.58813e-01        00000 
-2.75668e-01 -6.54908e-01        00000 
-2.05389e-01 -6.52107e-01        00000 
-1.39097e-01 -6.49762e-01        00000 
-7.35563e-02 -6.48196e-01        00000 
-7.76430e-03 -6.47907e-01        00000 
 5.96243e-02 -6.49237e-01        00000 
 1.28003e-01 -6.50635e-01        00000 
 1.98239e-01 -6.52760e-01        00000 
 2.73703e-01 -6.55585e-01        00000 
-3.69698e-01 -8.21484e-01        00000 
-2.88021e-01 -8.18336e-01        00000 
-2.12109e-01 -8.15850e-01        00000 
-1.41632e-01 -8.13956e-01        00000 
-7.29383e-02 -8.12761e-01        00000 
-3.77512e-03 -8.11523e-01        00000 
 6.54387e-02 -8.10613e-01        00000 
 1.35779e-01 -8.10126e-01        00000 
 2.08843e-01 -8.10561e-01        00000 
 2.84783e-01 -8.12221e-01        00000 
-3.79200e-01 -9.96303e-01        00000 
-2.94220e-01 -9.91167e-01        00000 
-2.17162e-01 -9.84441e-01        00000 
-1.44231e-01 -9.78824e-01        00000 
-7.35417e-02 -9.75026e-01        00000 
-3.41305e-03 -9.72376e-01        00000 
 6.63851e-02 -9.71229e-01        00000 
 1.37999e-01 -9.71435e-01        00000 
 2.12160e-01 -9.73795e-01        00000 
 2.93135e-01 -9.76794e-01        00000 
-3.17770e-02 -2.12391e-02        00000 
-2.11295e-02 -1.10448e-02        00000 
-1.44013e-02 -6.31059e-03        00000 
-9.08096e-03 -4.19615e-03        00000 
-4.33719e-03 -3.44057e-03        00000 
 2.78532e-04 -4.06246e-03        00000 
 5.19297e-03 -5.42684e-03        00000 
 1.07983e-02 -8.52226e-03        00000 
 1.84184e-02 -1.49284e-02        00000 
-9.78952e-02 -7.22882e-02        00000 
-7.21618e-02 -5.97215e-02        00000 
-4.95852e-02 -5.01110e-02        00000 
-3.06277e-02 -4.42629e-02        00000 
-1.37224e-02 -4.08948e-02        00000 
 2.08962e-03 -4.01466e-02        00000 
 1.86782e-02 -4.19873e-02        00000 
 3.78196e-02 -4.66527e-02        00000 
 5.93079e-02 -5.44679e-02        00000 
-1.54568e-01 -1.39920e-01        00000 
-1.18850e-01 -1.29082e-01        00000 
-8.48045e-02 -1.19214e-01        00000 
-5.35236e-02 -1.11377e-01        00000 
-2.45691e-02 -1.05797e-01        00000 
 3.59483e-03 -1.03093e-01        00000 
 3.30901e-02 -1.03323e-01        00000 
 6.52078e-02 -1.06800e-01        00000 
 9.88130e-02 -1.13188e-01        00000 
-2.02471e-01 -2.26593e-01        00000 
-1.58645e-01 -2.17287e-01        00000 
-1.16555e-01 -2.08514e-01        00000 
-7.56996e-02 -2.00365e-01        00000 
-3.49878e-02 -1.94306e-01        00000 
 5.90365e-03 -1.91614e-01        00000 
 4.71021e-02 -1.92011e-01        00000 
 9.01802e-02 -1.94846e-01        00000 
 1.36637e-01 -2.00632e-01        00000 
-2.42744e-01 -3.29229e-01        00000 
-1.91172e-01 -3.20833e-01        00000 
-1.41277e-01 -3.13750e-01        00000 
-9.16956e-02 -3.08490e-01        00000 
-4.15888e-02 -3.05109e-01        00000 
 9.60654e-03 -3.03029e-01        00000 
 6.15850e-02 -3.03489e-01        00000 
 1.15182e-01 -3.06883e-01        00000 
 1.71769e-01 -3.12934e-01        00000 
-2.76595e-01 -4.47843e-01        00000 
-2.16425e-01 -4.41749e-01        00000 
-1.57975e-01 -4.37303e-01        00000 
-1.00873e-01 -4.34286e-01        00000 
-4.34801e-02 -4.32322e-01        00000 
 1.48810e-02 -4.31098e-01        00000 
 7.59022e-02 -4.31429e-01        00000 
 1.38722e-01 -4.34002e-01        00000 
 2.02392e-01 -4.38785e-01        00000 
-3.02493e-01 -5.83434e-01        00000 
-2.33551e-01 -5.79259e-01        00000 
-1.68088e-01 -5.76126e-01        00000 
-1.04727e-01 -5.73390e-01        00000 
-4.20381e-02 -5.71920e-01        00000 
 2.19046e-02 -5.71714e-01        00000 
 8.85790e-02 -5.72731e-01        00000 
 1.56882e-01 -5.74276e-01        00000 
 2.26710e-01 -5.76699e-01        00000 
-3.20885e-01 -7.35430e-01        00000 
-2.45089e-01 -7.32601e-01        00000 
-1.74467e-01 -7.31001e-01        00000 
-1.06797e-01 -7.29791e-01        00000 
-3.92663e-02 -7.29178e-01        00000 
 2.90231e-02 -7.29513e-01        00000 
 9.77503e-02 -7.30200e-01        00000 
 1.68168e-01 -7.31494e-01        00000 
 2.41411e-01 -7.34095e-01        00000 
-3.32290e-01 -9.04574e-01        00000 
-2.52028e-01 -9.02018e-01        00000 
-1.77658e-01 -8.98360e-01        00000 
-1.07056e-01 -8.95490e-01        00000 
-3.76250e-02 -8.93350e-01        00000 
 3.17924e-02 -8.91653e-01        00000 
 1.01819e-01 -8.90493e-01        00000 
 1.73915e-01 -8.90299e-01        00000 
 2.50009e-01 -8.90465e-01        00000 
-1.99692e-18 -1.44669e-18        00000 
-1.69129e-02 -1.11609e-02        00000 
-1.31239e-02 -7.38961e-03        00000 
 7.09913e-19  8.36017e-19        00000 
-1.07570e-02 -5.07364e-03        00000 
-8.89176e-03 -3.53813e-03        00000 
-9.75782e-19 -3.65918e-19        00000 
-7.37641e-03 -2.54149e-03        00000 
-5.93268e-03 -1.98173e-03        00000 
-1.07848e-18 -8.41994e-20        00000 
-4.76848e-03 -1.60988e-03        00000 
-3.57167e-03 -1.22502e-03        00000 
       00000 -6.09864e-20        00000 
-2.53205e-03 -1.10088e-03        00000 
-1.34383e-03 -9.71707e-04        00000 
 3.68786e-19 -1.15686e-19        00000 
-3.86628e-04 -1.09071e-03        00000 
 6.81769e-04 -1.13482e-03        00000 
-4.87891e-19        00000        00000 
 1.80134e-03 -1.47828e-03        00000 
 2.97725e-03 -2.00319e-03        00000 
 1.70762e-18  7.31836e-19        00000 
 4.22698e-03 -2.81667e-03        00000 
 5.76721e-03 -3.95326e-03        00000 
-1.99781e-18  1.52876e-18        00000 
 7.52140e-03 -5.44946e-03        00000 
 1.01001e-02 -7.81688e-03        00000 
-6.63386e-02 -4.57304e-02        00000 
-8.86235e-02 -6.21889e-02        00000 
-7.63510e-02 -5.51740e-02        00000 
-4.61479e-02 -3.26154e-02        00000 
-6.47539e-02 -4.85680e-02        00000 
-5.44503e-02 -4.29231e-02        00000 
-3.13609e-02 -2.43025e-02        00000 
-4.49577e-02 -3.84177e-02        00000 
-3.63160e-02 -3.49688e-02        00000 
-1.91057e-02 -2.00137e-02        00000 
-2.85650e-02 -3.26296e-02        00000 
-2.12871e-02 -3.07694e-02        00000 
-8.35781e-03 -1.80290e-02        00000 
-1.44812e-02 -2.93799e-02        00000 
-7.71578e-03 -2.85025e-02        00000 
 1.44945e-03 -1.81198e-02        00000 
-1.49891e-03 -2.83165e-02        00000 
 4.93718e-03 -2.86675e-02        00000 
 1.19703e-02 -2.01504e-02        00000 
 1.16443e-02 -2.97106e-02        00000 
 1.89481e-02 -3.14038e-02        00000 
 2.40453e-02 -2.46797e-02        00000 
 2.67940e-02 -3.36621e-02        00000 
 3.53324e-02 -3.68486e-02        00000 
 3.94918e-02 -3.25162e-02        00000 
 4.45589e-02 -4.08843e-02        00000 
 5.45670e-02 -4.52730e-02        00000 
-1.27288e-01 -1.03552e-01        00000 
-1.49952e-01 -1.24404e-01        00000 
-1.32586e-01 -1.18085e-01        00000 
-9.64169e-02 -9.17986e-02        00000 
-1.16124e-01 -1.12437e-01        00000 
-9.99203e-02 -1.07320e-01        00000 
-6.75541e-02 -8.21887e-02        00000 
-8.40756e-02 -1.02714e-01        00000 
-6.89273e-02 -9.82956e-02        00000 
-4.21737e-02 -7.50620e-02        00000 
-5.47681e-02 -9.46809e-02        00000 
-4.12387e-02 -9.16168e-02        00000 
-1.91685e-02 -7.06248e-02        00000 
-2.84106e-02 -8.91207e-02        00000 
-1.57139e-02 -8.71708e-02        00000 
 2.94999e-03 -6.86320e-02        00000 
-3.10655e-03 -8.59211e-02        00000 
 9.63972e-03 -8.52319e-02        00000 
 2.59092e-02 -6.98790e-02        00000 
 2.26848e-02 -8.56096e-02        00000 
 3.63981e-02 -8.69083e-02        00000 
 5.16934e-02 -7.44354e-02        00000 
 5.09478e-02 -8.88835e-02        00000 
 6.60793e-02 -9.17263e-02        00000 
 7.95285e-02 -8.20955e-02        00000 
 8.16322e-02 -9.52882e-02        00000 
 9.69120e-02 -9.94189e-02        00000 
-1.79614e-01 -1.82791e-01        00000 
-2.02088e-01 -2.07231e-01        00000 
-1.80615e-01 -2.01966e-01        00000 
-1.39770e-01 -1.72033e-01        00000 
-1.59744e-01 -1.96833e-01        00000 
-1.39304e-01 -1.92158e-01        00000 
-1.01474e-01 -1.62264e-01        00000 
-1.19212e-01 -1.87590e-01        00000 
-9.93505e-02 -1.83064e-01        00000 
-6.46547e-02 -1.53694e-01        00000 
-7.98954e-02 -1.78943e-01        00000 
-6.07367e-02 -1.75044e-01        00000 
-2.98080e-02 -1.47329e-01        00000 
-4.18402e-02 -1.71871e-01        00000 
-2.29522e-02 -1.69202e-01        00000 
 4.66723e-03 -1.44093e-01        00000 
-4.15269e-03 -1.67728e-01        00000 
 1.48152e-02 -1.67006e-01        00000 
 4.03993e-02 -1.44245e-01        00000 
 3.39911e-02 -1.67223e-01        00000 
 5.36770e-02 -1.68046e-01        00000 
 7.81027e-02 -1.47155e-01        00000 
 7.38150e-02 -1.69359e-01        00000 
 9.47530e-02 -1.71528e-01        00000 
 1.18311e-01 -1.52859e-01        00000 
 1.16495e-01 -1.74442e-01        00000 
 1.38900e-01 -1.78175e-01        00000 
-2.23434e-01 -2.75364e-01        00000 
-2.46104e-01 -3.04379e-01        00000 
-2.20391e-01 -2.99675e-01        00000 
-1.75419e-01 -2.66602e-01        00000 
-1.95665e-01 -2.95393e-01        00000 
-1.71564e-01 -2.91309e-01        00000 
-1.29713e-01 -2.58678e-01        00000 
-1.47734e-01 -2.87582e-01        00000 
-1.23995e-01 -2.84131e-01        00000 
-8.47027e-02 -2.52228e-01        00000 
-1.00304e-01 -2.81398e-01        00000 
-7.65729e-02 -2.79086e-01        00000 
-3.85815e-02 -2.47671e-01        00000 
-5.24815e-02 -2.77026e-01        00000 
-2.80841e-02 -2.75466e-01        00000 
 8.00992e-03 -2.45333e-01        00000 
-3.50150e-03 -2.74316e-01        00000 
 2.09802e-02 -2.73730e-01        00000 
 5.43898e-02 -2.45783e-01        00000 
 4.55380e-02 -2.73871e-01        00000 
 7.04465e-02 -2.75035e-01        00000 
 1.02714e-01 -2.49133e-01        00000 
 9.58810e-02 -2.76741e-01        00000 
 1.22211e-01 -2.79349e-01        00000 
 1.55164e-01 -2.55395e-01        00000 
 1.49696e-01 -2.82431e-01        00000 
 1.77757e-01 -2.85942e-01        00000 
-2.60634e-01 -3.85956e-01        00000 
-2.83859e-01 -4.18516e-01        00000 
-2.54030e-01 -4.14860e-01        00000 
-2.05133e-01 -3.78967e-01        00000 
-2.25264e-01 -4.11573e-01        00000 
-1.96900e-01 -4.08840e-01        00000 
-1.51068e-01 -3.73491e-01        00000 
-1.68611e-01 -4.06260e-01        00000 
-1.40754e-01 -4.04446e-01        00000 
-9.72531e-02 -3.69414e-01        00000 
-1.12919e-01 -4.02674e-01        00000 
-8.52304e-02 -4.01483e-01        00000 
-4.32337e-02 -3.66739e-01        00000 
-5.74114e-02 -3.99982e-01        00000 
-2.95848e-02 -3.99134e-01        00000 
 1.19382e-02 -3.65098e-01        00000 
-1.03021e-03 -3.98242e-01        00000 
 2.79604e-02 -3.97990e-01        00000 
 6.89642e-02 -3.65449e-01        00000 
 5.75593e-02 -3.97877e-01        00000 
 8.74053e-02 -3.98912e-01        00000 
 1.27400e-01 -3.68607e-01        00000 
 1.17915e-01 -4.00218e-01        00000 
 1.48619e-01 -4.02406e-01        00000 
 1.88005e-01 -3.74017e-01        00000 
 1.79739e-01 -4.04754e-01        00000 
 2.11092e-01 -4.07949e-01        00000 
-2.90885e-01 -5.13067e-01        00000 
-3.14166e-01 -5.49178e-01        00000 
-2.79897e-01 -5.46627e-01        00000 
-2.25709e-01 -5.08193e-01        00000 
-2.46263e-01 -5.44250e-01        00000 
-2.13734e-01 -5.42453e-01        00000 
-1.63631e-01 -5.04594e-01        00000 
-1.81781e-01 -5.40763e-01        00000 
-1.50462e-01 -5.39423e-01        00000 
-1.03022e-01 -5.01946e-01        00000 
-1.19329e-01 -5.38134e-01        00000 
-8.86203e-02 -5.37162e-01        00000 
-4.28929e-02 -5.00185e-01        00000 
-5.80503e-02 -5.36088e-01        00000 
-2.73094e-02 -5.35623e-01        00000 
 1.83639e-02 -4.99454e-01        00000 
 4.13144e-03 -5.35248e-01        00000 
 3.60677e-02 -5.35214e-01        00000 
 8.27820e-02 -4.99893e-01        00000 
 6.88907e-02 -5.35268e-01        00000 
 1.02262e-01 -5.36154e-01        00000 
 1.48669e-01 -5.01880e-01        00000 
 1.35969e-01 -5.36893e-01        00000 
 1.69802e-01 -5.38205e-01        00000 
 2.15755e-01 -5.05632e-01        00000 
 2.04053e-01 -5.39716e-01        00000 
 2.39028e-01 -5.41985e-01        00000 
-3.12460e-01 -6.56918e-01        00000 
-3.36294e-01 -6.96666e-01        00000 
-2.97877e-01 -6.94310e-01        00000 
-2.39951e-01 -6.53548e-01        00000 
-2.60791e-01 -6.92837e-01        00000 
-2.25056e-01 -6.91472e-01        00000 
-1.71951e-01 -6.50953e-01        00000 
-1.90546e-01 -6.90471e-01        00000 
-1.56762e-01 -6.89632e-01        00000 
-1.06498e-01 -6.48937e-01        00000 
-1.23377e-01 -6.88951e-01        00000 
-9.02554e-02 -6.88567e-01        00000 
-4.08721e-02 -6.47847e-01        00000 
-5.70566e-02 -6.87993e-01        00000 
-2.35561e-02 -6.88025e-01        00000 
 2.55527e-02 -6.48412e-01        00000 
 1.04603e-02 -6.88174e-01        00000 
 4.44469e-02 -6.88795e-01        00000 
 9.36342e-02 -6.49895e-01        00000 
 7.85203e-02 -6.89320e-01        00000 
 1.12955e-01 -6.90277e-01        00000 
 1.62694e-01 -6.51665e-01        00000 
 1.47950e-01 -6.90909e-01        00000 
 1.83516e-01 -6.92165e-01        00000 
 2.34867e-01 -6.54057e-01        00000 
 2.19677e-01 -6.93544e-01        00000 
 2.57434e-01 -6.95214e-01        00000 
-3.28063e-01 -8.19899e-01        00000 
-3.51660e-01 -8.62818e-01        00000 
-3.09998e-01 -8.61408e-01        00000 
-2.49134e-01 -8.16984e-01        00000 
-2.70070e-01 -8.60175e-01        00000 
-2.31775e-01 -8.58722e-01        00000 
-1.76228e-01 -8.14824e-01        00000 
-1.95067e-01 -8.57429e-01        00000 
-1.59264e-01 -8.56261e-01        00000 
-1.07305e-01 -8.13332e-01        00000 
-1.24594e-01 -8.55310e-01        00000 
-8.99900e-02 -8.54523e-01        00000 
-3.81993e-02 -8.12173e-01        00000 
-5.54439e-02 -8.53705e-01        00000 
-2.04966e-02 -8.52752e-01        00000 
 3.07313e-02 -8.11270e-01        00000 
 1.38873e-02 -8.52057e-01        00000 
 4.88468e-02 -8.51114e-01        00000 
 1.00359e-01 -8.10485e-01        00000 
 8.35968e-02 -8.50726e-01        00000 
 1.19076e-01 -8.50186e-01        00000 
 1.71943e-01 -8.10450e-01        00000 
 1.54765e-01 -8.50166e-01        00000 
 1.91665e-01 -8.50131e-01        00000 
 2.46554e-01 -8.11366e-01        00000 
 2.29233e-01 -8.50284e-01        00000 
 2.68029e-01 -8.50999e-01        00000 
-2.57576e-02 -1.53536e-02        00000 
-4.47556e-02 -2.96475e-02        00000 
-1.76204e-02 -8.29768e-03        00000 
-3.03497e-02 -1.84900e-02        00000 
-1.16946e-02 -5.17515e-03        00000 
-2.03282e-02 -1.24978e-02        00000 
-6.67628e-03 -3.75339e-03        00000 
-1.20704e-02 -9.78562e-03        00000 
-1.97632e-03 -3.70645e-03        00000 
-4.32969e-03 -9.05595e-03        00000 
 2.76128e-03 -4.62770e-03        00000 
 2.69905e-03 -9.98241e-03        00000 
 7.84940e-03 -6.74990e-03        00000 
 1.05853e-02 -1.23080e-02        00000 
 1.40968e-02 -1.11465e-02        00000 
 1.98795e-02 -1.72048e-02        00000 
 2.56569e-02 -2.01502e-02        00000 
 3.29227e-02 -2.60845e-02        00000 
-8.46763e-02 -6.57950e-02        00000 
-1.05541e-01 -8.42497e-02        00000 
-6.05181e-02 -5.43184e-02        00000 
-7.77348e-02 -7.22744e-02        00000 
-3.96102e-02 -4.68845e-02        00000 
-5.26990e-02 -6.31926e-02        00000 
-2.20239e-02 -4.22116e-02        00000 
-3.11990e-02 -5.71004e-02        00000 
-5.61846e-03 -4.01852e-02        00000 
-1.15333e-02 -5.39064e-02        00000 
 1.02557e-02 -4.07301e-02        00000 
 7.38589e-03 -5.34007e-02        00000 
 2.80011e-02 -4.39205e-02        00000 
 2.76537e-02 -5.56841e-02        00000 
 4.83339e-02 -5.02685e-02        00000 
 5.07508e-02 -6.14712e-02        00000 
 7.12778e-02 -5.91882e-02        00000 
 7.56863e-02 -7.01648e-02        00000 
-1.36406e-01 -1.34334e-01        00000 
-1.57656e-01 -1.58099e-01        00000 
-1.01687e-01 -1.24029e-01        00000 
-1.20344e-01 -1.47058e-01        00000 
-6.87979e-02 -1.15142e-01        00000 
-8.45439e-02 -1.37216e-01        00000 
-3.89003e-02 -1.08377e-01        00000 
-5.09019e-02 -1.29332e-01        00000 
-1.06058e-02 -1.04258e-01        00000 
-1.93054e-02 -1.24141e-01        00000 
 1.80963e-02 -1.02857e-01        00000 
 1.20632e-02 -1.22084e-01        00000 
 4.87524e-02 -1.04856e-01        00000 
 4.51867e-02 -1.22948e-01        00000 
 8.18402e-02 -1.09802e-01        00000 
 8.07701e-02 -1.27083e-01        00000 
 1.15880e-01 -1.17736e-01        00000 
 1.17766e-01 -1.34515e-01        00000 
-1.80327e-01 -2.21822e-01        00000 
-2.01512e-01 -2.48036e-01        00000 
-1.37358e-01 -2.12687e-01        00000 
-1.56030e-01 -2.38943e-01        00000 
-9.59874e-02 -2.04392e-01        00000 
-1.12666e-01 -2.30751e-01        00000 
-5.52853e-02 -1.96978e-01        00000 
-6.97321e-02 -2.23684e-01        00000 
-1.44039e-02 -1.92577e-01        00000 
-2.58207e-02 -2.19183e-01        00000 
 2.64623e-02 -1.91562e-01        00000 
 1.78965e-02 -2.17513e-01        00000 
 6.82669e-02 -1.93150e-01        00000 
 6.17781e-02 -2.18551e-01        00000 
 1.12862e-01 -1.97358e-01        00000 
 1.08264e-01 -2.22401e-01        00000 
 1.61799e-01 -2.04995e-01        00000 
 1.58867e-01 -2.29661e-01        00000 
-2.16621e-01 -3.25026e-01        00000 