<?xml version="1.0" encoding="utf-8"?>
<VTKFile byte_order="LittleEndian" type="UnstructuredGrid" version="0.1">
   <UnstructuredGrid>
      <Piece NumberOfCells="1296" NumberOfPoints="685">
         <Points>
            <DataArray Name="Points" NumberOfComponents="3" format="ascii" type="Float32">
0.0000 0.0000 0.0000
0.0000 0.1111 0.0000
0.0000 0.2222 0.0000
0.0000 0.3333 0.0000
0.0000 0.4444 0.0000
0.0000 0.5556 0.0000
0.0000 0.6667 0.0000
0.0000 0.7778 0.0000
0.0000 0.8889 0.0000
0.0000 1.0000 0.0000
0.2222 0.0000 0.0000
0.2222 0.1111 0.0000
0.2222 0.2222 0.0000
0.2222 0.3333 0.0000
0.2222 0.4444 0.0000
0.2222 0.5556 0.0000
0.2222 0.6667 0.0000
0.2222 0.7778 0.0000
0.2222 0.8889 0.0000
0.2222 1.0000 0.0000
0.4444 0.0000 0.0000
0.4444 0.1111 0.0000
0.4444 0.2222 0.0000
0.4444 0.3333 0.0000
0.4444 0.4444 0.0000
0.4444 0.5556 0.0000
0.4444 0.6667 0.0000
0.4444 0.7778 0.0000
0.4444 0.8889 0.0000
0.4444 1.0000 0.0000
0.6667 0.0000 0.0000
0.6667 0.1111 0.0000
0.6667 0.2222 0.0000
0.6667 0.3333 0.0000
0.6667 0.4444 0.0000
0.6667 0.5556 0.0000
0.6667 0.6667 0.0000
0.6667 0.7778 0.0000
0.6667 0.8889 0.0000
0.6667 1.0000 0.0000
0.8889 0.0000 0.0000
0.8889 0.1111 0.0000
0.8889 0.2222 0.0000
0.8889 0.3333 0.0000
0.8889 0.4444 0.0000
0.8889 0.5556 0.0000
0.8889 0.6667 0.0000
0.8889 0.7778 0.0000
0.8889 0.8889 0.0000
0.8889 1.0000 0.0000
1.1111 0.0000 0.0000
1.1111 0.1111 0.0000
1.1111 0.2222 0.0000
1.1111 0.3333 0.0000
1.1111 0.4444 0.0000
1.1111 0.5556 0.0000
1.1111 0.6667 0.0000
1.1111 0.7778 0.0000
1.1111 0.8889 0.0000
1.1111 1.0000 0.0000
1.3333 0.0000 0.0000
1.3333 0.1111 0.0000
1.3333 0.2222 0.0000
1.3333 0.3333 0.0000
1.3333 0.4444 0.0000
1.3333 0.5556 0.0000
1.3333 0.6667 0.0000
1.3333 0.7778 0.0000
1.3333 0.8889 0.0000
1.3333 1.0000 0.0000
1.5556 0.0000 0.0000
1.5556 0.1111 0.0000
1.5556 0.2222 0.0000
1.5556 0.3333 0.0000
1.5556 0.4444 0.0000
1.5556 0.5556 0.0000
1.5556 0.6667 0.0000
1.5556 0.7778 0.0000
1.5556 0.8889 0.0000
1.5556 1.0000 0.0000
1.7778 0.0000 0.0000
1.7778 0.1111 0.0000
1.7778 0.2222 0.0000
1.7778 0.3333 0.0000
1.7778 0.4444 0.0000
1.7778 0.5556 0.0000
1.7778 0.6667 0.0000
1.7778 0.7778 0.0000
1.7778 0.8889 0.0000
1.7778 1.0000 0.0000
2.0000 0.0000 0.0000
2.0000 0.1111 0.0000
2.0000 0.2222 0.0000
2.0000 0.3333 0.0000
2.0000 0.4444 0.0000
2.0000 0.5556 0.0000
2.0000 0.6667 0.0000
2.0000 0.7778 0.0000
2.0000 0.8889 0.0000
2.0000 1.0000 0.0000
0.1111 0.0556 0.0000
0.1111 0.1667 0.0000
0.1111 0.2778 0.0000
0.1111 0.3889 0.0000
0.1111 0.5000 0.0000
0.1111 0.6111 0.0000
0.1111 0.7222 0.0000
0.1111 0.8333 0.0000
0.1111 0.9444 0.0000
0.3333 0.0556 0.0000
0.3333 0.1667 0.0000
0.3333 0.2778 0.0000
0.3333 0.3889 0.0000
0.3333 0.5000 0.0000
0.3333 0.6111 0.0000
0.3333 0.7222 0.0000
0.3333 0.8333 0.0000
0.3333 0.9444 0.0000
0.5556 0.0556 0.0000
0.5556 0.1667 0.0000
0.5556 0.2778 0.0000
0.5556 0.3889 0.0000
0.5556 0.5000 0.0000
0.5556 0.6111 0.0000
0.5556 0.7222 0.0000
0.5556 0.8333 0.0000
0.5556 0.9444 0.0000
0.7778 0.0556 0.0000
0.7778 0.1667 0.0000
0.7778 0.2778 0.0000
0.7778 0.3889 0.0000
0.7778 0.5000 0.0000
0.7778 0.6111 0.0000
0.7778 0.7222 0.0000
0.7778 0.8333 0.0000
0.7778 0.9444 0.0000
1.0000 0.0556 0.0000
1.0000 0.1667 0.0000
1.0000 0.2778 0.0000
1.0000 0.3889 0.0000
1.0000 0.5000 0.0000
1.0000 0.6111 0.0000
1.0000 0.7222 0.0000
1.0000 0.8333 0.0000
1.0000 0.9444 0.0000
1.2222 0.0556 0.0000
1.2222 0.1667 0.0000
1.2222 0.2778 0.0000
1.2222 0.3889 0.0000
1.2222 0.5000 0.0000
1.2222 0.6111 0.0000
1.2222 0.7222 0.0000
1.2222 0.8333 0.0000
1.2222 0.9444 0.0000
1.4444 0.0556 0.0000
1.4444 0.1667 0.0000
1.4444 0.2778 0.0000
1.4444 0.3889 0.0000
1.4444 0.5000 0.0000
1.4444 0.6111 0.0000
1.4444 0.7222 0.0000
1.4444 0.8333 0.0000
1.4444 0.9444 0.0000
1.6667 0.0556 0.0000
1.6667 0.1667 0.0000
1.6667 0.2778 0.0000
1.6667 0.3889 0.0000
1.6667 0.5000 0.0000
1.6667 0.6111 0.0000
1.6667 0.7222 0.0000
1.6667 0.8333 0.0000
1.6667 0.9444 0.0000
1.8889 0.0556 0.0000
1.8889 0.1667 0.0000
1.8889 0.2778 0.0000
1.8889 0.3889 0.0000
1.8889 0.5000 0.0000
1.8889 0.6111 0.0000
1.8889 0.7222 0.0000
1.8889 0.8333 0.0000
1.8889 0.9444 0.0000
0.0000 0.0556 0.0000
0.0556 0.0278 0.0000
0.0556 0.0833 0.0000
0.0000 0.1667 0.0000
0.0556 0.1389 0.0000
0.0556 0.1944 0.0000
0.0000 0.2778 0.0000
0.0556 0.2500 0.0000
0.0556 0.3056 0.0000
0.0000 0.3889 0.0000
0.0556 0.3611 0.0000
0.0556 0.4167 0.0000
0.0000 0.5000 0.0000
0.0556 0.4722 0.0000
0.0556 0.5278 0.0000
0.0000 0.6111 0.0000
0.0556 0.5833 0.0000
0.0556 0.6389 0.0000
0.0000 0.7222 0.0000
0.0556 0.6944 0.0000
0.0556 0.7500 0.0000
0.0000 0.8333 0.0000
0.0556 0.8056 0.0000
0.0556 0.8611 0.0000
0.0000 0.9444 0.0000
0.0556 0.9167 0.0000
0.0556 0.9722 0.0000
0.2222 0.0556 0.0000
0.2778 0.0278 0.0000
0.2778 0.0833 0.0000
0.2222 0.1667 0.0000
0.2778 0.1389 0.0000
0.2778 0.1944 0.0000
0.2222 0.2778 0.0000
0.2778 0.2500 0.0000
0.2778 0.3056 0.0000
0.2222 0.3889 0.0000
0.2778 0.3611 0.0000
0.2778 0.4167 0.0000
0.2222 0.5000 0.0000
0.2778 0.4722 0.0000
0.2778 0.5278 0.0000
0.2222 0.6111 0.0000
0.2778 0.5833 0.0000
0.2778 0.6389 0.0000
0.2222 0.7222 0.0000
0.2778 0.6944 0.0000
0.2778 0.7500 0.0000
0.2222 0.8333 0.0000
0.2778 0.8056 0.0000
0.2778 0.8611 0.0000
0.2222 0.9444 0.0000
0.2778 0.9167 0.0000
0.2778 0.9722 0.0000
0.4444 0.0556 0.0000
0.5000 0.0278 0.0000
0.5000 0.0833 0.0000
0.4444 0.1667 0.0000
0.5000 0.1389 0.0000
0.5000 0.1944 0.0000
0.4444 0.2778 0.0000
0.5000 0.2500 0.0000
0.5000 0.3056 0.0000
0.4444 0.3889 0.0000
0.5000 0.3611 0.0000
0.5000 0.4167 0.0000
0.4444 0.5000 0.0000
0.5000 0.4722 0.0000
0.5000 0.5278 0.0000
0.4444 0.6111 0.0000
0.5000 0.5833 0.0000
0.5000 0.6389 0.0000
0.4444 0.7222 0.0000
0.5000 0.6944 0.0000
0.5000 0.7500 0.0000
0.4444 0.8333 0.0000
0.5000 0.8056 0.0000
0.5000 0.8611 0.0000
0.4444 0.9444 0.0000
0.5000 0.9167 0.0000
0.5000 0.9722 0.0000
0.6667 0.0556 0.0000
0.7222 0.0278 0.0000
0.7222 0.0833 0.0000
0.6667 0.1667 0.0000
0.7222 0.1389 0.0000
0.7222 0.1944 0.0000
0.6667 0.2778 0.0000
0.7222 0.2500 0.0000
0.7222 0.3056 0.0000
0.6667 0.3889 0.0000
0.7222 0.3611 0.0000
0.7222 0.4167 0.0000
0.6667 0.5000 0.0000
0.7222 0.4722 0.0000
0.7222 0.5278 0.0000
0.6667 0.6111 0.0000
0.7222 0.5833 0.0000
0.7222 0.6389 0.0000
0.6667 0.7222 0.0000
0.7222 0.6944 0.0000
0.7222 0.7500 0.0000
0.6667 0.8333 0.0000
0.7222 0.8056 0.0000
0.7222 0.8611 0.0000
0.6667 0.9444 0.0000
0.7222 0.9167 0.0000
0.7222 0.9722 0.0000
0.8889 0.0556 0.0000
0.9444 0.0278 0.0000
0.9444 0.0833 0.0000
0.8889 0.1667 0.0000
0.9444 0.1389 0.0000
0.9444 0.1944 0.0000
0.8889 0.2778 0.0000
0.9444 0.2500 0.0000
0.9444 0.3056 0.0000
0.8889 0.3889 0.0000
0.9444 0.3611 0.0000
0.9444 0.4167 0.0000
0.8889 0.5000 0.0000
0.9444 0.4722 0.0000
0.9444 0.5278 0.0000
0.8889 0.6111 0.0000
0.9444 0.5833 0.0000
0.9444 0.6389 0.0000
0.8889 0.7222 0.0000
0.9444 0.6944 0.0000
0.9444 0.7500 0.0000
0.8889 0.8333 0.0000
0.9444 0.8056 0.0000
0.9444 0.8611 0.0000
0.8889 0.9444 0.0000
0.9444 0.9167 0.0000
0.9444 0.9722 0.0000
1.1111 0.0556 0.0000
1.1667 0.0278 0.0000
1.1667 0.0833 0.0000
1.1111 0.1667 0.0000
1.1667 0.1389 0.0000
1.1667 0.1944 0.0000
1.1111 0.2778 0.0000
1.1667 0.2500 0.0000
1.1667 0.3056 0.0000
1.1111 0.3889 0.0000
1.1667 0.3611 0.0000
1.1667 0.4167 0.0000
1.1111 0.5000 0.0000
1.1667 0.4722 0.0000
1.1667 0.5278 0.0000
1.1111 0.6111 0.0000
1.1667 0.5833 0.0000
1.1667 0.6389 0.0000
1.1111 0.7222 0.0000
1.1667 0.6944 0.0000
1.1667 0.7500 0.0000
1.1111 0.8333 0.0000
1.1667 0.8056 0.0000
1.1667 0.8611 0.0000
1.1111 0.9444 0.0000
1.1667 0.9167 0.0000
1.1667 0.9722 0.0000
1.3333 0.0556 0.0000
1.3889 0.0278 0.0000
1.3889 0.0833 0.0000
1.3333 0.1667 0.0000
1.3889 0.1389 0.0000
1.3889 0.1944 0.0000
1.3333 0.2778 0.0000
1.3889 0.2500 0.0000
1.3889 0.3056 0.0000
1.3333 0.3889 0.0000
1.3889 0.3611 0.0000
1.3889 0.4167 0.0000
1.3333 0.5000 0.0000
1.3889 0.4722 0.0000
1.3889 0.5278 0.0000
1.3333 0.6111 0.0000
1.3889 0.5833 0.0000
1.3889 0.6389 0.0000
1.3333 0.7222 0.0000
1.3889 0.6944 0.0000
1.3889 0.7500 0.0000
1.3333 0.8333 0.0000
1.3889 0.8056 0.0000
1.3889 0.8611 0.0000
1.3333 0.9444 0.0000
1.3889 0.9167 0.0000
1.3889 0.9722 0.0000
1.5556 0.0556 0.0000
1.6111 0.0278 0.0000
1.6111 0.0833 0.0000
1.5556 0.1667 0.0000
1.6111 0.1389 0.0000
1.6111 0.1944 0.0000
1.5556 0.2778 0.0000
1.6111 0.2500 0.0000
1.6111 0.3056 0.0000
1.5556 0.3889 0.0000
1.6111 0.3611 0.0000
1.6111 0.4167 0.0000
1.5556 0.5000 0.0000
1.6111 0.4722 0.0000
1.6111 0.5278 0.0000
1.5556 0.6111 0.0000
1.6111 0.5833 0.0000
1.6111 0.6389 0.0000
1.5556 0.7222 0.0000
1.6111 0.6944 0.0000
1.6111 0.7500 0.0000
1.5556 0.8333 0.0000
1.6111 0.8056 0.0000
1.6111 0.8611 0.0000
1.5556 0.9444 0.0000
1.6111 0.9167 0.0000
1.6111 0.9722 0.0000
1.7778 0.0556 0.0000
1.8333 0.0278 0.0000
1.8333 0.0833 0.0000
1.7778 0.1667 0.0000
1.8333 0.1389 0.0000
1.8333 0.1944 0.0000
1.7778 0.2778 0.0000
1.8333 0.2500 0.0000
1.8333 0.3056 0.0000
1.7778 0.3889 0.0000
1.8333 0.3611 0.0000
1.8333 0.4167 0.0000
1.7778 0.5000 0.0000
1.8333 0.4722 0.0000
1.8333 0.5278 0.0000
1.7778 0.6111 0.0000
1.8333 0.5833 0.0000
1.8333 0.6389 0.0000
1.7778 0.7222 0.0000
1.8333 0.6944 0.0000
1.8333 0.7500 0.0000
1.7778 0.8333 0.0000
1.8333 0.8056 0.0000
1.8333 0.8611 0.0000
1.7778 0.9444 0.0000
1.8333 0.9167 0.0000
1.8333 0.9722 0.0000
0.1111 0.1111 0.0000
0.1667 0.0833 0.0000
0.1111 0.2222 0.0000
0.1667 0.1944 0.0000
0.1111 0.3333 0.0000
0.1667 0.3056 0.0000
0.1111 0.4444 0.0000
0.1667 0.4167 0.0000
0.1111 0.5556 0.0000
0.1667 0.5278 0.0000
0.1111 0.6667 0.0000
0.1667 0.6389 0.0000
0.1111 0.7778 0.0000
0.1667 0.7500 0.0000
0.1111 0.8889 0.0000
0.1667 0.8611 0.0000
0.1111 1.0000 0.0000
0.1667 0.9722 0.0000
0.3333 0.1111 0.0000
0.3889 0.0833 0.0000
0.3333 0.2222 0.0000
0.3889 0.1944 0.0000
0.3333 0.3333 0.0000
0.3889 0.3056 0.0000
0.3333 0.4444 0.0000
0.3889 0.4167 0.0000
0.3333 0.5556 0.0000
0.3889 0.5278 0.0000
0.3333 0.6667 0.0000
0.3889 0.6389 0.0000
0.3333 0.7778 0.0000
0.3889 0.7500 0.0000
0.3333 0.8889 0.0000
0.3889 0.8611 0.0000
0.3333 1.0000 0.0000
0.3889 0.9722 0.0000
0.5556 0.1111 0.0000
[...]
         <PointData>
            <DataArray Name="fValues" NumberOfComponents="3" format="ascii" type="Float64">
-4.89506e-15 -5.50695e-15        00000 
-6.60273e-16 -6.60273e-17        00000 
 9.09844e-16  2.92161e-16        00000 
-6.57565e-16 -8.54835e-16        00000 
-3.73003e-16  4.03303e-16        00000 
       00000 -5.26052e-16        00000 
-9.61308e-16 -8.41660e-16        00000 
-3.94182e-16  7.55516e-16        00000 
 1.58503e-15 -1.18878e-15        00000 
-2.44753e-15        00000        00000 
-4.99372e+01 -3.79817e+01        00000 
-3.39765e+01 -2.92083e+01        00000 
-2.21497e+01 -2.30341e+01        00000 
-1.26280e+01 -1.94594e+01        00000 
-4.11340e+00 -1.78380e+01        00000 
 4.11236e+00 -1.78378e+01        00000 
 1.26271e+01 -1.94590e+01        00000 
 2.21490e+01 -2.30334e+01        00000 
 3.39758e+01 -2.92074e+01        00000 
 4.99361e+01 -3.79806e+01        00000 
-9.08859e+01 -8.07071e+01        00000 
-6.68854e+01 -7.30852e+01        00000 
-4.56019e+01 -6.71495e+01        00000 
-2.64811e+01 -6.31734e+01        00000 
-8.68264e+00 -6.12013e+01        00000 
 8.68076e+00 -6.12011e+01        00000 
 2.64793e+01 -6.31729e+01        00000 
 4.56004e+01 -6.71488e+01        00000 
 6.68841e+01 -7.30842e+01        00000 
 9.08847e+01 -8.07059e+01        00000 
-1.27030e+02 -1.39677e+02        00000 
-9.52009e+01 -1.33120e+02        00000 
-6.60269e+01 -1.28057e+02        00000 
-3.88089e+01 -1.24638e+02        00000 
-1.28007e+01 -1.22917e+02        00000 
 1.27980e+01 -1.22917e+02        00000 
 3.88062e+01 -1.24638e+02        00000 
 6.60243e+01 -1.28056e+02        00000 
 9.51985e+01 -1.33120e+02        00000 
 1.27028e+02 -1.39676e+02        00000 
-1.57802e+02 -2.13484e+02        00000 
-1.19164e+02 -2.08012e+02        00000 
-8.32005e+01 -2.03810e+02        00000 
-4.91491e+01 -2.00991e+02        00000 
-1.62548e+01 -1.99577e+02        00000 
 1.62517e+01 -1.99577e+02        00000 
 4.91459e+01 -2.00991e+02        00000 
 8.31972e+01 -2.03810e+02        00000 
 1.19161e+02 -2.08012e+02        00000 
 1.57799e+02 -2.13484e+02        00000 
-1.83016e+02 -2.99748e+02        00000 
-1.38779e+02 -2.95368e+02        00000 
-9.72168e+01 -2.92014e+02        00000 
-5.75631e+01 -2.89775e+02        00000 
-1.90604e+01 -2.88658e+02        00000 
 1.90571e+01 -2.88658e+02        00000 
 5.75597e+01 -2.89776e+02        00000 
 9.72132e+01 -2.92015e+02        00000 
 1.38775e+02 -2.95368e+02        00000 
 1.83012e+02 -2.99748e+02        00000 
-2.02651e+02 -3.95960e+02        00000 
-1.54042e+02 -3.92668e+02        00000 
-1.08085e+02 -3.90175e+02        00000 
-6.40573e+01 -3.88539e+02        00000 
-2.12193e+01 -3.87734e+02        00000 
 2.12158e+01 -3.87734e+02        00000 
 6.40538e+01 -3.88539e+02        00000 
 1.08081e+02 -3.90175e+02        00000 
 1.54038e+02 -3.92668e+02        00000 
 2.02647e+02 -3.95960e+02        00000 
-2.16846e+02 -4.99628e+02        00000 
-1.64970e+02 -4.97399e+02        00000 
-1.15695e+02 -4.95820e+02        00000 
-6.85087e+01 -4.94860e+02        00000 
-2.26812e+01 -4.94410e+02        00000 
 2.26780e+01 -4.94410e+02        00000 
 6.85057e+01 -4.94861e+02        00000 
 1.15692e+02 -4.95820e+02        00000 
 1.64966e+02 -4.97399e+02        00000 
 2.16842e+02 -4.99629e+02        00000 
-2.26276e+02 -6.08738e+02        00000 
-1.71497e+02 -6.07532e+02        00000 
-1.19779e+02 -6.06807e+02        00000 
-7.07651e+01 -6.06292e+02        00000 
-2.34058e+01 -6.06007e+02        00000 
 2.34033e+01 -6.06007e+02        00000 
 7.07625e+01 -6.06292e+02        00000 
 1.19776e+02 -6.06806e+02        00000 
 1.71494e+02 -6.07531e+02        00000 
 2.26273e+02 -6.08737e+02        00000 
-2.32088e+02 -7.27344e+02        00000 
-1.74216e+02 -7.24522e+02        00000 
-1.21668e+02 -7.21162e+02        00000 
-7.19649e+01 -7.18581e+02        00000 
-2.38206e+01 -7.17205e+02        00000 
 2.38184e+01 -7.17205e+02        00000 
 7.19622e+01 -7.18580e+02        00000 
 1.21665e+02 -7.21161e+02        00000 
 1.74213e+02 -7.24521e+02        00000 
 2.32085e+02 -7.27343e+02        00000 
-2.02082e+01 -1.61673e+01        00000 
-1.28976e+01 -9.86635e+00        00000 
-8.02351e+00 -6.81097e+00        00000 
-3.88147e+00 -5.35357e+00        00000 
-2.65229e-04 -4.91727e+00        00000 
 3.88099e+00 -5.35335e+00        00000 
 8.02316e+00 -6.81054e+00        00000 
 1.28973e+01 -9.86585e+00        00000 
 2.02077e+01 -1.61667e+01        00000 
-6.06339e+01 -5.30788e+01        00000 
-4.22472e+01 -4.57596e+01        00000 
-2.66826e+01 -4.05977e+01        00000 
-1.29302e+01 -3.76361e+01        00000 
-7.66283e-04 -3.66782e+01        00000 
 1.29288e+01 -3.76358e+01        00000 
 2.66813e+01 -4.05970e+01        00000 
 4.22461e+01 -4.57588e+01        00000 
 6.06329e+01 -5.30777e+01        00000 
-9.52270e+01 -1.04484e+02        00000 
-6.86143e+01 -9.81452e+01        00000 
-4.43522e+01 -9.35203e+01        00000 
-2.17510e+01 -9.07208e+01        00000 
-1.20377e-03 -8.97854e+01        00000 
 2.17487e+01 -9.07206e+01        00000 
 4.43500e+01 -9.35199e+01        00000 
 6.86123e+01 -9.81445e+01        00000 
 9.52254e+01 -1.04483e+02        00000 
-1.25032e+02 -1.71708e+02        00000 
-9.10827e+01 -1.66351e+02        00000 
-5.94236e+01 -1.62473e+02        00000 
-2.93184e+01 -1.60129e+02        00000 
-1.45628e-03 -1.59345e+02        00000 
 2.93155e+01 -1.60129e+02        00000 
 5.94206e+01 -1.62473e+02        00000 
 9.10796e+01 -1.66352e+02        00000 
 1.25029e+02 -1.71707e+02        00000 
-1.49925e+02 -2.52626e+02        00000 
-1.09772e+02 -2.48246e+02        00000 
-7.19061e+01 -2.45089e+02        00000 
-3.55697e+01 -2.43191e+02        00000 
-1.63283e-03 -2.42558e+02        00000 
 3.55665e+01 -2.43192e+02        00000 
 7.19027e+01 -2.45090e+02        00000 
 1.09769e+02 -2.48246e+02        00000 
 1.49921e+02 -2.52626e+02        00000 
-1.69856e+02 -3.44751e+02        00000 
-1.24715e+02 -3.41348e+02        00000 
-8.18582e+01 -3.38911e+02        00000 
-4.05409e+01 -3.37458e+02        00000 
-1.72828e-03 -3.36976e+02        00000 
 4.05374e+01 -3.37458e+02        00000 
 8.18546e+01 -3.38912e+02        00000 
 1.24711e+02 -3.41348e+02        00000 
 1.69852e+02 -3.44752e+02        00000 
-1.84856e+02 -4.45557e+02        00000 
-1.35891e+02 -4.43139e+02        00000 
-8.92277e+01 -4.41468e+02        00000 
-4.41909e+01 -4.40507e+02        00000 
-1.77778e-03 -4.40195e+02        00000 
 4.41875e+01 -4.40507e+02        00000 
 8.92242e+01 -4.41469e+02        00000 
 1.35887e+02 -4.43140e+02        00000 
 1.84852e+02 -4.45558e+02        00000 
-1.95106e+02 -5.52630e+02        00000 
-1.43169e+02 -5.51226e+02        00000 
-9.37973e+01 -5.50381e+02        00000 
-4.63865e+01 -5.49920e+02        00000 
-1.42950e-03 -5.49772e+02        00000 
 4.63838e+01 -5.49920e+02        00000 
 9.37946e+01 -5.50381e+02        00000 
 1.43166e+02 -5.51226e+02        00000 
 1.95102e+02 -5.52630e+02        00000 
-2.00786e+02 -6.65254e+02        00000 
-1.46392e+02 -6.64371e+02        00000 
-9.57091e+01 -6.63301e+02        00000 
-4.73079e+01 -6.62475e+02        00000 
-1.08934e-03 -6.62170e+02        00000 
 4.73055e+01 -6.62475e+02        00000 
 9.57063e+01 -6.63300e+02        00000 
 1.46389e+02 -6.64370e+02        00000 
 2.00782e+02 -6.65254e+02        00000 
-9.23581e-16  1.20050e-17        00000 
-1.10449e+01 -8.44205e+00        00000 
-8.38407e+00 -5.94571e+00        00000 
 2.34636e-15  1.45011e-15        00000 
-6.76264e+00 -4.38254e+00        00000 
-5.48116e+00 -3.32303e+00        00000 
-2.49800e-16 -2.49800e-16        00000 
-4.35739e+00 -2.58269e+00        00000 
-3.32201e+00 -2.06495e+00        00000 
-1.87633e-16  1.82583e-16        00000 
-2.34069e+00 -1.71370e+00        00000 
-1.39240e+00 -1.49535e+00        00000 
 3.12250e-17 -4.37150e-16        00000 
-4.62274e-01 -1.39058e+00        00000 
 4.62065e-01 -1.39055e+00        00000 
 2.22668e-16 -4.70734e-17        00000 
 1.39220e+00 -1.49526e+00        00000 
 2.34046e+00 -1.71353e+00        00000 
-1.12410e-15 -8.74301e-16        00000 
 3.32183e+00 -2.06468e+00        00000 
 4.35724e+00 -2.58242e+00        00000 
 3.99680e-15        00000        00000 
 5.48102e+00 -3.32275e+00        00000 
 6.76247e+00 -4.38227e+00        00000 
-2.89727e-15  7.37957e-16        00000 
 8.38387e+00 -5.94541e+00        00000 
 1.10447e+01 -8.44172e+00        00000 
-4.14859e+01 -3.34107e+01        00000 
-5.58140e+01 -4.51798e+01        00000 
-4.68541e+01 -4.07863e+01        00000 
-2.76503e+01 -2.57506e+01        00000 
-3.87498e+01 -3.69429e+01        00000 
-3.15350e+01 -3.37528e+01        00000 
-1.72032e+01 -2.09682e+01        00000 
-2.50154e+01 -3.12095e+01        00000 
-1.90021e+01 -2.92637e+01        00000 
-8.29653e+00 -1.84334e+01        00000 
-1.33434e+01 -2.78597e+01        00000 
-7.91816e+00 -2.69508e+01        00000 
-5.50598e-04 -1.76427e+01        00000 
-2.62550e+00 -2.65045e+01        00000 
 2.62418e+00 -2.65044e+01        00000 
 8.29555e+00 -1.84331e+01        00000 
 7.91691e+00 -2.69505e+01        00000 
 1.33422e+01 -2.78593e+01        00000 
 1.72024e+01 -2.09676e+01        00000 
 1.90010e+01 -2.92632e+01        00000 
 2.50144e+01 -3.12089e+01        00000 
 2.76496e+01 -2.57498e+01        00000 
 3.15341e+01 -3.37520e+01        00000 
 3.87489e+01 -3.69421e+01        00000 
 4.14850e+01 -3.34097e+01        00000 
 4.68531e+01 -4.07853e+01        00000 
 5.58129e+01 -4.51786e+01        00000 
-7.85224e+01 -7.67164e+01        00000 
-9.36125e+01 -9.22262e+01        00000 
-8.06115e+01 -8.83738e+01        00000 
-5.59302e+01 -6.98830e+01        00000 
-6.83054e+01 -8.50201e+01        00000 
-5.66366e+01 -8.21371e+01        00000 
-3.58202e+01 -6.49100e+01        00000 
-4.55340e+01 -7.97253e+01        00000 
-3.49102e+01 -7.77922e+01        00000 
-1.74727e+01 -6.19389e+01        00000 
-2.46648e+01 -7.63425e+01        00000 
-1.46908e+01 -7.53771e+01        00000 
-9.39924e-04 -6.09560e+01        00000 
-4.87963e+00 -7.48948e+01        00000 
 4.87743e+00 -7.48947e+01        00000 
 1.74708e+01 -6.19386e+01        00000 
 1.46886e+01 -7.53768e+01        00000 
 2.46627e+01 -7.63422e+01        00000 
 3.58185e+01 -6.49094e+01        00000 
 3.49082e+01 -7.77918e+01        00000 
 4.55321e+01 -7.97247e+01        00000 
 5.59287e+01 -6.98821e+01        00000 
 5.66348e+01 -8.21363e+01        00000 
 6.83037e+01 -8.50193e+01        00000 
 7.85211e+01 -7.67152e+01        00000 
 8.06101e+01 -8.83728e+01        00000 
 9.36112e+01 -9.22251e+01        00000 
-1.10737e+02 -1.36234e+02        00000 
-1.26531e+02 -1.55357e+02        00000 
-1.09730e+02 -1.52061e+02        00000 
-8.03254e+01 -1.30388e+02        00000 
-9.36333e+01 -1.49208e+02        00000 
-7.81550e+01 -1.46767e+02        00000 
-5.22185e+01 -1.26138e+02        00000 
-6.32064e+01 -1.44729e+02        00000 
-4.86973e+01 -1.43094e+02        00000 
-2.57027e+01 -1.23563e+02        00000 
-3.45341e+01 -1.41863e+02        00000 
-2.06205e+01 -1.41041e+02        00000 
-1.37965e-03 -1.22701e+02        00000 
-6.85766e+00 -1.40629e+02        00000 
 6.85483e+00 -1.40629e+02        00000 
 2.57000e+01 -1.23563e+02        00000 
 2.06177e+01 -1.41041e+02        00000 
 3.45313e+01 -1.41863e+02        00000 
 5.22157e+01 -1.26138e+02        00000 
 4.86944e+01 -1.43094e+02        00000 
 6.32035e+01 -1.44729e+02        00000 
 8.03229e+01 -1.30387e+02        00000 
 7.81521e+01 -1.46767e+02        00000 
 9.36306e+01 -1.49208e+02        00000 
 1.10735e+02 -1.36233e+02        00000 
 1.09727e+02 -1.52061e+02        00000 
 1.26528e+02 -1.55356e+02        00000 
-1.38098e+02 -2.10608e+02        00000 
-1.54288e+02 -2.32764e+02        00000 
-1.34231e+02 -2.30038e+02        00000 
-1.00897e+02 -2.05741e+02        00000 
-1.14886e+02 -2.27683e+02        00000 
-9.61595e+01 -2.25673e+02        00000 
-6.59826e+01 -2.02226e+02        00000 
-7.79572e+01 -2.24000e+02        00000 
-6.01853e+01 -2.22662e+02        00000 
-3.26051e+01 -2.00107e+02        00000 
-4.27492e+01 -2.21657e+02        00000 
-2.55537e+01 -2.20987e+02        00000 
-1.58954e-03 -1.99400e+02        00000 
-8.50291e+00 -2.20652e+02        00000 
 8.49968e+00 -2.20652e+02        00000 
 3.26020e+01 -2.00107e+02        00000 
 2.55505e+01 -2.20987e+02        00000 
 4.27460e+01 -2.21657e+02        00000 
 6.59794e+01 -2.02226e+02        00000 
 6.01820e+01 -2.22662e+02        00000 
 7.79539e+01 -2.24001e+02        00000 
 1.00893e+02 -2.05741e+02        00000 
 9.61561e+01 -2.25674e+02        00000 
 1.14883e+02 -2.27683e+02        00000 
 1.38094e+02 -2.10608e+02        00000 
 1.34228e+02 -2.30038e+02        00000 
 1.54285e+02 -2.32764e+02        00000 
-1.60511e+02 -2.97445e+02        00000 
-1.76783e+02 -3.22005e+02        00000 
-1.54080e+02 -3.19852e+02        00000 
-1.17712e+02 -2.93554e+02        00000 
-1.32089e+02 -3.17994e+02        00000 
-1.10715e+02 -3.16412e+02        00000 
-7.71986e+01 -2.90755e+02        00000 
-8.98654e+01 -3.15099e+02        00000 
-6.94463e+01 -3.14052e+02        00000 
-3.82155e+01 -2.89077e+02        00000 
-4.93635e+01 -3.13268e+02        00000 
-2.95220e+01 -3.12746e+02        00000 
-1.70253e-03 -2.88518e+02        00000 
-9.82568e+00 -3.12486e+02        00000 
 9.82222e+00 -3.12486e+02        00000 
 3.82122e+01 -2.89077e+02        00000 
 2.95186e+01 -3.12747e+02        00000 
 4.93601e+01 -3.13268e+02        00000 
 7.71951e+01 -2.90755e+02        00000 
 6.94428e+01 -3.14052e+02        00000 
 8.98617e+01 -3.15099e+02        00000 
 1.17708e+02 -2.93554e+02        00000 
 1.10711e+02 -3.16412e+02        00000 
 1.32085e+02 -3.17994e+02        00000 
 1.60506e+02 -2.97446e+02        00000 
 1.54076e+02 -3.19852e+02        00000 
 1.76779e+02 -3.22006e+02        00000 
-1.77966e+02 -3.94227e+02        00000 
-1.94024e+02 -4.20562e+02        00000 
-1.69283e+02 -4.18977e+02        00000 
-1.30778e+02 -3.91314e+02        00000 
-1.45240e+02 -4.17619e+02        00000 
-1.21811e+02 -4.16475e+02        00000 
-8.58750e+01 -3.89251e+02        00000 
-9.89131e+01 -4.15538e+02        00000 
-7.64590e+01 -4.14800e+02        00000 
-4.25379e+01 -3.88035e+02        00000 
-5.43573e+01 -4.14255e+02        00000 
-3.25116e+01 -4.13896e+02        00000 
-1.78829e-03 -3.87634e+02        00000 
-1.08210e+01 -4.13717e+02        00000 
 1.08175e+01 -4.13717e+02        00000 
 4.25344e+01 -3.88035e+02        00000 
 3.25080e+01 -4.13896e+02        00000 
 5.43539e+01 -4.14255e+02        00000 
 8.58713e+01 -3.89251e+02        00000 
 7.64555e+01 -4.14800e+02        00000 
 9.89094e+01 -4.15538e+02        00000 
 1.30774e+02 -3.91314e+02        00000 
 1.21807e+02 -4.16475e+02        00000 
 1.45236e+02 -4.17619e+02        00000 
 1.77962e+02 -3.94227e+02        00000 
 1.69279e+02 -4.18977e+02        00000 
 1.94020e+02 -4.20563e+02        00000 
-1.90553e+02 -4.98442e+02        00000 
-2.06192e+02 -5.25973e+02        00000 
-1.79913e+02 -5.24932e+02        00000 
-1.40035e+02 -4.96525e+02        00000 
-1.54299e+02 -5.24084e+02        00000 
-1.29320e+02 -5.23412e+02        00000 
-9.18810e+01 -4.95270e+02        00000 
-1.04930e+02 -5.22891e+02        00000 
-8.10522e+01 -5.22497e+02        00000 
-4.54785e+01 -4.94577e+02        00000 
-5.75897e+01 -5.22215e+02        00000 
-3.44311e+01 -5.22033e+02        00000 
-1.60936e-03 -4.94355e+02        00000 
-1.14574e+01 -5.21943e+02        00000 
 1.14543e+01 -5.21943e+02        00000 
 4.54754e+01 -4.94577e+02        00000 
 3.44281e+01 -5.22033e+02        00000 
 5.75868e+01 -5.22215e+02        00000 
 9.18779e+01 -4.95271e+02        00000 
 8.10494e+01 -5.22498e+02        00000 
 1.04927e+02 -5.22891e+02        00000 
 1.40032e+02 -4.96526e+02        00000 
 1.29317e+02 -5.23412e+02        00000 
 1.54295e+02 -5.24084e+02        00000 
 1.90549e+02 -4.98442e+02        00000 
 1.79910e+02 -5.24932e+02        00000 
 2.06188e+02 -5.25973e+02        00000 
-1.98568e+02 -6.08040e+02        00000 
-2.13940e+02 -6.36689e+02        00000 
-1.86002e+02 -6.36170e+02        00000 
-1.45244e+02 -6.07137e+02        00000 
-1.59033e+02 -6.35771e+02        00000 
-1.32996e+02 -6.35399e+02        00000 
-9.49964e+01 -6.06525e+02        00000 
-1.07755e+02 -6.35042e+02        00000 
-8.31569e+01 -6.34715e+02        00000 
-4.69478e+01 -6.06116e+02        00000 
-5.90513e+01 -6.34445e+02        00000 
-3.52933e+01 -6.34251e+02        00000 
-1.25915e-03 -6.05970e+02        00000 
-1.17423e+01 -6.34150e+02        00000 
 1.17400e+01 -6.34150e+02        00000 
 4.69452e+01 -6.06116e+02        00000 
 3.52909e+01 -6.34251e+02        00000 
 5.90487e+01 -6.34444e+02        00000 
 9.49938e+01 -6.06524e+02        00000 
 8.31542e+01 -6.34715e+02        00000 
 1.07752e+02 -6.35041e+02        00000 
 1.45241e+02 -6.07136e+02        00000 
 1.32993e+02 -6.35399e+02        00000 
 1.59030e+02 -6.35771e+02        00000 
 1.98564e+02 -6.08039e+02        00000 
 1.85998e+02 -6.36169e+02        00000 
 2.13936e+02 -6.36689e+02        00000 
-1.59923e+01 -1.24248e+01        00000 
-2.78548e+01 -2.24902e+01        00000 
-1.03188e+01 -8.07514e+00        00000 
-1.80933e+01 -1.59866e+01        00000 
-5.89941e+00 -5.93223e+00        00000 
-1.08270e+01 -1.24448e+01        00000 
-1.92621e+00 -5.02427e+00        00000 
-4.50709e+00 -1.07608e+01        00000 
 1.92573e+00 -5.02415e+00        00000 
 1.49362e+00 -1.04453e+01        00000 
 5.89897e+00 -5.93189e+00        00000 
 7.59622e+00 -1.14120e+01        00000 
 1.03185e+01 -8.07466e+00        00000 
 1.42822e+01 -1.39317e+01        00000 
 1.59920e+01 -1.24242e+01        00000 
 2.24778e+01 -1.87685e+01        00000 
 2.78701e+01 -2.17521e+01        00000 
 3.50644e+01 -2.73086e+01        00000 
-5.10561e+01 -4.91822e+01        00000 
-6.43314e+01 -6.25335e+01        00000 
-3.41676e+01 -4.28931e+01        00000 
-4.45185e+01 -5.58377e+01        00000 
-1.96472e+01 -3.88548e+01        00000 
-2.71637e+01 -5.12529e+01        00000 
-6.41619e+00 -3.69163e+01        00000 
-1.13742e+01 -4.87643e+01        00000 
 6.41468e+00 -3.69161e+01        00000 
 3.77276e+00 -4.82732e+01        00000 
 1.96458e+01 -3.88543e+01        00000 
 1.91316e+01 -4.97528e+01        00000 
 3.41665e+01 -4.28923e+01        00000 
 3.55831e+01 -5.32770e+01        00000 
 5.10551e+01 -4.91812e+01        00000 
 5.40770e+01 -5.89282e+01        00000 
 7.09582e+01 -5.73390e+01        00000 
 7.53016e+01 -6.66544e+01        00000 
-8.15896e+01 -1.01112e+02        00000 
-9.57440e+01 -1.18287e+02        00000 
-5.62290e+01 -9.56094e+01        00000 
-6.78427e+01 -1.12523e+02        00000 
-3.28928e+01 -9.18888e+01        00000 
-4.20964e+01 -1.08509e+02        00000 
-1.08226e+01 -9.00194e+01        00000 
-1.77812e+01 -1.06263e+02        00000 
 1.08202e+01 -9.00192e+01        00000 
 5.90786e+00 -1.05813e+02        00000 
 3.28905e+01 -9.18884e+01        00000 
 2.98064e+01 -1.07162e+02        00000 
 5.62269e+01 -9.56088e+01        00000 
 5.47406e+01 -1.10297e+02        00000 
 8.15877e+01 -1.01111e+02        00000 
 8.14805e+01 -1.15184e+02        00000 
 1.09604e+02 -1.08203e+02        00000 
 1.10702e+02 -1.21863e+02        00000 
-1.07726e+02 -1.68852e+02        00000 
-1.22561e+02 -1.89413e+02        00000 
-7.50123e+01 -1.64222e+02        00000 
-8.75904e+01 -1.84585e+02        00000 
-4.42240e+01 -1.61107e+02        00000 
-5.47227e+01 -1.81246e+02        00000 
-1.46104e+01 -1.59541e+02        00000 
-2.32094e+01 -1.79385e+02        00000 
 1.46075e+01 -1.59542e+02        00000 
 7.71812e+00 -1.79012e+02        00000 
 4.42210e+01 -1.61107e+02        00000 
 3.88412e+01 -1.80130e+02        00000 
 7.50092e+01 -1.64223e+02        00000 
 7.09369e+01 -1.82732e+02        00000 
 1.07723e+02 -1.68852e+02        00000 
 1.04763e+02 -1.86809e+02        00000 
 1.43103e+02 -1.74868e+02        00000 
 1.41061e+02 -1.92424e+02        00000 
-1.29516e+02 -2.50289e+02        00000 