<?xml version="1.0" encoding="utf-8"?>
<VTKFile byte_order="LittleEndian" type="UnstructuredGrid" version="0.1">
   <UnstructuredGrid>
      <Piece NumberOfCells="1296" NumberOfPoints="685">
         <Points>
            <DataArray Name="Points" NumberOfComponents="3" format="ascii" type="Float32">
0.0000 0.0000 0.0000
0.0000 0.1111 0.0000
0.0000 0.2222 0.0000
0.0000 0.3333 0.0000
0.0000 0.4444 0.0000
0.0000 0.5556 0.0000
0.0000 0.6667 0.0000
0.0000 0.7778 0.0000
0.0000 0.8889 0.0000
0.0000 1.0000 0.0000
0.2222 0.0000 0.0000
0.2222 0.1111 0.0000
0.2222 0.2222 0.0000
0.2222 0.3333 0.0000
0.2222 0.4444 0.0000
0.2222 0.5556 0.0000
0.2222 0.6667 0.0000
0.2222 0.7778 0.0000
0.2222 0.8889 0.0000
0.2222 1.0000 0.0000
0.4444 0.0000 0.0000
0.4444 0.1111 0.0000
0.4444 0.2222 0.0000
0.4444 0.3333 0.0000
0.4444 0.4444 0.0000
0.4444 0.5556 0.0000
0.4444 0.6667 0.0000
0.4444 0.7778 0.0000
0.4444 0.8889 0.0000
0.4444 1.0000 0.0000
0.6667 0.0000 0.0000
0.6667 0.1111 0.0000
0.6667 0.2222 0.0000
0.6667 0.3333 0.0000
0.6667 0.4444 0.0000
0.6667 0.5556 0.0000
0.6667 0.6667 0.0000
0.6667 0.7778 0.0000
0.6667 0.8889 0.0000
0.6667 1.0000 0.0000
0.8889 0.0000 0.0000
0.8889 0.1111 0.0000
0.8889 0.2222 0.0000
0.8889 0.3333 0.0000
0.8889 0.4444 0.0000
0.8889 0.5556 0.0000
0.8889 0.6667 0.0000
0.8889 0.7778 0.0000
0.8889 0.8889 0.0000
0.8889 1.0000 0.0000
1.1111 0.0000 0.0000
1.1111 0.1111 0.0000
1.1111 0.2222 0.0000
1.1111 0.3333 0.0000
1.1111 0.4444 0.0000
1.1111 0.5556 0.0000
1.1111 0.6667 0.0000
1.1111 0.7778 0.0000
1.1111 0.8889 0.0000
1.1111 1.0000 0.0000
1.3333 0.0000 0.0000
1.3333 0.1111 0.0000
1.3333 0.2222 0.0000
1.3333 0.3333 0.0000
1.3333 0.4444 0.0000
1.3333 0.5556 0.0000
1.3333 0.6667 0.0000
1.3333 0.7778 0.0000
1.3333 0.8889 0.0000
1.3333 1.0000 0.0000
1.5556 0.0000 0.0000
1.5556 0.1111 0.0000
1.5556 0.2222 0.0000
1.5556 0.3333 0.0000
1.5556 0.4444 0.0000
1.5556 0.5556 0.0000
1.5556 0.6667 0.0000
1.5556 0.7778 0.0000
1.5556 0.8889 0.0000
1.5556 1.0000 0.0000
1.7778 0.0000 0.0000
1.7778 0.1111 0.0000
1.7778 0.2222 0.0000
1.7778 0.3333 0.0000
1.7778 0.4444 0.0000
1.7778 0.5556 0.0000
1.7778 0.6667 0.0000
1.7778 0.7778 0.0000
1.7778 0.8889 0.0000
1.7778 1.0000 0.0000
2.0000 0.0000 0.0000
2.0000 0.1111 0.0000
2.0000 0.2222 0.0000
2.0000 0.3333 0.0000
2.0000 0.4444 0.0000
2.0000 0.5556 0.0000
2.0000 0.6667 0.0000
2.0000 0.7778 0.0000
2.0000 0.8889 0.0000
2.0000 1.0000 0.0000
0.1111 0.0556 0.0000
0.1111 0.1667 0.0000
0.1111 0.2778 0.0000
0.1111 0.3889 0.0000
0.1111 0.5000 0.0000
0.1111 0.6111 0.0000
0.1111 0.7222 0.0000
0.1111 0.8333 0.0000
0.1111 0.9444 0.0000
0.3333 0.0556 0.0000
0.3333 0.1667 0.0000
0.3333 0.2778 0.0000
0.3333 0.3889 0.0000
0.3333 0.5000 0.0000
0.3333 0.6111 0.0000
0.3333 0.7222 0.0000
0.3333 0.8333 0.0000
0.3333 0.9444 0.0000
0.5556 0.0556 0.0000
0.5556 0.1667 0.0000
0.5556 0.2778 0.0000
0.5556 0.3889 0.0000
0.5556 0.5000 0.0000
0.5556 0.6111 0.0000
0.5556 0.7222 0.0000
0.5556 0.8333 0.0000
0.5556 0.9444 0.0000
0.7778 0.0556 0.0000
0.7778 0.1667 0.0000
0.7778 0.2778 0.0000
0.7778 0.3889 0.0000
0.7778 0.5000 0.0000
0.7778 0.6111 0.0000
0.7778 0.7222 0.0000
0.7778 0.8333 0.0000
0.7778 0.9444 0.0000
1.0000 0.0556 0.0000
1.0000 0.1667 0.0000
1.0000 0.2778 0.0000
1.0000 0.3889 0.0000
1.0000 0.5000 0.0000
1.0000 0.6111 0.0000
1.0000 0.7222 0.0000
1.0000 0.8333 0.0000
1.0000 0.9444 0.0000
1.2222 0.0556 0.0000
1.2222 0.1667 0.0000
1.2222 0.2778 0.0000
1.2222 0.3889 0.0000
1.2222 0.5000 0.0000
1.2222 0.6111 0.0000
1.2222 0.7222 0.0000
1.2222 0.8333 0.0000
1.2222 0.9444 0.0000
1.4444 0.0556 0.0000
1.4444 0.1667 0.0000
1.4444 0.2778 0.0000
1.4444 0.3889 0.0000
1.4444 0.5000 0.0000
1.4444 0.6111 0.0000
1.4444 0.7222 0.0000
1.4444 0.8333 0.0000
1.4444 0.9444 0.0000
1.6667 0.0556 0.0000
1.6667 0.1667 0.0000
1.6667 0.2778 0.0000
1.6667 0.3889 0.0000
1.6667 0.5000 0.0000
1.6667 0.6111 0.0000
1.6667 0.7222 0.0000
1.6667 0.8333 0.0000
1.6667 0.9444 0.0000
1.8889 0.0556 0.0000
1.8889 0.1667 0.0000
1.8889 0.2778 0.0000
1.8889 0.3889 0.0000
1.8889 0.5000 0.0000
1.8889 0.6111 0.0000
1.8889 0.7222 0.0000
1.8889 0.8333 0.0000
1.8889 0.9444 0.0000
0.0000 0.0556 0.0000
0.0556 0.0278 0.0000
0.0556 0.0833 0.0000
0.0000 0.1667 0.0000
0.0556 0.1389 0.0000
0.0556 0.1944 0.0000
0.0000 0.2778 0.0000
0.0556 0.2500 0.0000
0.0556 0.3056 0.0000
0.0000 0.3889 0.0000
0.0556 0.3611 0.0000
0.0556 0.4167 0.0000
0.0000 0.5000 0.0000
0.0556 0.4722 0.0000
0.0556 0.5278 0.0000
0.0000 0.6111 0.0000
0.0556 0.5833 0.0000
0.0556 0.6389 0.0000
0.0000 0.7222 0.0000
0.0556 0.6944 0.0000
0.0556 0.7500 0.0000
0.0000 0.8333 0.0000
0.0556 0.8056 0.0000
0.0556 0.8611 0.0000
0.0000 0.9444 0.0000
0.0556 0.9167 0.0000
0.0556 0.9722 0.0000
0.2222 0.0556 0.0000
0.2778 0.0278 0.0000
0.2778 0.0833 0.0000
0.2222 0.1667 0.0000
0.2778 0.1389 0.0000
0.2778 0.1944 0.0000
0.2222 0.2778 0.0000
0.2778 0.2500 0.0000
0.2778 0.3056 0.0000
0.2222 0.3889 0.0000
0.2778 0.3611 0.0000
0.2778 0.4167 0.0000
0.2222 0.5000 0.0000
0.2778 0.4722 0.0000
0.2778 0.5278 0.0000
0.2222 0.6111 0.0000
0.2778 0.5833 0.0000
0.2778 0.6389 0.0000
0.2222 0.7222 0.0000
0.2778 0.6944 0.0000
0.2778 0.7500 0.0000
0.2222 0.8333 0.0000
0.2778 0.8056 0.0000
0.2778 0.8611 0.0000
0.2222 0.9444 0.0000
0.2778 0.9167 0.0000
0.2778 0.9722 0.0000
0.4444 0.0556 0.0000
0.5000 0.0278 0.0000
0.5000 0.0833 0.0000
0.4444 0.1667 0.0000
0.5000 0.1389 0.0000
0.5000 0.1944 0.0000
0.4444 0.2778 0.0000
0.5000 0.2500 0.0000
0.5000 0.3056 0.0000
0.4444 0.3889 0.0000
0.5000 0.3611 0.0000
0.5000 0.4167 0.0000
0.4444 0.5000 0.0000
0.5000 0.4722 0.0000
0.5000 0.5278 0.0000
0.4444 0.6111 0.0000
0.5000 0.5833 0.0000
0.5000 0.6389 0.0000
0.4444 0.7222 0.0000
0.5000 0.6944 0.0000
0.5000 0.7500 0.0000
0.4444 0.8333 0.0000
0.5000 0.8056 0.0000
0.5000 0.8611 0.0000
0.4444 0.9444 0.0000
0.5000 0.9167 0.0000
0.5000 0.9722 0.0000
0.6667 0.0556 0.0000
0.7222 0.0278 0.0000
0.7222 0.0833 0.0000
0.6667 0.1667 0.0000
0.7222 0.1389 0.0000
0.7222 0.1944 0.0000
0.6667 0.2778 0.0000
0.7222 0.2500 0.0000
0.7222 0.3056 0.0000
0.6667 0.3889 0.0000
0.7222 0.3611 0.0000
0.7222 0.4167 0.0000
0.6667 0.5000 0.0000
0.7222 0.4722 0.0000
0.7222 0.5278 0.0000
0.6667 0.6111 0.0000
0.7222 0.5833 0.0000
0.7222 0.6389 0.0000
0.6667 0.7222 0.0000
0.7222 0.6944 0.0000
0.7222 0.7500 0.0000
0.6667 0.8333 0.0000
0.7222 0.8056 0.0000
0.7222 0.8611 0.0000
0.6667 0.9444 0.0000
0.7222 0.9167 0.0000
0.7222 0.9722 0.0000
0.8889 0.0556 0.0000
0.9444 0.0278 0.0000
0.9444 0.0833 0.0000
0.8889 0.1667 0.0000
0.9444 0.1389 0.0000
0.9444 0.1944 0.0000
0.8889 0.2778 0.0000
0.9444 0.2500 0.0000
0.9444 0.3056 0.0000
0.8889 0.3889 0.0000
0.9444 0.3611 0.0000
0.9444 0.4167 0.0000
0.8889 0.5000 0.0000
0.9444 0.4722 0.0000
0.9444 0.5278 0.0000
0.8889 0.6111 0.0000
0.9444 0.5833 0.0000
0.9444 0.6389 0.0000
0.8889 0.7222 0.0000
0.9444 0.6944 0.0000
0.9444 0.7500 0.0000
0.8889 0.8333 0.0000
0.9444 0.8056 0.0000
0.9444 0.8611 0.0000
0.8889 0.9444 0.0000
0.9444 0.9167 0.0000
0.9444 0.9722 0.0000
1.1111 0.0556 0.0000
1.1667 0.0278 0.0000
1.1667 0.0833 0.0000
1.1111 0.1667 0.0000
1.1667 0.1389 0.0000
1.1667 0.1944 0.0000
1.1111 0.2778 0.0000
1.1667 0.2500 0.0000
1.1667 0.3056 0.0000
1.1111 0.3889 0.0000
1.1667 0.3611 0.0000
1.1667 0.4167 0.0000
1.1111 0.5000 0.0000
1.1667 0.4722 0.0000
1.1667 0.5278 0.0000
1.1111 0.6111 0.0000
1.1667 0.5833 0.0000
1.1667 0.6389 0.0000
1.1111 0.7222 0.0000
1.1667 0.6944 0.0000
1.1667 0.7500 0.0000
1.1111 0.8333 0.0000
1.1667 0.8056 0.0000
1.1667 0.8611 0.0000
1.1111 0.9444 0.0000
1.1667 0.9167 0.0000
1.1667 0.9722 0.0000
1.3333 0.0556 0.0000
1.3889 0.0278 0.0000
1.3889 0.0833 0.0000
1.3333 0.1667 0.0000
1.3889 0.1389 0.0000
1.3889 0.1944 0.0000
1.3333 0.2778 0.0000
1.3889 0.2500 0.0000
1.3889 0.3056 0.0000
1.3333 0.3889 0.0000
1.3889 0.3611 0.0000
1.3889 0.4167 0.0000
1.3333 0.5000 0.0000
1.3889 0.4722 0.0000
1.3889 0.5278 0.0000
1.3333 0.6111 0.0000
1.3889 0.5833 0.0000
1.3889 0.6389 0.0000
1.3333 0.7222 0.0000
1.3889 0.6944 0.0000
1.3889 0.7500 0.0000
1.3333 0.8333 0.0000
1.3889 0.8056 0.0000
1.3889 0.8611 0.0000
1.3333 0.9444 0.0000
1.3889 0.9167 0.0000
1.3889 0.9722 0.0000
1.5556 0.0556 0.0000
1.6111 0.0278 0.0000
1.6111 0.0833 0.0000
1.5556 0.1667 0.0000
1.6111 0.1389 0.0000
1.6111 0.1944 0.0000
1.5556 0.2778 0.0000
1.6111 0.2500 0.0000
1.6111 0.3056 0.0000
1.5556 0.3889 0.0000
1.6111 0.3611 0.0000
1.6111 0.4167 0.0000
1.5556 0.5000 0.0000
1.6111 0.4722 0.0000
1.6111 0.5278 0.0000
1.5556 0.6111 0.0000
1.6111 0.5833 0.0000
1.6111 0.6389 0.0000
1.5556 0.7222 0.0000
1.6111 0.6944 0.0000
1.6111 0.7500 0.0000
1.5556 0.8333 0.0000
1.6111 0.8056 0.0000
1.6111 0.8611 0.0000
1.5556 0.9444 0.0000
1.6111 0.9167 0.0000
1.6111 0.9722 0.0000
1.7778 0.0556 0.0000
1.8333 0.0278 0.0000
1.8333 0.0833 0.0000
1.7778 0.1667 0.0000
1.8333 0.1389 0.0000
1.8333 0.1944 0.0000
1.7778 0.2778 0.0000
1.8333 0.2500 0.0000
1.8333 0.3056 0.0000
1.7778 0.3889 0.0000
1.8333 0.3611 0.0000
1.8333 0.4167 0.0000
1.7778 0.5000 0.0000
1.8333 0.4722 0.0000
1.8333 0.5278 0.0000
1.7778 0.6111 0.0000
1.8333 0.5833 0.0000
1.8333 0.6389 0.0000
1.7778 0.7222 0.0000
1.8333 0.6944 0.0000
1.8333 0.7500 0.0000
1.7778 0.8333 0.0000
1.8333 0.8056 0.0000
1.8333 0.8611 0.0000
1.7778 0.9444 0.0000
1.8333 0.9167 0.0000
1.8333 0.9722 0.0000
0.1111 0.1111 0.0000
0.1667 0.0833 0.0000
0.1111 0.2222 0.0000
0.1667 0.1944 0.0000
0.1111 0.3333 0.0000
0.1667 0.3056 0.0000
0.1111 0.4444 0.0000
0.1667 0.4167 0.0000
0.1111 0.5556 0.0000
0.1667 0.5278 0.0000
0.1111 0.6667 0.0000
0.1667 0.6389 0.0000
0.1111 0.7778 0.0000
0.1667 0.7500 0.0000
0.1111 0.8889 0.0000
0.1667 0.8611 0.0000
0.1111 1.0000 0.0000
0.1667 0.9722 0.0000
0.3333 0.1111 0.0000
0.3889 0.0833 0.0000
0.3333 0.2222 0.0000
0.3889 0.1944 0.0000
0.3333 0.3333 0.0000
0.3889 0.3056 0.0000
0.3333 0.4444 0.0000
0.3889 0.4167 0.0000
0.3333 0.5556 0.0000
0.3889 0.5278 0.0000
0.3333 0.6667 0.0000
0.3889 0.6389 0.0000
0.3333 0.7778 0.0000
0.3889 0.7500 0.0000
0.3333 0.8889 0.0000
0.3889 0.8611 0.0000
0.3333 1.0000 0.0000
0.3889 0.9722 0.0000
0.5556 0.1111 0.0000
[...]
         <PointData>
            <DataArray Name="fValues" NumberOfComponents="3" format="ascii" type="Float64">
-2.39017e-18 -3.58525e-18        00000 
-2.57919e-19  1.09616e-18        00000 
 2.59514e-18 -1.24903e-18        00000 
-2.56861e-19 -3.85292e-19        00000 
-3.00172e-19 -6.21498e-19        00000 
 1.92646e-19  3.21077e-19        00000 
 6.95018e-20 -2.44969e-18        00000 
-1.21899e-18  8.98202e-19        00000 
 3.61173e-18 -2.83779e-18        00000 
 1.19508e-18 -3.58525e-18        00000 
-7.30272e-02 -5.52886e-02        00000 
-4.98153e-02 -4.23916e-02        00000 
-3.25565e-02 -3.32814e-02        00000 
-1.86619e-02 -2.79751e-02        00000 
-6.24894e-03 -2.55443e-02        00000 
 5.73360e-03 -2.54702e-02        00000 
 1.81002e-02 -2.77629e-02        00000 
 3.18960e-02 -3.29101e-02        00000 
 4.89743e-02 -4.18253e-02        00000 
 7.19192e-02 -5.45062e-02        00000 
-1.33062e-01 -1.17174e-01        00000 
-9.82300e-02 -1.05949e-01        00000 
-6.72021e-02 -9.71791e-02        00000 
-3.92679e-02 -9.12351e-02        00000 
-1.32977e-02 -8.82197e-02        00000 
 1.20059e-02 -8.80719e-02        00000 
 3.79097e-02 -9.07980e-02        00000 
 6.56987e-02 -9.64718e-02        00000 
 9.65791e-02 -1.05024e-01        00000 
 1.31298e-01 -1.16071e-01        00000 
-1.86349e-01 -2.02951e-01        00000 
-1.39957e-01 -1.93273e-01        00000 
-9.74268e-02 -1.85756e-01        00000 
-5.76970e-02 -1.80593e-01        00000 
-1.97351e-02 -1.77878e-01        00000 
 1.75895e-02 -1.77680e-01        00000 
 5.55116e-02 -1.80020e-01        00000 
 9.51717e-02 -1.84860e-01        00000 
 1.37646e-01 -1.92129e-01        00000 
 1.83973e-01 -2.01645e-01        00000 
-2.31627e-01 -3.10497e-01        00000 
-1.75345e-01 -3.02388e-01        00000 
-1.22946e-01 -2.96091e-01        00000 
-7.33107e-02 -2.91787e-01        00000 
-2.52707e-02 -2.89528e-01        00000 
 2.22484e-02 -2.89343e-01        00000 
 7.03107e-02 -2.91254e-01        00000 
 1.20020e-01 -2.95252e-01        00000 
 1.72515e-01 -3.01315e-01        00000 
 2.28949e-01 -3.09287e-01        00000 
-2.68847e-01 -4.36028e-01        00000 
-2.04391e-01 -4.29547e-01        00000 
-1.43808e-01 -4.24581e-01        00000 
-8.59588e-02 -4.21243e-01        00000 
-2.97025e-02 -4.19522e-01        00000 
 2.60458e-02 -4.19424e-01        00000 
 8.23938e-02 -4.20966e-01        00000 
 1.40408e-01 -4.24166e-01        00000 
 2.01182e-01 -4.29048e-01        00000 
 2.65902e-01 -4.35444e-01        00000 
-2.97951e-01 -5.76352e-01        00000 
-2.26971e-01 -5.71465e-01        00000 
-1.59853e-01 -5.67773e-01        00000 
-9.55433e-02 -5.65341e-01        00000 
-3.29160e-02 -5.64141e-01        00000 
 2.91816e-02 -5.64122e-01        00000 
 9.18977e-02 -5.65292e-01        00000 
 1.56368e-01 -5.67677e-01        00000 
 2.23614e-01 -5.71335e-01        00000 
 2.94681e-01 -5.76163e-01        00000 
-3.18994e-01 -7.27773e-01        00000 
-2.43136e-01 -7.24474e-01        00000 
-1.71064e-01 -7.22162e-01        00000 
-1.02057e-01 -7.20766e-01        00000 
-3.49969e-02 -7.20126e-01        00000 
 3.14142e-02 -7.20151e-01        00000 
 9.85240e-02 -7.20858e-01        00000 
 1.67581e-01 -7.22288e-01        00000 
 2.39664e-01 -7.24618e-01        00000 
 3.15583e-01 -7.27895e-01        00000 
-3.33179e-01 -8.87604e-01        00000 
-2.52845e-01 -8.85788e-01        00000 
-1.77052e-01 -8.84723e-01        00000 
-1.05295e-01 -8.83985e-01        00000 
-3.59789e-02 -8.83582e-01        00000 
 3.25634e-02 -8.83564e-01        00000 
 1.01908e-01 -8.83949e-01        00000 
 1.73650e-01 -8.84668e-01        00000 
 2.49327e-01 -8.85715e-01        00000 
 3.29435e-01 -8.87494e-01        00000 
-3.41915e-01 -1.06168e+00        00000 
-2.56937e-01 -1.05748e+00        00000 
-1.79861e-01 -1.05245e+00        00000 
-1.07041e-01 -1.04857e+00        00000 
-3.65804e-02 -1.04651e+00        00000 
 3.31485e-02 -1.04647e+00        00000 
 1.03640e-01 -1.04844e+00        00000 
 1.76416e-01 -1.05213e+00        00000 
 2.53320e-01 -1.05699e+00        00000 
 3.38053e-01 -1.06110e+00        00000 
-2.95687e-02 -2.35170e-02        00000 
-1.89117e-02 -1.42632e-02        00000 
-1.18039e-02 -9.76738e-03        00000 
-5.77332e-03 -7.60663e-03        00000 
-1.21127e-04 -6.93085e-03        00000 
 5.52006e-03 -7.54912e-03        00000 
 1.15272e-02 -9.65128e-03        00000 
 1.85669e-02 -1.40725e-02        00000 
 2.90815e-02 -2.31769e-02        00000 
-8.88483e-02 -7.70781e-02        00000 
-6.20913e-02 -6.62786e-02        00000 
-3.93614e-02 -5.86130e-02        00000 
-1.92857e-02 -5.41803e-02        00000 
-4.39117e-04 -5.26698e-02        00000 
 1.83802e-02 -5.39573e-02        00000 
 3.83583e-02 -5.81685e-02        00000 
 6.09163e-02 -6.55919e-02        00000 
 8.74817e-02 -7.61712e-02        00000 
-1.39737e-01 -1.51593e-01        00000 
-1.00981e-01 -1.42255e-01        00000 
-6.55741e-02 -1.35379e-01        00000 
-3.25690e-02 -1.31141e-01        00000 
-8.58545e-04 -1.29610e-01        00000 
 3.08234e-02 -1.30802e-01        00000 
 6.37429e-02 -1.34714e-01        00000 
 9.90341e-02 -1.41317e-01        00000 
 1.37692e-01 -1.50453e-01        00000 
-1.83666e-01 -2.49566e-01        00000 
-1.34190e-01 -2.41621e-01        00000 
-8.80413e-02 -2.35787e-01        00000 
-4.41119e-02 -2.32141e-01        00000 
-1.30961e-03 -2.30776e-01        00000 
 4.14940e-02 -2.31741e-01        00000 
 8.54244e-02 -2.35019e-01        00000 
 1.31582e-01 -2.40563e-01        00000 
 1.81078e-01 -2.48308e-01        00000 
-2.20392e-01 -3.67385e-01        00000 
-1.61914e-01 -3.60868e-01        00000 
-1.06726e-01 -3.56127e-01        00000 
-5.36965e-02 -3.53220e-01        00000 
-1.70969e-03 -3.52160e-01        00000 
 5.03103e-02 -3.52933e-01        00000 
 1.03440e-01 -3.55584e-01        00000 
 1.58770e-01 -3.60119e-01        00000 
 2.17456e-01 -3.66484e-01        00000 
-2.49893e-01 -5.01605e-01        00000 
-1.84040e-01 -4.96558e-01        00000 
-1.21492e-01 -4.92948e-01        00000 
-6.11636e-02 -4.90780e-01        00000 
-1.88896e-03 -4.90030e-01        00000 
 5.74354e-02 -4.90685e-01        00000 
 1.17927e-01 -4.92770e-01        00000 
 1.80655e-01 -4.96326e-01        00000 
 2.46665e-01 -5.01328e-01        00000 
-2.72105e-01 -6.48733e-01        00000 
-2.00551e-01 -6.45158e-01        00000 
-1.32345e-01 -6.42691e-01        00000 
-6.64964e-02 -6.41268e-01        00000 
-1.84341e-03 -6.40815e-01        00000 
 6.28509e-02 -6.41288e-01        00000 
 1.28799e-01 -6.42720e-01        00000 
 1.97102e-01 -6.45174e-01        00000 
 2.68729e-01 -6.48708e-01        00000 
-2.87333e-01 -8.05320e-01        00000 
-2.11281e-01 -8.03249e-01        00000 
-1.39022e-01 -8.02039e-01        00000 
-6.96435e-02 -8.01395e-01        00000 
-1.73805e-03 -8.01199e-01        00000 
 6.61959e-02 -8.01439e-01        00000 
 1.35593e-01 -8.02119e-01        00000 
 2.07832e-01 -8.03372e-01        00000 
 2.83796e-01 -8.05461e-01        00000 
-2.95879e-01 -9.70503e-01        00000 
-2.16065e-01 -9.69171e-01        00000 
-1.41784e-01 -9.67567e-01        00000 
-7.09272e-02 -9.66340e-01        00000 
-1.69753e-03 -9.65866e-01        00000 
 6.75677e-02 -9.66255e-01        00000 
 1.38437e-01 -9.67402e-01        00000 
 2.12620e-01 -9.68921e-01        00000 
 2.92212e-01 -9.70178e-01        00000 
 1.06607e-18 -1.21847e-18        00000 
-1.61441e-02 -1.22891e-02        00000 
-1.22672e-02 -8.63924e-03        00000 
 2.49482e-18 -3.57733e-20        00000 
-9.90128e-03 -6.34982e-03        00000 
-8.03072e-03 -4.79756e-03        00000 
-1.95156e-18 -2.43945e-19        00000 
-6.39522e-03 -3.71353e-03        00000 
-4.88559e-03 -2.95467e-03        00000 
-1.16970e-18  3.47528e-19        00000 
-3.46034e-03 -2.43664e-03        00000 
-2.07904e-03 -2.10572e-03        00000 
-2.13452e-19 -8.53809e-19        00000 
-7.26222e-04 -1.94571e-03        00000 
 6.19359e-04 -1.93596e-03        00000 
 1.57406e-18 -6.89474e-19        00000 
 1.96556e-03 -2.08390e-03        00000 
 3.34199e-03 -2.39058e-03        00000 
-7.31836e-19 -4.87891e-19        00000 
 4.76292e-03 -2.90048e-03        00000 
 6.26136e-03 -3.65255e-03        00000 
-4.87891e-19  7.31836e-19        00000 
 7.88257e-03 -4.72755e-03        00000 
 9.73285e-03 -6.26180e-03        00000 
-5.24295e-18  5.15962e-19        00000 
 1.20653e-02 -8.51940e-03        00000 
 1.58846e-02 -1.21123e-02        00000 
-6.07487e-02 -4.85739e-02        00000 
-8.17000e-02 -6.56732e-02        00000 
-6.86798e-02 -5.92241e-02        00000 
-4.05819e-02 -3.72938e-02        00000 
-5.68793e-02 -5.35590e-02        00000 
-4.63593e-02 -4.88395e-02        00000 
-2.53372e-02 -3.02156e-02        00000 
-3.68399e-02 -4.50702e-02        00000 
-2.80524e-02 -4.21798e-02        00000 
-1.23445e-02 -2.64451e-02        00000 
-1.97943e-02 -4.00923e-02        00000 
-1.18837e-02 -3.87225e-02        00000 
-2.55097e-04 -2.52178e-02        00000 
-4.17240e-03 -3.80227e-02        00000 
 3.47994e-03 -3.79711e-02        00000 
 1.18104e-02 -2.62991e-02        00000 
 1.11782e-02 -3.85753e-02        00000 
 1.90656e-02 -3.98546e-02        00000 
 2.47380e-02 -2.99283e-02        00000 
 2.72794e-02 -4.18582e-02        00000 
 3.60011e-02 -4.46529e-02        00000 
 3.98416e-02 -3.68265e-02        00000 
 4.54376e-02 -4.83153e-02        00000 
 5.58722e-02 -5.29201e-02        00000 
 5.97891e-02 -4.78965e-02        00000 
 6.75686e-02 -5.84781e-02        00000 
 8.04755e-02 -6.48203e-02        00000 
-1.15144e-01 -1.11295e-01        00000 
-1.37230e-01 -1.33826e-01        00000 
-1.18329e-01 -1.28157e-01        00000 
-8.22736e-02 -1.01225e-01        00000 
-1.00423e-01 -1.23218e-01        00000 
-8.34138e-02 -1.18965e-01        00000 
-5.29112e-02 -9.38442e-02        00000 
-6.72042e-02 -1.15392e-01        00000 
-5.16881e-02 -1.12501e-01        00000 
-2.61202e-02 -8.93650e-02        00000 
-3.67207e-02 -1.10315e-01        00000 
-2.21658e-02 -1.08836e-01        00000 
-6.47698e-04 -8.77920e-02        00000 
-7.86459e-03 -1.08053e-01        00000 
 6.34879e-03 -1.07973e-01        00000 
 2.48006e-02 -8.90699e-02        00000 
 2.06434e-02 -1.08590e-01        00000 
 3.51708e-02 -1.09909e-01        00000 
 5.14841e-02 -9.32664e-02        00000 
 5.00792e-02 -1.11944e-01        00000 
 6.55299e-02 -1.14698e-01        00000 
 8.06898e-02 -1.00401e-01        00000 
 8.16698e-02 -1.18146e-01        00000 
 9.86208e-02 -1.22294e-01        00000 
 1.13436e-01 -1.10280e-01        00000 
 1.16481e-01 -1.27132e-01        00000 
 1.35323e-01 -1.32708e-01        00000 
-1.62596e-01 -1.97872e-01        00000 
-1.85739e-01 -2.25773e-01        00000 
-1.61240e-01 -2.20905e-01        00000 
-1.18276e-01 -1.89225e-01        00000 
-1.37788e-01 -2.16686e-01        00000 
-1.15225e-01 -2.13057e-01        00000 
-7.72775e-02 -1.82870e-01        00000 
-9.34307e-02 -2.10007e-01        00000 
-7.22612e-02 -2.07523e-01        00000 
-3.85633e-02 -1.78916e-01        00000 
-5.15863e-02 -2.05623e-01        00000 
-3.12749e-02 -2.04313e-01        00000 
-1.07122e-03 -1.77454e-01        00000 
-1.11885e-02 -2.03599e-01        00000 
 8.81411e-03 -2.03491e-01        00000 
 3.63979e-02 -1.78527e-01        00000 
 2.88940e-02 -2.04002e-01        00000 
 4.91933e-02 -2.05118e-01        00000 
 7.50598e-02 -1.82125e-01        00000 
 6.98515e-02 -2.06839e-01        00000 
 9.10027e-02 -2.09162e-01        00000 
 1.15991e-01 -1.88195e-01        00000 
 1.12786e-01 -2.12069e-01        00000 
 1.35337e-01 -2.15580e-01        00000 
 1.60264e-01 -1.96634e-01        00000 
 1.58790e-01 -2.19704e-01        00000 
 1.83267e-01 -2.24478e-01        00000 
-2.02928e-01 -3.06246e-01        00000 
-2.26622e-01 -3.38521e-01        00000 
-1.97411e-01 -3.34483e-01        00000 
-1.48729e-01 -2.98995e-01        00000 
-1.69242e-01 -3.30979e-01        00000 
-1.41968e-01 -3.27969e-01        00000 
-9.78610e-02 -2.93682e-01        00000 
-1.15444e-01 -3.25448e-01        00000 
-8.95320e-02 -3.23414e-01        00000 
-4.91648e-02 -2.90393e-01        00000 
-6.40852e-02 -3.21868e-01        00000 
-3.89749e-02 -3.20812e-01        00000 
-1.51843e-03 -2.89169e-01        00000 
-1.40496e-02 -3.20234e-01        00000 
 1.08063e-02 -3.20154e-01        00000 
 4.61413e-02 -2.90032e-01        00000 
 3.57445e-02 -3.20557e-01        00000 
 6.08825e-02 -3.21459e-01        00000 
 9.48859e-02 -2.92989e-01        00000 
 8.63635e-02 -3.22856e-01        00000 
 1.12320e-01 -3.24764e-01        00000 
 1.45845e-01 -2.98027e-01        00000 
 1.38900e-01 -3.27162e-01        00000 
 1.66249e-01 -3.30071e-01        00000 
 2.00173e-01 -3.05086e-01        00000 
 1.94519e-01 -3.33488e-01        00000 
 2.23832e-01 -3.37450e-01        00000 
-2.36056e-01 -4.32616e-01        00000 
-2.59892e-01 -4.68449e-01        00000 
-2.26787e-01 -4.65267e-01        00000 
-1.73690e-01 -4.26855e-01        00000 
-1.94725e-01 -4.62516e-01        00000 
-1.63558e-01 -4.60180e-01        00000 
-1.14612e-01 -4.22699e-01        00000 
-1.33136e-01 -4.58231e-01        00000 
-1.03342e-01 -4.56684e-01        00000 
-5.77015e-02 -4.20169e-01        00000 
-7.40190e-02 -4.55511e-01        00000 
-4.50323e-02 -4.54729e-01        00000 
-1.83386e-03 -4.19264e-01        00000 
-1.62355e-02 -4.54303e-01        00000 
 1.24960e-02 -4.54270e-01        00000 
 5.40723e-02 -4.19981e-01        00000 
 4.13227e-02 -4.54606e-01        00000 
 7.03633e-02 -4.55335e-01        00000 
 1.11124e-01 -4.22349e-01        00000 
 9.97643e-02 -4.56439e-01        00000 
 1.29643e-01 -4.57955e-01        00000 
 1.70376e-01 -4.26398e-01        00000 
 1.60155e-01 -4.59859e-01        00000 
 1.91415e-01 -4.62174e-01        00000 
 2.32967e-01 -4.32080e-01        00000 
 2.23577e-01 -4.64887e-01        00000 
 2.56779e-01 -4.68049e-01        00000 
-2.61912e-01 -5.73780e-01        00000 
-2.85434e-01 -6.12243e-01        00000 
-2.49301e-01 -6.09898e-01        00000 
-1.92994e-01 -5.69459e-01        00000 
-2.14172e-01 -6.07884e-01        00000 
-1.79950e-01 -6.06191e-01        00000 
-1.27420e-01 -5.66400e-01        00000 
-1.46492e-01 -6.04804e-01        00000 
-1.13683e-01 -6.03714e-01        00000 
-6.40939e-02 -5.64590e-01        00000 
-8.13768e-02 -6.02908e-01        00000 
-4.94325e-02 -6.02380e-01        00000 
-1.87339e-03 -5.63985e-01        00000 
-1.77051e-02 -6.02110e-01        00000 
 1.39638e-02 -6.02109e-01        00000 
 6.03844e-02 -5.64559e-01        00000 
 4.57194e-02 -6.02363e-01        00000 
 7.77027e-02 -6.02886e-01        00000 
 1.23845e-01 -5.66330e-01        00000 
 1.10065e-01 -6.03680e-01        00000 
 1.42947e-01 -6.04772e-01        00000 
 1.89577e-01 -5.69352e-01        00000 
 1.76472e-01 -6.06143e-01        00000 
 2.10756e-01 -6.07825e-01        00000 
 2.58602e-01 -5.73627e-01        00000 
 2.45925e-01 -6.09815e-01        00000 
 2.82113e-01 -6.12143e-01        00000 
-2.80551e-01 -7.26020e-01        00000 
-3.03500e-01 -7.66307e-01        00000 
-2.65041e-01 -7.64750e-01        00000 
-2.06667e-01 -7.23197e-01        00000 
-2.27554e-01 -7.63505e-01        00000 
-1.91006e-01 -7.62524e-01        00000 
-1.36241e-01 -7.21367e-01        00000 
-1.55327e-01 -7.61768e-01        00000 
-1.20395e-01 -7.61207e-01        00000 
-6.83720e-02 -7.20363e-01        00000 
-8.60679e-02 -7.60811e-01        00000 
-5.21773e-02 -7.60564e-01        00000 
-1.79739e-03 -7.20058e-01        00000 
-1.85476e-02 -7.60440e-01        00000 
 1.50056e-02 -7.60457e-01        00000 
 6.47949e-02 -7.20418e-01        00000 
 4.86564e-02 -7.60600e-01        00000 
 8.25719e-02 -7.60888e-01        00000 
 1.32731e-01 -7.21473e-01        00000 
 1.16914e-01 -7.61311e-01        00000 
 1.51856e-01 -7.61905e-01        00000 
 2.03188e-01 -7.23329e-01        00000 
 1.87542e-01 -7.62676e-01        00000 
 2.24085e-01 -7.63677e-01        00000 
 2.77091e-01 -7.26152e-01        00000 
 2.61546e-01 -7.64933e-01        00000 
 2.99995e-01 -7.66467e-01        00000 
-2.92536e-01 -8.86553e-01        00000 
-3.15149e-01 -9.28598e-01        00000 
-2.74142e-01 -9.27808e-01        00000 
-2.14356e-01 -8.85206e-01        00000 
-2.34588e-01 -9.27211e-01        00000 
-1.96415e-01 -9.26655e-01        00000 
-1.40756e-01 -8.84319e-01        00000 
-1.59436e-01 -9.26130e-01        00000 
-1.23410e-01 -9.25652e-01        00000 
-7.04356e-02 -8.83742e-01        00000 
-8.81373e-02 -9.25264e-01        00000 
-5.33666e-02 -9.24977e-01        00000 
-1.70364e-03 -8.83524e-01        00000 
-1.88978e-02 -9.24827e-01        00000 
 1.54896e-02 -9.24802e-01        00000 
 6.70364e-02 -8.83717e-01        00000 
 4.99677e-02 -9.24929e-01        00000 
 8.47640e-02 -9.25179e-01        00000 
 1.37378e-01 -8.84277e-01        00000 
 1.20052e-01 -9.25556e-01        00000 
 1.56064e-01 -9.26003e-01        00000 
 2.10920e-01 -8.85152e-01        00000 
 1.93005e-01 -9.26514e-01        00000 
 2.31111e-01 -9.27045e-01        00000 
 2.88923e-01 -8.86469e-01        00000 
 2.70563e-01 -9.27618e-01        00000 
 3.11437e-01 -9.28383e-01        00000 
-2.34292e-02 -1.80259e-02        00000 
-4.08004e-02 -3.26724e-02        00000 
-1.51516e-02 -1.16303e-02        00000 
-2.65533e-02 -2.30949e-02        00000 
-8.70979e-03 -8.47049e-03        00000 
-1.59587e-02 -1.78558e-02        00000 
-2.92430e-03 -7.10678e-03        00000 
-6.74995e-03 -1.53452e-02        00000 
 2.68068e-03 -7.07795e-03        00000 
 1.99485e-03 -1.48331e-02        00000 
 8.45123e-03 -8.38233e-03        00000 
 1.08620e-02 -1.62058e-02        00000 
 1.48457e-02 -1.14823e-02        00000 
 2.05521e-02 -1.98377e-02        00000 
 2.30231e-02 -1.77717e-02        00000 
 3.23841e-02 -2.68280e-02        00000 
 4.00701e-02 -3.12240e-02        00000 
 5.04785e-02 -3.91708e-02        00000 
-7.49250e-02 -7.13399e-02        00000 
-9.43725e-02 -9.07173e-02        00000 
-5.03024e-02 -6.20236e-02        00000 
-6.55152e-02 -8.08194e-02        00000 
-2.90824e-02 -5.60151e-02        00000 
-4.01626e-02 -7.39925e-02        00000 
-9.78828e-03 -5.30724e-02        00000 
-1.71183e-02 -7.02248e-02        00000 
 8.90714e-03 -5.29618e-02        00000 
 4.95669e-03 -6.93841e-02        00000 
 2.81448e-02 -5.56818e-02        00000 
 2.73118e-02 -7.14164e-02        00000 
 4.92152e-02 -6.14650e-02        00000 
 5.12085e-02 -7.64334e-02        00000 
 7.36550e-02 -7.05350e-02        00000 
 7.80266e-02 -8.45747e-02        00000 
 1.02375e-01 -8.23469e-02        00000 
 1.08715e-01 -9.57657e-02        00000 
-1.19883e-01 -1.46631e-01        00000 
-1.40624e-01 -1.71673e-01        00000 
-8.29185e-02 -1.38499e-01        00000 
-9.99660e-02 -1.63141e-01        00000 
-4.88389e-02 -1.32927e-01        00000 
-6.23899e-02 -1.57125e-01        00000 
-1.66272e-02 -1.30037e-01        00000 
-2.68845e-02 -1.53668e-01        00000 
 1.49008e-02 -1.29872e-01        00000 
 7.64483e-03 -1.52832e-01        00000 
 4.70565e-02 -1.32419e-01        00000 
 4.24753e-02 -1.54631e-01        00000 
 8.10201e-02 -1.37690e-01        00000 
 7.87966e-02 -1.59039e-01        00000 
 1.17884e-01 -1.45586e-01        00000 
 1.17708e-01 -1.66045e-01        00000 
 1.58570e-01 -1.55852e-01        00000 
 1.60195e-01 -1.75717e-01        00000 
-1.58441e-01 -2.45341e-01        00000 
-1.80178e-01 -2.75334e-01        00000 
-1.10764e-01 -2.38432e-01        00000 
-1.29218e-01 -2.68132e-01        00000 
-6.58671e-02 -2.33687e-01        00000 
-8.13187e-02 -2.63064e-01        00000 
-2.26334e-02 -2.31173e-01        00000 
-3.53221e-02 -2.60123e-01        00000 
 2.00242e-02 -2.30969e-01        00000 
 9.86083e-03 -2.59380e-01        00000 
 6.32508e-02 -2.33101e-01        00000 
 5.53305e-02 -2.60852e-01        00000 
 1.08154e-01 -2.37512e-01        00000 
 1.02165e-01 -2.64512e-01        00000 
 1.55844e-01 -2.44171e-01        00000 
 1.51507e-01 -2.70366e-01        00000 
 2.07446e-01 -2.52927e-01        00000 
 2.04484e-01 -2.78532e-01        00000 
-1.90671e-01 -3.63919e-01        00000 