<?xml version="1.0" encoding="utf-8"?>
<VTKFile byte_order="LittleEndian" type="UnstructuredGrid" version="0.1">
   <UnstructuredGrid>
      <Piece NumberOfCells="1296" NumberOfPoints="685">
         <Points>
            <DataArray Name="Points" NumberOfComponents="3" format="ascii" type="Float32">
0.0000 0.0000 0.0000
0.0000 0.1111 0.0000
0.0000 0.2222 0.0000
0.0000 0.3333 0.0000
0.0000 0.4444 0.0000
0.0000 0.5556 0.0000
0.0000 0.6667 0.0000
0.0000 0.7778 0.0000
0.0000 0.8889 0.0000
0.0000 1.0000 0.0000
0.2222 0.0000 0.0000
0.2222 0.1111 0.0000
0.2222 0.2222 0.0000
0.2222 0.3333 0.0000
0.2222 0.4444 0.0000
0.2222 0.5556 0.0000
0.2222 0.6667 0.0000
0.2222 0.7778 0.0000
0.2222 0.8889 0.0000
0.2222 1.0000 0.0000
0.4444 0.0000 0.0000
0.4444 0.1111 0.0000
0.4444 0.2222 0.0000
0.4444 0.3333 0.0000
0.4444 0.4444 0.0000
0.4444 0.5556 0.0000
0.4444 0.6667 0.0000
0.4444 0.7778 0.0000
0.4444 0.8889 0.0000
0.4444 1.0000 0.0000
0.6667 0.0000 0.0000
0.6667 0.1111 0.0000
0.6667 0.2222 0.0000
0.6667 0.3333 0.0000
0.6667 0.4444 0.0000
0.6667 0.5556 0.0000
0.6667 0.6667 0.0000
0.6667 0.7778 0.0000
0.6667 0.8889 0.0000
0.6667 1.0000 0.0000
0.8889 0.0000 0.0000
0.8889 0.1111 0.0000
0.8889 0.2222 0.0000
0.8889 0.3333 0.0000
0.8889 0.4444 0.0000
0.8889 0.5556 0.0000
0.8889 0.6667 0.0000
0.8889 0.7778 0.0000
0.8889 0.8889 0.0000
0.8889 1.0000 0.0000
1.1111 0.0000 0.0000
1.1111 0.1111 0.0000
1.1111 0.2222 0.0000
1.1111 0.3333 0.0000
1.1111 0.4444 0.0000
1.1111 0.5556 0.0000
1.1111 0.6667 0.0000
1.1111 0.7778 0.0000
1.1111 0.8889 0.0000
1.1111 1.0000 0.0000
1.3333 0.0000 0.0000
1.3333 0.1111 0.0000
1.3333 0.2222 0.0000
1.3333 0.3333 0.0000
1.3333 0.4444 0.0000
1.3333 0.5556 0.0000
1.3333 0.6667 0.0000
1.3333 0.7778 0.0000
1.3333 0.8889 0.0000
1.3333 1.0000 0.0000
1.5556 0.0000 0.0000
1.5556 0.1111 0.0000
1.5556 0.2222 0.0000
1.5556 0.3333 0.0000
1.5556 0.4444 0.0000
1.5556 0.5556 0.0000
1.5556 0.6667 0.0000
1.5556 0.7778 0.0000
1.5556 0.8889 0.0000
1.5556 1.0000 0.0000
1.7778 0.0000 0.0000
1.7778 0.1111 0.0000
1.7778 0.2222 0.0000
1.7778 0.3333 0.0000
1.7778 0.4444 0.0000
1.7778 0.5556 0.0000
1.7778 0.6667 0.0000
1.7778 0.7778 0.0000
1.7778 0.8889 0.0000
1.7778 1.0000 0.0000
2.0000 0.0000 0.0000
2.0000 0.1111 0.0000
2.0000 0.2222 0.0000
2.0000 0.3333 0.0000
2.0000 0.4444 0.0000
2.0000 0.5556 0.0000
2.0000 0.6667 0.0000
2.0000 0.7778 0.0000
2.0000 0.8889 0.0000
2.0000 1.0000 0.0000
0.1111 0.0556 0.0000
0.1111 0.1667 0.0000
0.1111 0.2778 0.0000
0.1111 0.3889 0.0000
0.1111 0.5000 0.0000
0.1111 0.6111 0.0000
0.1111 0.7222 0.0000
0.1111 0.8333 0.0000
0.1111 0.9444 0.0000
0.3333 0.0556 0.0000
0.3333 0.1667 0.0000
0.3333 0.2778 0.0000
0.3333 0.3889 0.0000
0.3333 0.5000 0.0000
0.3333 0.6111 0.0000
0.3333 0.7222 0.0000
0.3333 0.8333 0.0000
0.3333 0.9444 0.0000
0.5556 0.0556 0.0000
0.5556 0.1667 0.0000
0.5556 0.2778 0.0000
0.5556 0.3889 0.0000
0.5556 0.5000 0.0000
0.5556 0.6111 0.0000
0.5556 0.7222 0.0000
0.5556 0.8333 0.0000
0.5556 0.9444 0.0000
0.7778 0.0556 0.0000
0.7778 0.1667 0.0000
0.7778 0.2778 0.0000
0.7778 0.3889 0.0000
0.7778 0.5000 0.0000
0.7778 0.6111 0.0000
0.7778 0.7222 0.0000
0.7778 0.8333 0.0000
0.7778 0.9444 0.0000
1.0000 0.0556 0.0000
1.0000 0.1667 0.0000
1.0000 0.2778 0.0000
1.0000 0.3889 0.0000
1.0000 0.5000 0.0000
1.0000 0.6111 0.0000
1.0000 0.7222 0.0000
1.0000 0.8333 0.0000
1.0000 0.9444 0.0000
1.2222 0.0556 0.0000
1.2222 0.1667 0.0000
1.2222 0.2778 0.0000
1.2222 0.3889 0.0000
1.2222 0.5000 0.0000
1.2222 0.6111 0.0000
1.2222 0.7222 0.0000
1.2222 0.8333 0.0000
1.2222 0.9444 0.0000
1.4444 0.0556 0.0000
1.4444 0.1667 0.0000
1.4444 0.2778 0.0000
1.4444 0.3889 0.0000
1.4444 0.5000 0.0000
1.4444 0.6111 0.0000
1.4444 0.7222 0.0000
1.4444 0.8333 0.0000
1.4444 0.9444 0.0000
1.6667 0.0556 0.0000
1.6667 0.1667 0.0000
1.6667 0.2778 0.0000
1.6667 0.3889 0.0000
1.6667 0.5000 0.0000
1.6667 0.6111 0.0000
1.6667 0.7222 0.0000
1.6667 0.8333 0.0000
1.6667 0.9444 0.0000
1.8889 0.0556 0.0000
1.8889 0.1667 0.0000
1.8889 0.2778 0.0000
1.8889 0.3889 0.0000
1.8889 0.5000 0.0000
1.8889 0.6111 0.0000
1.8889 0.7222 0.0000
1.8889 0.8333 0.0000
1.8889 0.9444 0.0000
0.0000 0.0556 0.0000
0.0556 0.0278 0.0000
0.0556 0.0833 0.0000
0.0000 0.1667 0.0000
0.0556 0.1389 0.0000
0.0556 0.1944 0.0000
0.0000 0.2778 0.0000
0.0556 0.2500 0.0000
0.0556 0.3056 0.0000
0.0000 0.3889 0.0000
0.0556 0.3611 0.0000
0.0556 0.4167 0.0000
0.0000 0.5000 0.0000
0.0556 0.4722 0.0000
0.0556 0.5278 0.0000
0.0000 0.6111 0.0000
0.0556 0.5833 0.0000
0.0556 0.6389 0.0000
0.0000 0.7222 0.0000
0.0556 0.6944 0.0000
0.0556 0.7500 0.0000
0.0000 0.8333 0.0000
0.0556 0.8056 0.0000
0.0556 0.8611 0.0000
0.0000 0.9444 0.0000
0.0556 0.9167 0.0000
0.0556 0.9722 0.0000
0.2222 0.0556 0.0000
0.2778 0.0278 0.0000
0.2778 0.0833 0.0000
0.2222 0.1667 0.0000
0.2778 0.1389 0.0000
0.2778 0.1944 0.0000
0.2222 0.2778 0.0000
0.2778 0.2500 0.0000
0.2778 0.3056 0.0000
0.2222 0.3889 0.0000
0.2778 0.3611 0.0000
0.2778 0.4167 0.0000
0.2222 0.5000 0.0000
0.2778 0.4722 0.0000
0.2778 0.5278 0.0000
0.2222 0.6111 0.0000
0.2778 0.5833 0.0000
0.2778 0.6389 0.0000
0.2222 0.7222 0.0000
0.2778 0.6944 0.0000
0.2778 0.7500 0.0000
0.2222 0.8333 0.0000
0.2778 0.8056 0.0000
0.2778 0.8611 0.0000
0.2222 0.9444 0.0000
0.2778 0.9167 0.0000
0.2778 0.9722 0.0000
0.4444 0.0556 0.0000
0.5000 0.0278 0.0000
0.5000 0.0833 0.0000
0.4444 0.1667 0.0000
0.5000 0.1389 0.0000
0.5000 0.1944 0.0000
0.4444 0.2778 0.0000
0.5000 0.2500 0.0000
0.5000 0.3056 0.0000
0.4444 0.3889 0.0000
0.5000 0.3611 0.0000
0.5000 0.4167 0.0000
0.4444 0.5000 0.0000
0.5000 0.4722 0.0000
0.5000 0.5278 0.0000
0.4444 0.6111 0.0000
0.5000 0.5833 0.0000
0.5000 0.6389 0.0000
0.4444 0.7222 0.0000
0.5000 0.6944 0.0000
0.5000 0.7500 0.0000
0.4444 0.8333 0.0000
0.5000 0.8056 0.0000
0.5000 0.8611 0.0000
0.4444 0.9444 0.0000
0.5000 0.9167 0.0000
0.5000 0.9722 0.0000
0.6667 0.0556 0.0000
0.7222 0.0278 0.0000
0.7222 0.0833 0.0000
0.6667 0.1667 0.0000
0.7222 0.1389 0.0000
0.7222 0.1944 0.0000
0.6667 0.2778 0.0000
0.7222 0.2500 0.0000
0.7222 0.3056 0.0000
0.6667 0.3889 0.0000
0.7222 0.3611 0.0000
0.7222 0.4167 0.0000
0.6667 0.5000 0.0000
0.7222 0.4722 0.0000
0.7222 0.5278 0.0000
0.6667 0.6111 0.0000
0.7222 0.5833 0.0000
0.7222 0.6389 0.0000
0.6667 0.7222 0.0000
0.7222 0.6944 0.0000
0.7222 0.7500 0.0000
0.6667 0.8333 0.0000
0.7222 0.8056 0.0000
0.7222 0.8611 0.0000
0.6667 0.9444 0.0000
0.7222 0.9167 0.0000
0.7222 0.9722 0.0000
0.8889 0.0556 0.0000
0.9444 0.0278 0.0000
0.9444 0.0833 0.0000
0.8889 0.1667 0.0000
0.9444 0.1389 0.0000
0.9444 0.1944 0.0000
0.8889 0.2778 0.0000
0.9444 0.2500 0.0000
0.9444 0.3056 0.0000
0.8889 0.3889 0.0000
0.9444 0.3611 0.0000
0.9444 0.4167 0.0000
0.8889 0.5000 0.0000
0.9444 0.4722 0.0000
0.9444 0.5278 0.0000
0.8889 0.6111 0.0000
0.9444 0.5833 0.0000
0.9444 0.6389 0.0000
0.8889 0.7222 0.0000
0.9444 0.6944 0.0000
0.9444 0.7500 0.0000
0.8889 0.8333 0.0000
0.9444 0.8056 0.0000
0.9444 0.8611 0.0000
0.8889 0.9444 0.0000
0.9444 0.9167 0.0000
0.9444 0.9722 0.0000
1.1111 0.0556 0.0000
1.1667 0.0278 0.0000
1.1667 0.0833 0.0000
1.1111 0.1667 0.0000
1.1667 0.1389 0.0000
1.1667 0.1944 0.0000
1.1111 0.2778 0.0000
1.1667 0.2500 0.0000
1.1667 0.3056 0.0000
1.1111 0.3889 0.0000
1.1667 0.3611 0.0000
1.1667 0.4167 0.0000
1.1111 0.5000 0.0000
1.1667 0.4722 0.0000
1.1667 0.5278 0.0000
1.1111 0.6111 0.0000
1.1667 0.5833 0.0000
1.1667 0.6389 0.0000
1.1111 0.7222 0.0000
1.1667 0.6944 0.0000
1.1667 0.7500 0.0000
1.1111 0.8333 0.0000
1.1667 0.8056 0.0000
1.1667 0.8611 0.0000
1.1111 0.9444 0.0000
1.1667 0.9167 0.0000
1.1667 0.9722 0.0000
1.3333 0.0556 0.0000
1.3889 0.0278 0.0000
1.3889 0.0833 0.0000
1.3333 0.1667 0.0000
1.3889 0.1389 0.0000
1.3889 0.1944 0.0000
1.3333 0.2778 0.0000
1.3889 0.2500 0.0000
1.3889 0.3056 0.0000
1.3333 0.3889 0.0000
1.3889 0.3611 0.0000
1.3889 0.4167 0.0000
1.3333 0.5000 0.0000
1.3889 0.4722 0.0000
1.3889 0.5278 0.0000
1.3333 0.6111 0.0000
1.3889 0.5833 0.0000
1.3889 0.6389 0.0000
1.3333 0.7222 0.0000
1.3889 0.6944 0.0000
1.3889 0.7500 0.0000
1.3333 0.8333 0.0000
1.3889 0.8056 0.0000
1.3889 0.8611 0.0000
1.3333 0.9444 0.0000
1.3889 0.9167 0.0000
1.3889 0.9722 0.0000
1.5556 0.0556 0.0000
1.6111 0.0278 0.0000
1.6111 0.0833 0.0000
1.5556 0.1667 0.0000
1.6111 0.1389 0.0000
1.6111 0.1944 0.0000
1.5556 0.2778 0.0000
1.6111 0.2500 0.0000
1.6111 0.3056 0.0000
1.5556 0.3889 0.0000
1.6111 0.3611 0.0000
1.6111 0.4167 0.0000
1.5556 0.5000 0.0000
1.6111 0.4722 0.0000
1.6111 0.5278 0.0000
1.5556 0.6111 0.0000
1.6111 0.5833 0.0000
1.6111 0.6389 0.0000
1.5556 0.7222 0.0000
1.6111 0.6944 0.0000
1.6111 0.7500 0.0000
1.5556 0.8333 0.0000
1.6111 0.8056 0.0000
1.6111 0.8611 0.0000
1.5556 0.9444 0.0000
1.6111 0.9167 0.0000
1.6111 0.9722 0.0000
1.7778 0.0556 0.0000
1.8333 0.0278 0.0000
1.8333 0.0833 0.0000
1.7778 0.1667 0.0000
1.8333 0.1389 0.0000
1.8333 0.1944 0.0000
1.7778 0.2778 0.0000
1.8333 0.2500 0.0000
1.8333 0.3056 0.0000
1.7778 0.3889 0.0000
1.8333 0.3611 0.0000
1.8333 0.4167 0.0000
1.7778 0.5000 0.0000
1.8333 0.4722 0.0000
1.8333 0.5278 0.0000
1.7778 0.6111 0.0000
1.8333 0.5833 0.0000
1.8333 0.6389 0.0000
1.7778 0.7222 0.0000
1.8333 0.6944 0.0000
1.8333 0.7500 0.0000
1.7778 0.8333 0.0000
1.8333 0.8056 0.0000
1.8333 0.8611 0.0000
1.7778 0.9444 0.0000
1.8333 0.9167 0.0000
1.8333 0.9722 0.0000
0.1111 0.1111 0.0000
0.1667 0.0833 0.0000
0.1111 0.2222 0.0000
0.1667 0.1944 0.0000
0.1111 0.3333 0.0000
0.1667 0.3056 0.0000
0.1111 0.4444 0.0000
0.1667 0.4167 0.0000
0.1111 0.5556 0.0000
0.1667 0.5278 0.0000
0.1111 0.6667 0.0000
0.1667 0.6389 0.0000
0.1111 0.7778 0.0000
0.1667 0.7500 0.0000
0.1111 0.8889 0.0000
0.1667 0.8611 0.0000
0.1111 1.0000 0.0000
0.1667 0.9722 0.0000
0.3333 0.1111 0.0000
0.3889 0.0833 0.0000
0.3333 0.2222 0.0000
0.3889 0.1944 0.0000
0.3333 0.3333 0.0000
0.3889 0.3056 0.0000
0.3333 0.4444 0.0000
0.3889 0.4167 0.0000
0.3333 0.5556 0.0000
0.3889 0.5278 0.0000
0.3333 0.6667 0.0000
0.3889 0.6389 0.0000
0.3333 0.7778 0.0000
0.3889 0.7500 0.0000
0.3333 0.8889 0.0000
0.3889 0.8611 0.0000
0.3333 1.0000 0.0000
0.3889 0.9722 0.0000
0.5556 0.1111 0.0000
[...]
         <PointData>
            <DataArray Name="fValues" NumberOfComponents="3" format="ascii" type="Float64">
 2.44753e-15 -2.44753e-15        00000 
-3.30136e-16 -2.64109e-16        00000 
-2.98962e-16  5.38680e-16        00000 
-3.94539e-16 -5.91809e-16        00000 
-4.06010e-16  3.10471e-16        00000 
 4.60296e-16 -5.26052e-16        00000 
-3.57912e-16 -7.88025e-16        00000 
-3.94182e-16  3.94182e-16        00000 
 5.28345e-16 -1.71712e-15        00000 
 1.22377e-15 -1.83565e-15        00000 
-4.91683e+01 -3.73546e+01        00000 
-3.34628e+01 -2.87136e+01        00000 
-2.18116e+01 -2.26338e+01        00000 
-1.24319e+01 -1.91087e+01        00000 
-4.04238e+00 -1.75085e+01        00000 
 4.06323e+00 -1.75013e+01        00000 
 1.24567e+01 -1.90987e+01        00000 
 2.18387e+01 -2.26226e+01        00000 
 3.34812e+01 -2.87075e+01        00000 
 4.91837e+01 -3.73506e+01        00000 
-8.95185e+01 -7.94005e+01        00000 
-6.58897e+01 -7.18886e+01        00000 
-4.49354e+01 -6.60365e+01        00000 
-2.60992e+01 -6.21165e+01        00000 
-8.55405e+00 -6.01701e+01        00000 
 8.56004e+00 -6.01681e+01        00000 
 2.61022e+01 -6.21103e+01        00000 
 4.49453e+01 -6.60239e+01        00000 
 6.59102e+01 -7.18643e+01        00000 
 8.95453e+01 -7.93724e+01        00000 
-1.25189e+02 -1.37451e+02        00000 
-9.38372e+01 -1.30973e+02        00000 
-6.50915e+01 -1.25976e+02        00000 
-3.82698e+01 -1.22605e+02        00000 
-1.26260e+01 -1.20907e+02        00000 
 1.26108e+01 -1.20906e+02        00000 
 3.82446e+01 -1.22604e+02        00000 
 6.50634e+01 -1.25980e+02        00000 
 9.38144e+01 -1.30974e+02        00000 
 1.25169e+02 -1.37436e+02        00000 
-1.55625e+02 -2.10168e+02        00000 
-1.17529e+02 -2.04750e+02        00000 
-8.20675e+01 -2.00595e+02        00000 
-4.84913e+01 -1.97812e+02        00000 
-1.60552e+01 -1.96413e+02        00000 
 1.59988e+01 -1.96410e+02        00000 
 4.84358e+01 -1.97802e+02        00000 
 8.20009e+01 -2.00586e+02        00000 
 1.17444e+02 -2.04735e+02        00000 
 1.55511e+02 -2.10131e+02        00000 
-1.80573e+02 -2.95218e+02        00000 
-1.36945e+02 -2.90879e+02        00000 
-9.59413e+01 -2.87552e+02        00000 
-5.68242e+01 -2.85332e+02        00000 
-1.88462e+01 -2.84222e+02        00000 
 1.87518e+01 -2.84214e+02        00000 
 5.67239e+01 -2.85309e+02        00000 
 9.58300e+01 -2.87510e+02        00000 
 1.36810e+02 -2.90817e+02        00000 
 1.80425e+02 -2.95142e+02        00000 
-2.00032e+02 -3.90104e+02        00000 
-1.52078e+02 -3.86840e+02        00000 
-1.06726e+02 -3.84368e+02        00000 
-6.32736e+01 -3.82741e+02        00000 
-2.10015e+01 -3.81937e+02        00000 
 2.08651e+01 -3.81927e+02        00000 
 6.31246e+01 -3.82713e+02        00000 
 1.06559e+02 -3.84324e+02        00000 
 1.51908e+02 -3.86788e+02        00000 
 1.99872e+02 -3.90046e+02        00000 
-2.14143e+02 -4.92421e+02        00000 
-1.62920e+02 -4.90205e+02        00000 
-1.14280e+02 -4.88639e+02        00000 
-6.77010e+01 -4.87684e+02        00000 
-2.24711e+01 -4.87230e+02        00000 
 2.22903e+01 -4.87220e+02        00000 
 6.75199e+01 -4.87653e+02        00000 
 1.14096e+02 -4.88599e+02        00000 
 1.62739e+02 -4.90163e+02        00000 
 2.13953e+02 -4.92376e+02        00000 
-2.23528e+02 -6.00183e+02        00000 
-1.69407e+02 -5.98986e+02        00000 
-1.18333e+02 -5.98268e+02        00000 
-6.99474e+01 -5.97757e+02        00000 
-2.32057e+01 -5.97468e+02        00000 
 2.29899e+01 -5.97457e+02        00000 
 6.97387e+01 -5.97728e+02        00000 
 1.18135e+02 -5.98226e+02        00000 
 1.69214e+02 -5.98943e+02        00000 
 2.23339e+02 -6.00147e+02        00000 
-2.29333e+02 -7.17460e+02        00000 
-1.72108e+02 -7.14647e+02        00000 
-1.20200e+02 -7.11298e+02        00000 
-7.11395e+01 -7.08729e+02        00000 
-2.36245e+01 -7.07360e+02        00000 
 2.33902e+01 -7.07354e+02        00000 
 7.09200e+01 -7.08719e+02        00000 
 1.20002e+02 -7.11289e+02        00000 
 1.71926e+02 -7.14637e+02        00000 
 2.29138e+02 -7.17446e+02        00000 
-1.98982e+01 -1.59006e+01        00000 
-1.27000e+01 -9.69047e+00        00000 
-7.89543e+00 -6.67819e+00        00000 
-3.81665e+00 -5.23678e+00        00000 
 7.72879e-03 -4.80498e+00        00000 
 3.82995e+00 -5.23489e+00        00000 
 7.91298e+00 -6.67344e+00        00000 
 1.27124e+01 -9.68721e+00        00000 
 1.99086e+01 -1.58985e+01        00000 
-5.97189e+01 -5.22020e+01        00000 
-4.16130e+01 -4.49908e+01        00000 
-2.62833e+01 -3.99022e+01        00000 
-1.27326e+01 -3.69799e+01        00000 
 8.01246e-03 -3.60337e+01        00000 
 1.27506e+01 -3.69741e+01        00000 
 2.63078e+01 -3.98900e+01        00000 
 4.16382e+01 -4.49767e+01        00000 
 5.97400e+01 -5.21896e+01        00000 
-9.38248e+01 -1.02796e+02        00000 
-6.76202e+01 -9.65410e+01        00000 
-4.37203e+01 -9.19794e+01        00000 
-2.14436e+01 -8.92195e+01        00000 
-3.46080e-03 -8.82968e+01        00000 
 2.14390e+01 -8.92200e+01        00000 
 4.37084e+01 -9.19820e+01        00000 
 6.76153e+01 -9.65365e+01        00000 
 9.38364e+01 -1.02784e+02        00000 
-1.23276e+02 -1.68989e+02        00000 
-8.98090e+01 -1.63691e+02        00000 
-5.86037e+01 -1.59861e+02        00000 
-2.89226e+01 -1.57550e+02        00000 
-1.82871e-02 -1.56776e+02        00000 
 2.88878e+01 -1.57549e+02        00000 
 5.85639e+01 -1.59864e+02        00000 
 8.97601e+01 -1.63696e+02        00000 
 1.23216e+02 -1.68981e+02        00000 
-1.47902e+02 -2.48735e+02        00000 
-1.08296e+02 -2.44400e+02        00000 
-7.09489e+01 -2.41279e+02        00000 
-3.51148e+01 -2.39402e+02        00000 
-3.67135e-02 -2.38770e+02        00000 
 3.50447e+01 -2.39387e+02        00000 
 7.08748e+01 -2.41254e+02        00000 
 1.08204e+02 -2.44369e+02        00000 
 1.47778e+02 -2.48693e+02        00000 
-1.67639e+02 -3.39588e+02        00000 
-1.23107e+02 -3.36216e+02        00000 
-8.08167e+01 -3.33797e+02        00000 
-4.00501e+01 -3.32351e+02        00000 
-5.68293e-02 -3.31865e+02        00000 
 3.99306e+01 -3.32331e+02        00000 
 8.06805e+01 -3.33758e+02        00000 
 1.22957e+02 -3.36160e+02        00000 
 1.67483e+02 -3.39527e+02        00000 
-1.82519e+02 -4.39035e+02        00000 
-1.34195e+02 -4.36640e+02        00000 
-8.81371e+01 -4.34980e+02        00000 
-4.36838e+01 -4.34019e+02        00000 
-7.83929e-02 -4.33700e+02        00000 
 4.35218e+01 -4.33996e+02        00000 
 8.79624e+01 -4.34939e+02        00000 
 1.34014e+02 -4.36591e+02        00000 
 1.82344e+02 -4.38987e+02        00000 
-1.92708e+02 -5.44750e+02        00000 
-1.41418e+02 -5.43355e+02        00000 
-9.26764e+01 -5.42515e+02        00000 
-4.58775e+01 -5.42053e+02        00000 
-9.83350e-02 -5.41899e+02        00000 
 4.56796e+01 -5.42037e+02        00000 
 9.24850e+01 -5.42485e+02        00000 
 1.41229e+02 -5.43316e+02        00000 
 1.92515e+02 -5.44705e+02        00000 
-1.98359e+02 -6.56033e+02        00000 
-1.44612e+02 -6.55155e+02        00000 
-9.45698e+01 -6.54095e+02        00000 
-4.68004e+01 -6.53271e+02        00000 
-1.15183e-01 -6.52960e+02        00000 
 4.65750e+01 -6.53255e+02        00000 
 9.43627e+01 -6.54069e+02        00000 
 1.44422e+02 -6.55129e+02        00000 
 1.98173e+02 -6.56011e+02        00000 
-2.02724e-15 -3.08287e-15        00000 
-1.08732e+01 -8.30501e+00        00000 
-8.25477e+00 -5.84510e+00        00000 
 2.99627e-16  6.59621e-16        00000 
-6.65808e+00 -4.30358e+00        00000 
-5.39593e+00 -3.25824e+00        00000 
-1.24900e-15 -1.24900e-16        00000 
-4.28783e+00 -2.52813e+00        00000 
-3.26702e+00 -2.01773e+00        00000 
-4.31932e-16 -7.38696e-16        00000 
-2.30160e+00 -1.67006e+00        00000 
-1.36677e+00 -1.45289e+00        00000 
 3.12250e-17 -4.99600e-16        00000 
-4.49735e-01 -1.35037e+00        00000 
 4.59061e-01 -1.35013e+00        00000 
-2.79806e-18 -4.30713e-16        00000 
 1.37529e+00 -1.45442e+00        00000 
 2.30841e+00 -1.66928e+00        00000 
 2.12330e-15        00000        00000 
 3.27671e+00 -2.01576e+00        00000 
 4.29661e+00 -2.52761e+00        00000 
 4.99600e-16 -2.49800e-16        00000 
 5.40301e+00 -3.25850e+00        00000 
 6.66410e+00 -4.30261e+00        00000 
-2.70514e-15  3.12204e-16        00000 
 8.26000e+00 -5.84417e+00        00000 
 1.08784e+01 -8.30414e+00        00000 
-4.08555e+01 -3.28529e+01        00000 
-5.49648e+01 -4.44331e+01        00000 
-4.61460e+01 -4.01044e+01        00000 
-2.72317e+01 -2.53103e+01        00000 
-3.81646e+01 -3.63189e+01        00000 
-3.10608e+01 -3.31774e+01        00000 
-1.69387e+01 -2.05966e+01        00000 
-2.46374e+01 -3.06694e+01        00000 
-1.87119e+01 -2.87522e+01        00000 
-8.16348e+00 -1.80953e+01        00000 
-1.31367e+01 -2.73684e+01        00000 
-7.79171e+00 -2.64712e+01        00000 
 1.06658e-02 -1.73120e+01        00000 
-2.57761e+00 -2.60286e+01        00000 
 2.59669e+00 -2.60256e+01        00000 
 8.18539e+00 -1.80871e+01        00000 
 7.81278e+00 -2.64643e+01        00000 
 1.31606e+01 -2.73590e+01        00000 
 1.69663e+01 -2.05865e+01        00000 
 1.87398e+01 -2.87411e+01        00000 
 2.46655e+01 -3.06573e+01        00000 
 2.72531e+01 -2.53004e+01        00000 
 3.10861e+01 -3.31646e+01        00000 
 3.81872e+01 -3.63101e+01        00000 
 4.08716e+01 -3.28471e+01        00000 
 4.61663e+01 -4.00962e+01        00000 
 5.49830e+01 -4.44257e+01        00000 
-7.73461e+01 -7.54682e+01        00000 
-9.22156e+01 -9.07376e+01        00000 
-7.94169e+01 -8.69368e+01        00000 
-5.51056e+01 -6.87324e+01        00000 
-6.73028e+01 -8.36291e+01        00000 
-5.58134e+01 -8.07860e+01        00000 
-3.53010e+01 -6.38276e+01        00000 
-4.48771e+01 -7.84073e+01        00000 
-3.44094e+01 -7.65018e+01        00000 
-1.72177e+01 -6.08976e+01        00000 
-2.43119e+01 -7.50733e+01        00000 
-1.44806e+01 -7.41210e+01        00000 
 1.86698e-03 -5.99262e+01        00000 
-4.81168e+00 -7.36449e+01        00000 
 4.80849e+00 -7.36440e+01        00000 
 1.72229e+01 -6.08946e+01        00000 
 1.44799e+01 -7.41195e+01        00000 
 2.43105e+01 -7.50711e+01        00000 
 3.53050e+01 -6.38206e+01        00000 
 3.44056e+01 -7.65012e+01        00000 
 4.48735e+01 -7.84037e+01        00000 
 5.51201e+01 -6.87131e+01        00000 
 5.58150e+01 -8.07758e+01        00000 
 6.73110e+01 -8.36131e+01        00000 
 7.73701e+01 -7.54395e+01        00000 
 7.94344e+01 -8.69163e+01        00000 
 9.22407e+01 -9.07141e+01        00000 
-1.09144e+02 -1.34048e+02        00000 
-1.24727e+02 -1.52887e+02        00000 
-1.08171e+02 -1.49629e+02        00000 
-7.91811e+01 -1.28275e+02        00000 
-9.23083e+01 -1.46810e+02        00000 
-7.70526e+01 -1.44399e+02        00000 
-5.14866e+01 -1.24084e+02        00000 
-6.23217e+01 -1.42387e+02        00000 
-4.80222e+01 -1.40774e+02        00000 
-2.53470e+01 -1.21544e+02        00000 
-3.40593e+01 -1.39560e+02        00000 
-2.03413e+01 -1.38750e+02        00000 
-9.71867e-03 -1.20694e+02        00000 
-6.77204e+00 -1.38342e+02        00000 
 6.74625e+00 -1.38343e+02        00000 
 2.53261e+01 -1.21543e+02        00000 
 2.03152e+01 -1.38750e+02        00000 
 3.40297e+01 -1.39561e+02        00000 
 5.14571e+01 -1.24086e+02        00000 
 4.79902e+01 -1.40776e+02        00000 
 6.22864e+01 -1.42393e+02        00000 
 7.91539e+01 -1.28280e+02        00000 
 7.70170e+01 -1.44405e+02        00000 
 9.22705e+01 -1.46814e+02        00000 
 1.09121e+02 -1.34042e+02        00000 
 1.08134e+02 -1.49627e+02        00000 
 1.24688e+02 -1.52876e+02        00000 
-1.36201e+02 -2.07323e+02        00000 
-1.52184e+02 -2.29164e+02        00000 
-1.32408e+02 -2.26464e+02        00000 
-9.95157e+01 -2.02504e+02        00000 
-1.13326e+02 -2.24133e+02        00000 
-9.48591e+01 -2.22145e+02        00000 
-6.50885e+01 -1.99031e+02        00000 
-7.69068e+01 -2.20492e+02        00000 
-5.93810e+01 -2.19171e+02        00000 
-3.21776e+01 -1.96938e+02        00000 
-4.21867e+01 -2.18178e+02        00000 
-2.52327e+01 -2.17516e+02        00000 
-2.85723e-02 -1.96237e+02        00000 
-8.41571e+00 -2.17181e+02        00000 
 8.35030e+00 -2.17179e+02        00000 
 3.21243e+01 -1.96931e+02        00000 
 2.51682e+01 -2.17506e+02        00000 
 4.21273e+01 -2.18164e+02        00000 
 6.50320e+01 -1.99021e+02        00000 
 5.93187e+01 -2.19153e+02        00000 
 7.68392e+01 -2.20473e+02        00000 
 9.94425e+01 -2.02492e+02        00000 
 9.47796e+01 -2.22126e+02        00000 
 1.13237e+02 -2.24110e+02        00000 
 1.36103e+02 -2.07295e+02        00000 
 1.32302e+02 -2.26434e+02        00000 
 1.52064e+02 -2.29124e+02        00000 
-1.58381e+02 -2.92936e+02        00000 
-1.74449e+02 -3.17160e+02        00000 
-1.52058e+02 -3.15029e+02        00000 
-1.16162e+02 -2.89080e+02        00000 
-1.30365e+02 -3.13187e+02        00000 
-1.09276e+02 -3.11617e+02        00000 
-7.61925e+01 -2.86303e+02        00000 
-8.87038e+01 -3.10313e+02        00000 
-6.85575e+01 -3.09274e+02        00000 
-3.77401e+01 -2.84638e+02        00000 
-4.87453e+01 -3.08496e+02        00000 
-2.91722e+01 -3.07978e+02        00000 
-4.76866e-02 -2.84081e+02        00000 
-9.74220e+00 -3.07716e+02        00000 
 9.63885e+00 -3.07712e+02        00000 
 3.76448e+01 -2.84624e+02        00000 
 2.90668e+01 -3.07964e+02        00000 
 4.86356e+01 -3.08474e+02        00000 
 7.60888e+01 -2.86271e+02        00000 
 6.84404e+01 -3.09243e+02        00000 
 8.85791e+01 -3.10273e+02        00000 
 1.16041e+02 -2.89026e+02        00000 
 1.09143e+02 -3.11567e+02        00000 
 1.30224e+02 -3.13127e+02        00000 
 1.58236e+02 -2.92868e+02        00000 
 1.51909e+02 -3.14962e+02        00000 
 1.74298e+02 -3.17094e+02        00000 
-1.75682e+02 -3.88385e+02        00000 
-1.91546e+02 -4.14372e+02        00000 
-1.67134e+02 -4.12801e+02        00000 
-1.29122e+02 -3.85498e+02        00000 
-1.43408e+02 -4.11456e+02        00000 
-1.20285e+02 -4.10320e+02        00000 
-8.48079e+01 -3.83450e+02        00000 
-9.76864e+01 -4.09390e+02        00000 
-7.55241e+01 -4.08655e+02        00000 
-4.20398e+01 -3.82240e+02        00000 
-5.37090e+01 -4.08111e+02        00000 
-3.21518e+01 -4.07752e+02        00000 
-6.89154e-02 -3.81834e+02        00000 
-1.07473e+01 -4.07571e+02        00000 
 1.06022e+01 -4.07566e+02        00000 
 4.18950e+01 -3.82219e+02        00000 
 3.20018e+01 -4.07735e+02        00000 
 5.35560e+01 -4.08085e+02        00000 
 8.46452e+01 -3.83413e+02        00000 
 7.53605e+01 -4.08619e+02        00000 
 9.75132e+01 -4.09348e+02        00000 
 1.28949e+02 -3.85448e+02        00000 
 1.20110e+02 -4.10274e+02        00000 
 1.43233e+02 -4.11405e+02        00000 
 1.75516e+02 -3.88331e+02        00000 
 1.66962e+02 -4.12751e+02        00000 
 1.91378e+02 -4.14322e+02        00000 
-1.88179e+02 -4.91240e+02        00000 
-2.03640e+02 -5.18429e+02        00000 
-1.77690e+02 -5.17394e+02        00000 
-1.38304e+02 -4.89337e+02        00000 
-1.52398e+02 -5.16550e+02        00000 
-1.27736e+02 -5.15883e+02        00000 
-9.07707e+01 -4.88091e+02        00000 
-1.03661e+02 -5.15367e+02        00000 
-8.00883e+01 -5.14975e+02        00000 
-4.49687e+01 -4.87399e+02        00000 
-5.69293e+01 -5.14692e+02        00000 
-3.40727e+01 -5.14507e+02        00000 
-8.98238e-02 -4.87171e+02        00000 
-1.14003e+01 -5.14416e+02        00000 
 1.12109e+01 -5.14411e+02        00000 
 4.47885e+01 -4.87379e+02        00000 
 3.38825e+01 -5.14496e+02        00000 
 5.67415e+01 -5.14672e+02        00000 
 9.05918e+01 -4.88055e+02        00000 
 7.99036e+01 -5.14947e+02        00000 
 1.03476e+02 -5.15333e+02        00000 
 1.38122e+02 -4.89298e+02        00000 
 1.27552e+02 -5.15847e+02        00000 
 1.52211e+02 -5.16512e+02        00000 
 1.87995e+02 -4.91197e+02        00000 
 1.77502e+02 -5.17351e+02        00000 
 2.03451e+02 -5.18384e+02        00000 
-1.96151e+02 -5.99489e+02        00000 
-2.11352e+02 -6.27801e+02        00000 
-1.83740e+02 -6.27286e+02        00000 
-1.43478e+02 -5.98595e+02        00000 
-1.57096e+02 -6.26891e+02        00000 
-1.31382e+02 -6.26523e+02        00000 
-9.38668e+01 -5.97989e+02        00000 
-1.06461e+02 -6.26169e+02        00000 
-8.21796e+01 -6.25846e+02        00000 
-4.64390e+01 -5.97580e+02        00000 
-5.83880e+01 -6.25576e+02        00000 
-3.49406e+01 -6.25380e+02        00000 
-1.07628e-01 -5.97425e+02        00000 
-1.16999e+01 -6.25275e+02        00000 
 1.14756e+01 -6.25270e+02        00000 
 4.62283e+01 -5.97559e+02        00000 
 3.47188e+01 -6.25365e+02        00000 
 5.81727e+01 -6.25552e+02        00000 
 9.36644e+01 -5.97951e+02        00000 
 8.19700e+01 -6.25816e+02        00000 
 1.06262e+02 -6.26135e+02        00000 
 1.43284e+02 -5.98550e+02        00000 
 1.31189e+02 -6.26487e+02        00000 
 1.56910e+02 -6.26854e+02        00000 
 1.95958e+02 -5.99450e+02        00000 
 1.83554e+02 -6.27253e+02        00000 
 2.11164e+02 -6.27772e+02        00000 
-1.57501e+01 -1.22123e+01        00000 
-2.74324e+01 -2.21133e+01        00000 
-1.01573e+01 -7.92490e+00        00000 
-1.78161e+01 -1.57058e+01        00000 
-5.80399e+00 -5.80918e+00        00000 
-1.06577e+01 -1.22128e+01        00000 
-1.88905e+00 -4.91096e+00        00000 
-4.43083e+00 -1.05490e+01        00000 
 1.90498e+00 -4.91026e+00        00000 
 1.48269e+00 -1.02351e+01        00000 
 5.82042e+00 -5.80524e+00        00000 
 7.49537e+00 -1.11876e+01        00000 
 1.01749e+01 -7.92138e+00        00000 
 1.40844e+01 -1.36735e+01        00000 
 1.57596e+01 -1.22097e+01        00000 
 2.21539e+01 -1.84416e+01        00000 
 2.74464e+01 -2.14007e+01        00000 
 3.45394e+01 -2.68564e+01        00000 
-5.02880e+01 -4.83630e+01        00000 
-6.33651e+01 -6.15071e+01        00000 
-3.36581e+01 -4.21650e+01        00000 
-4.38583e+01 -5.49089e+01        00000 
-1.93517e+01 -3.81812e+01        00000 
-2.67642e+01 -5.03867e+01        00000 
-6.31393e+00 -3.62684e+01        00000 
-1.12024e+01 -4.79312e+01        00000 
 6.33074e+00 -3.62657e+01        00000 
 3.72474e+00 -4.74449e+01        00000 
 1.93726e+01 -3.81735e+01        00000 
 1.88622e+01 -4.89016e+01        00000 
 3.36830e+01 -4.21506e+01        00000 
 3.50767e+01 -5.23696e+01        00000 
 5.03115e+01 -4.83501e+01        00000 
 5.32934e+01 -5.79354e+01        00000 
 6.98990e+01 -5.63891e+01        00000 
 7.41914e+01 -6.55472e+01        00000 
-8.03977e+01 -9.94675e+01        00000 
-9.43547e+01 -1.16377e+02        00000 
-5.54207e+01 -9.40401e+01        00000 
-6.68719e+01 -1.10688e+02        00000 
-3.24269e+01 -9.03695e+01        00000 
-4.15036e+01 -1.06729e+02        00000 
-1.06716e+01 -8.85284e+01        00000 
-1.75329e+01 -1.04516e+02        00000 
 1.06658e+01 -8.85282e+01        00000 
 5.82155e+00 -1.04070e+02        00000 
 3.24175e+01 -9.03729e+01        00000 
 2.93779e+01 -1.05402e+02        00000 
 5.54109e+01 -9.40397e+01        00000 
 5.39450e+01 -1.08495e+02        00000 
 8.04002e+01 -9.94593e+01        00000 
 8.02956e+01 -1.13314e+02        00000 
 1.08000e+02 -1.06450e+02        00000 
 1.09084e+02 -1.19896e+02        00000 
-1.06215e+02 -1.66165e+02        00000 
-1.20859e+02 -1.86430e+02        00000 
-7.39679e+01 -1.61588e+02        00000 
-8.63824e+01 -1.81653e+02        00000 
-4.36187e+01 -1.58514e+02        00000 
-5.39780e+01 -1.78356e+02        00000 
-1.44209e+01 -1.56971e+02        00000 
-2.29065e+01 -1.76520e+02        00000 
 1.43870e+01 -1.56970e+02        00000 
 7.58917e+00 -1.76150e+02        00000 
 4.35810e+01 -1.58515e+02        00000 
 3.82766e+01 -1.77252e+02        00000 
 7.39235e+01 -1.61595e+02        00000 
 6.99146e+01 -1.79820e+02        00000 
 1.06161e+02 -1.66164e+02        00000 
 1.03250e+02 -1.83848e+02        00000 
 1.41023e+02 -1.72100e+02        00000 
 1.39018e+02 -1.89388e+02        00000 
-1.27773e+02 -2.46423e+02        00000 