<?xml version="1.0" encoding="utf-8"?>
<VTKFile byte_order="LittleEndian" type="UnstructuredGrid" version="0.1">
   <UnstructuredGrid>
      <Piece NumberOfCells="1296" NumberOfPoints="685">
         <Points>
            <DataArray Name="Points" NumberOfComponents="3" format="ascii" type="Float32">
0.0000 0.0000 0.0000
0.0000 0.1111 0.0000
0.0000 0.2222 0.0000
0.0000 0.3333 0.0000
0.0000 0.4444 0.0000
0.0000 0.5556 0.0000
0.0000 0.6667 0.0000
0.0000 0.7778 0.0000
0.0000 0.8889 0.0000
0.0000 1.0000 0.0000
0.2222 0.0000 0.0000
0.2222 0.1111 0.0000
0.2222 0.2222 0.0000
0.2222 0.3333 0.0000
0.2222 0.4444 0.0000
0.2222 0.5556 0.0000
0.2222 0.6667 0.0000
0.2222 0.7778 0.0000
0.2222 0.8889 0.0000
0.2222 1.0000 0.0000
0.4444 0.0000 0.0000
0.4444 0.1111 0.0000
0.4444 0.2222 0.0000
0.4444 0.3333 0.0000
0.4444 0.4444 0.0000
0.4444 0.5556 0.0000
0.4444 0.6667 0.0000
0.4444 0.7778 0.0000
0.4444 0.8889 0.0000
0.4444 1.0000 0.0000
0.6667 0.0000 0.0000
0.6667 0.1111 0.0000
0.6667 0.2222 0.0000
0.6667 0.3333 0.0000
0.6667 0.4444 0.0000
0.6667 0.5556 0.0000
0.6667 0.6667 0.0000
0.6667 0.7778 0.0000
0.6667 0.8889 0.0000
0.6667 1.0000 0.0000
0.8889 0.0000 0.0000
0.8889 0.1111 0.0000
0.8889 0.2222 0.0000
0.8889 0.3333 0.0000
0.8889 0.4444 0.0000
0.8889 0.5556 0.0000
0.8889 0.6667 0.0000
0.8889 0.7778 0.0000
0.8889 0.8889 0.0000
0.8889 1.0000 0.0000
1.1111 0.0000 0.0000
1.1111 0.1111 0.0000
1.1111 0.2222 0.0000
1.1111 0.3333 0.0000
1.1111 0.4444 0.0000
1.1111 0.5556 0.0000
1.1111 0.6667 0.0000
1.1111 0.7778 0.0000
1.1111 0.8889 0.0000
1.1111 1.0000 0.0000
1.3333 0.0000 0.0000
1.3333 0.1111 0.0000
1.3333 0.2222 0.0000
1.3333 0.3333 0.0000
1.3333 0.4444 0.0000
1.3333 0.5556 0.0000
1.3333 0.6667 0.0000
1.3333 0.7778 0.0000
1.3333 0.8889 0.0000
1.3333 1.0000 0.0000
1.5556 0.0000 0.0000
1.5556 0.1111 0.0000
1.5556 0.2222 0.0000
1.5556 0.3333 0.0000
1.5556 0.4444 0.0000
1.5556 0.5556 0.0000
1.5556 0.6667 0.0000
1.5556 0.7778 0.0000
1.5556 0.8889 0.0000
1.5556 1.0000 0.0000
1.7778 0.0000 0.0000
1.7778 0.1111 0.0000
1.7778 0.2222 0.0000
1.7778 0.3333 0.0000
1.7778 0.4444 0.0000
1.7778 0.5556 0.0000
1.7778 0.6667 0.0000
1.7778 0.7778 0.0000
1.7778 0.8889 0.0000
1.7778 1.0000 0.0000
2.0000 0.0000 0.0000
2.0000 0.1111 0.0000
2.0000 0.2222 0.0000
2.0000 0.3333 0.0000
2.0000 0.4444 0.0000
2.0000 0.5556 0.0000
2.0000 0.6667 0.0000
2.0000 0.7778 0.0000
2.0000 0.8889 0.0000
2.0000 1.0000 0.0000
0.1111 0.0556 0.0000
0.1111 0.1667 0.0000
0.1111 0.2778 0.0000
0.1111 0.3889 0.0000
0.1111 0.5000 0.0000
0.1111 0.6111 0.0000
0.1111 0.7222 0.0000
0.1111 0.8333 0.0000
0.1111 0.9444 0.0000
0.3333 0.0556 0.0000
0.3333 0.1667 0.0000
0.3333 0.2778 0.0000
0.3333 0.3889 0.0000
0.3333 0.5000 0.0000
0.3333 0.6111 0.0000
0.3333 0.7222 0.0000
0.3333 0.8333 0.0000
0.3333 0.9444 0.0000
0.5556 0.0556 0.0000
0.5556 0.1667 0.0000
0.5556 0.2778 0.0000
0.5556 0.3889 0.0000
0.5556 0.5000 0.0000
0.5556 0.6111 0.0000
0.5556 0.7222 0.0000
0.5556 0.8333 0.0000
0.5556 0.9444 0.0000
0.7778 0.0556 0.0000
0.7778 0.1667 0.0000
0.7778 0.2778 0.0000
0.7778 0.3889 0.0000
0.7778 0.5000 0.0000
0.7778 0.6111 0.0000
0.7778 0.7222 0.0000
0.7778 0.8333 0.0000
0.7778 0.9444 0.0000
1.0000 0.0556 0.0000
1.0000 0.1667 0.0000
1.0000 0.2778 0.0000
1.0000 0.3889 0.0000
1.0000 0.5000 0.0000
1.0000 0.6111 0.0000
1.0000 0.7222 0.0000
1.0000 0.8333 0.0000
1.0000 0.9444 0.0000
1.2222 0.0556 0.0000
1.2222 0.1667 0.0000
1.2222 0.2778 0.0000
1.2222 0.3889 0.0000
1.2222 0.5000 0.0000
1.2222 0.6111 0.0000
1.2222 0.7222 0.0000
1.2222 0.8333 0.0000
1.2222 0.9444 0.0000
1.4444 0.0556 0.0000
1.4444 0.1667 0.0000
1.4444 0.2778 0.0000
1.4444 0.3889 0.0000
1.4444 0.5000 0.0000
1.4444 0.6111 0.0000
1.4444 0.7222 0.0000
1.4444 0.8333 0.0000
1.4444 0.9444 0.0000
1.6667 0.0556 0.0000
1.6667 0.1667 0.0000
1.6667 0.2778 0.0000
1.6667 0.3889 0.0000
1.6667 0.5000 0.0000
1.6667 0.6111 0.0000
1.6667 0.7222 0.0000
1.6667 0.8333 0.0000
1.6667 0.9444 0.0000
1.8889 0.0556 0.0000
1.8889 0.1667 0.0000
1.8889 0.2778 0.0000
1.8889 0.3889 0.0000
1.8889 0.5000 0.0000
1.8889 0.6111 0.0000
1.8889 0.7222 0.0000
1.8889 0.8333 0.0000
1.8889 0.9444 0.0000
0.0000 0.0556 0.0000
0.0556 0.0278 0.0000
0.0556 0.0833 0.0000
0.0000 0.1667 0.0000
0.0556 0.1389 0.0000
0.0556 0.1944 0.0000
0.0000 0.2778 0.0000
0.0556 0.2500 0.0000
0.0556 0.3056 0.0000
0.0000 0.3889 0.0000
0.0556 0.3611 0.0000
0.0556 0.4167 0.0000
0.0000 0.5000 0.0000
0.0556 0.4722 0.0000
0.0556 0.5278 0.0000
0.0000 0.6111 0.0000
0.0556 0.5833 0.0000
0.0556 0.6389 0.0000
0.0000 0.7222 0.0000
0.0556 0.6944 0.0000
0.0556 0.7500 0.0000
0.0000 0.8333 0.0000
0.0556 0.8056 0.0000
0.0556 0.8611 0.0000
0.0000 0.9444 0.0000
0.0556 0.9167 0.0000
0.0556 0.9722 0.0000
0.2222 0.0556 0.0000
0.2778 0.0278 0.0000
0.2778 0.0833 0.0000
0.2222 0.1667 0.0000
0.2778 0.1389 0.0000
0.2778 0.1944 0.0000
0.2222 0.2778 0.0000
0.2778 0.2500 0.0000
0.2778 0.3056 0.0000
0.2222 0.3889 0.0000
0.2778 0.3611 0.0000
0.2778 0.4167 0.0000
0.2222 0.5000 0.0000
0.2778 0.4722 0.0000
0.2778 0.5278 0.0000
0.2222 0.6111 0.0000
0.2778 0.5833 0.0000
0.2778 0.6389 0.0000
0.2222 0.7222 0.0000
0.2778 0.6944 0.0000
0.2778 0.7500 0.0000
0.2222 0.8333 0.0000
0.2778 0.8056 0.0000
0.2778 0.8611 0.0000
0.2222 0.9444 0.0000
0.2778 0.9167 0.0000
0.2778 0.9722 0.0000
0.4444 0.0556 0.0000
0.5000 0.0278 0.0000
0.5000 0.0833 0.0000
0.4444 0.1667 0.0000
0.5000 0.1389 0.0000
0.5000 0.1944 0.0000
0.4444 0.2778 0.0000
0.5000 0.2500 0.0000
0.5000 0.3056 0.0000
0.4444 0.3889 0.0000
0.5000 0.3611 0.0000
0.5000 0.4167 0.0000
0.4444 0.5000 0.0000
0.5000 0.4722 0.0000
0.5000 0.5278 0.0000
0.4444 0.6111 0.0000
0.5000 0.5833 0.0000
0.5000 0.6389 0.0000
0.4444 0.7222 0.0000
0.5000 0.6944 0.0000
0.5000 0.7500 0.0000
0.4444 0.8333 0.0000
0.5000 0.8056 0.0000
0.5000 0.8611 0.0000
0.4444 0.9444 0.0000
0.5000 0.9167 0.0000
0.5000 0.9722 0.0000
0.6667 0.0556 0.0000
0.7222 0.0278 0.0000
0.7222 0.0833 0.0000
0.6667 0.1667 0.0000
0.7222 0.1389 0.0000
0.7222 0.1944 0.0000
0.6667 0.2778 0.0000
0.7222 0.2500 0.0000
0.7222 0.3056 0.0000
0.6667 0.3889 0.0000
0.7222 0.3611 0.0000
0.7222 0.4167 0.0000
0.6667 0.5000 0.0000
0.7222 0.4722 0.0000
0.7222 0.5278 0.0000
0.6667 0.6111 0.0000
0.7222 0.5833 0.0000
0.7222 0.6389 0.0000
0.6667 0.7222 0.0000
0.7222 0.6944 0.0000
0.7222 0.7500 0.0000
0.6667 0.8333 0.0000
0.7222 0.8056 0.0000
0.7222 0.8611 0.0000
0.6667 0.9444 0.0000
0.7222 0.9167 0.0000
0.7222 0.9722 0.0000
0.8889 0.0556 0.0000
0.9444 0.0278 0.0000
0.9444 0.0833 0.0000
0.8889 0.1667 0.0000
0.9444 0.1389 0.0000
0.9444 0.1944 0.0000
0.8889 0.2778 0.0000
0.9444 0.2500 0.0000
0.9444 0.3056 0.0000
0.8889 0.3889 0.0000
0.9444 0.3611 0.0000
0.9444 0.4167 0.0000
0.8889 0.5000 0.0000
0.9444 0.4722 0.0000
0.9444 0.5278 0.0000
0.8889 0.6111 0.0000
0.9444 0.5833 0.0000
0.9444 0.6389 0.0000
0.8889 0.7222 0.0000
0.9444 0.6944 0.0000
0.9444 0.7500 0.0000
0.8889 0.8333 0.0000
0.9444 0.8056 0.0000
0.9444 0.8611 0.0000
0.8889 0.9444 0.0000
0.9444 0.9167 0.0000
0.9444 0.9722 0.0000
1.1111 0.0556 0.0000
1.1667 0.0278 0.0000
1.1667 0.0833 0.0000
1.1111 0.1667 0.0000
1.1667 0.1389 0.0000
1.1667 0.1944 0.0000
1.1111 0.2778 0.0000
1.1667 0.2500 0.0000
1.1667 0.3056 0.0000
1.1111 0.3889 0.0000
1.1667 0.3611 0.0000
1.1667 0.4167 0.0000
1.1111 0.5000 0.0000
1.1667 0.4722 0.0000
1.1667 0.5278 0.0000
1.1111 0.6111 0.0000
1.1667 0.5833 0.0000
1.1667 0.6389 0.0000
1.1111 0.7222 0.0000
1.1667 0.6944 0.0000
1.1667 0.7500 0.0000
1.1111 0.8333 0.0000
1.1667 0.8056 0.0000
1.1667 0.8611 0.0000
1.1111 0.9444 0.0000
1.1667 0.9167 0.0000
1.1667 0.9722 0.0000
1.3333 0.0556 0.0000
1.3889 0.0278 0.0000
1.3889 0.0833 0.0000
1.3333 0.1667 0.0000
1.3889 0.1389 0.0000
1.3889 0.1944 0.0000
1.3333 0.2778 0.0000
1.3889 0.2500 0.0000
1.3889 0.3056 0.0000
1.3333 0.3889 0.0000
1.3889 0.3611 0.0000
1.3889 0.4167 0.0000
1.3333 0.5000 0.0000
1.3889 0.4722 0.0000
1.3889 0.5278 0.0000
1.3333 0.6111 0.0000
1.3889 0.5833 0.0000
1.3889 0.6389 0.0000
1.3333 0.7222 0.0000
1.3889 0.6944 0.0000
1.3889 0.7500 0.0000
1.3333 0.8333 0.0000
1.3889 0.8056 0.0000
1.3889 0.8611 0.0000
1.3333 0.9444 0.0000
1.3889 0.9167 0.0000
1.3889 0.9722 0.0000
1.5556 0.0556 0.0000
1.6111 0.0278 0.0000
1.6111 0.0833 0.0000
1.5556 0.1667 0.0000
1.6111 0.1389 0.0000
1.6111 0.1944 0.0000
1.5556 0.2778 0.0000
1.6111 0.2500 0.0000
1.6111 0.3056 0.0000
1.5556 0.3889 0.0000
1.6111 0.3611 0.0000
1.6111 0.4167 0.0000
1.5556 0.5000 0.0000
1.6111 0.4722 0.0000
1.6111 0.5278 0.0000
1.5556 0.6111 0.0000
1.6111 0.5833 0.0000
1.6111 0.6389 0.0000
1.5556 0.7222 0.0000
1.6111 0.6944 0.0000
1.6111 0.7500 0.0000
1.5556 0.8333 0.0000
1.6111 0.8056 0.0000
1.6111 0.8611 0.0000
1.5556 0.9444 0.0000
1.6111 0.9167 0.0000
1.6111 0.9722 0.0000
1.7778 0.0556 0.0000
1.8333 0.0278 0.0000
1.8333 0.0833 0.0000
1.7778 0.1667 0.0000
1.8333 0.1389 0.0000
1.8333 0.1944 0.0000
1.7778 0.2778 0.0000
1.8333 0.2500 0.0000
1.8333 0.3056 0.0000
1.7778 0.3889 0.0000
1.8333 0.3611 0.0000
1.8333 0.4167 0.0000
1.7778 0.5000 0.0000
1.8333 0.4722 0.0000
1.8333 0.5278 0.0000
1.7778 0.6111 0.0000
1.8333 0.5833 0.0000
1.8333 0.6389 0.0000
1.7778 0.7222 0.0000
1.8333 0.6944 0.0000
1.8333 0.7500 0.0000
1.7778 0.8333 0.0000
1.8333 0.8056 0.0000
1.8333 0.8611 0.0000
1.7778 0.9444 0.0000
1.8333 0.9167 0.0000
1.8333 0.9722 0.0000
0.1111 0.1111 0.0000
0.1667 0.0833 0.0000
0.1111 0.2222 0.0000
0.1667 0.1944 0.0000
0.1111 0.3333 0.0000
0.1667 0.3056 0.0000
0.1111 0.4444 0.0000
0.1667 0.4167 0.0000
0.1111 0.5556 0.0000
0.1667 0.5278 0.0000
0.1111 0.6667 0.0000
0.1667 0.6389 0.0000
0.1111 0.7778 0.0000
0.1667 0.7500 0.0000
0.1111 0.8889 0.0000
0.1667 0.8611 0.0000
0.1111 1.0000 0.0000
0.1667 0.9722 0.0000
0.3333 0.1111 0.0000
0.3889 0.0833 0.0000
0.3333 0.2222 0.0000
0.3889 0.1944 0.0000
0.3333 0.3333 0.0000
0.3889 0.3056 0.0000
0.3333 0.4444 0.0000
0.3889 0.4167 0.0000
0.3333 0.5556 0.0000
0.3889 0.5278 0.0000
0.3333 0.6667 0.0000
0.3889 0.6389 0.0000
0.3333 0.7778 0.0000
0.3889 0.7500 0.0000
0.3333 0.8889 0.0000
0.3889 0.8611 0.0000
0.3333 1.0000 0.0000
0.3889 0.9722 0.0000
0.5556 0.1111 0.0000
[...]
         <PointData>
            <DataArray Name="fValues" NumberOfComponents="3" format="ascii" type="Float64">
-1.19508e-17 -1.19508e-18        00000 
 6.44798e-19 -5.48078e-19        00000 
 1.01245e-18  1.43412e-18        00000 
 3.85292e-19 -1.02745e-18        00000 
-6.90245e-19 -6.80928e-19        00000 
-1.92646e-19 -7.70584e-19        00000 
 1.17851e-19  7.65527e-19        00000 
 1.34730e-18  1.28315e-18        00000 
 1.54789e-18 -1.03192e-18        00000 
-1.19508e-18  1.19508e-18        00000 
-7.29192e-02 -5.54563e-02        00000 
-4.96150e-02 -4.26445e-02        00000 
-3.23461e-02 -3.36281e-02        00000 
-1.84422e-02 -2.84075e-02        00000 
-6.00866e-03 -2.60391e-02        00000 
 6.00307e-03 -2.60384e-02        00000 
 1.84365e-02 -2.84056e-02        00000 
 3.23401e-02 -3.36246e-02        00000 
 4.96079e-02 -4.26394e-02        00000 
 7.29099e-02 -5.54493e-02        00000 
-1.32719e-01 -1.17840e-01        00000 
-9.76741e-02 -1.06709e-01        00000 
-6.65955e-02 -9.80399e-02        00000 
-3.86745e-02 -9.22329e-02        00000 
-1.26842e-02 -8.93521e-02        00000 
 1.26707e-02 -8.93505e-02        00000 
 3.86608e-02 -9.22286e-02        00000 
 6.65817e-02 -9.80332e-02        00000 
 9.76593e-02 -1.06700e-01        00000 
 1.32703e-01 -1.17829e-01        00000 
-1.85506e-01 -2.03948e-01        00000 
-1.39027e-01 -1.94371e-01        00000 
-9.64257e-02 -1.86976e-01        00000 
-5.66808e-02 -1.81983e-01        00000 
-1.87025e-02 -1.79468e-01        00000 
 1.86783e-02 -1.79466e-01        00000 
 5.66571e-02 -1.81978e-01        00000 
 9.64030e-02 -1.86968e-01        00000 
 1.39004e-01 -1.94360e-01        00000 
 1.85482e-01 -2.03935e-01        00000 
-2.30448e-01 -3.11725e-01        00000 
-1.74027e-01 -3.03732e-01        00000 
-1.21510e-01 -2.97595e-01        00000 
-7.17857e-02 -2.93476e-01        00000 
-2.37518e-02 -2.91409e-01        00000 
 2.37168e-02 -2.91408e-01        00000 
 7.17519e-02 -2.93471e-01        00000 
 1.21477e-01 -2.97587e-01        00000 
 1.73995e-01 -3.03722e-01        00000 
 2.30418e-01 -3.11712e-01        00000 
-2.67274e-01 -4.37695e-01        00000 
-2.02675e-01 -4.31297e-01        00000 
-1.41983e-01 -4.26398e-01        00000 
-8.40777e-02 -4.23127e-01        00000 
-2.78533e-02 -4.21494e-01        00000 
 2.78093e-02 -4.21493e-01        00000 
 8.40348e-02 -4.23124e-01        00000 
 1.41941e-01 -4.26393e-01        00000 
 2.02634e-01 -4.31290e-01        00000 
 2.67235e-01 -4.37686e-01        00000 
-2.95953e-01 -5.78191e-01        00000 
-2.24970e-01 -5.73383e-01        00000 
-1.57858e-01 -5.69741e-01        00000 
-9.35657e-02 -5.67350e-01        00000 
-3.10100e-02 -5.66174e-01        00000 
 3.09581e-02 -5.66174e-01        00000 
 9.35152e-02 -5.67349e-01        00000 
 1.57809e-01 -5.69738e-01        00000 
 2.24921e-01 -5.73379e-01        00000 
 2.95906e-01 -5.78185e-01        00000 
-3.16686e-01 -7.29577e-01        00000 
-2.40932e-01 -7.26321e-01        00000 
-1.68976e-01 -7.24015e-01        00000 
-1.00070e-01 -7.22613e-01        00000 
-3.31469e-02 -7.21955e-01        00000 
 3.30917e-02 -7.21956e-01        00000 
 1.00015e-01 -7.22613e-01        00000 
 1.68921e-01 -7.24015e-01        00000 
 2.40877e-01 -7.26320e-01        00000 
 3.16632e-01 -7.29576e-01        00000 
-3.30461e-01 -8.88910e-01        00000 
-2.50468e-01 -8.87148e-01        00000 
-1.74943e-01 -8.86088e-01        00000 
-1.03367e-01 -8.85337e-01        00000 
-3.42069e-02 -8.84920e-01        00000 
 3.41495e-02 -8.84920e-01        00000 
 1.03309e-01 -8.85336e-01        00000 
 1.74885e-01 -8.86087e-01        00000 
 2.50407e-01 -8.87145e-01        00000 
 3.30400e-01 -8.88906e-01        00000 
-3.38948e-01 -1.06211e+00        00000 
-2.54440e-01 -1.05799e+00        00000 
-1.77703e-01 -1.05308e+00        00000 
-1.05120e-01 -1.04931e+00        00000 
-3.48142e-02 -1.04730e+00        00000 
 3.47547e-02 -1.04730e+00        00000 
 1.05060e-01 -1.04931e+00        00000 
 1.77642e-01 -1.05308e+00        00000 
 2.54377e-01 -1.05798e+00        00000 
 3.38885e-01 -1.06210e+00        00000 
-2.95085e-02 -2.36051e-02        00000 
-1.88343e-02 -1.44039e-02        00000 
-1.17173e-02 -9.94182e-03        00000 
-5.66882e-03 -7.81340e-03        00000 
-1.34121e-06 -7.17620e-03        00000 
 5.66621e-03 -7.81294e-03        00000 
 1.17146e-02 -9.94077e-03        00000 
 1.88315e-02 -1.44023e-02        00000 
 2.95046e-02 -2.36024e-02        00000 
-8.85421e-02 -7.74981e-02        00000 
-6.16944e-02 -6.68093e-02        00000 
-3.89668e-02 -5.92707e-02        00000 
-1.88850e-02 -5.49452e-02        00000 
-4.68126e-06 -5.35455e-02        00000 
 1.88756e-02 -5.49430e-02        00000 
 3.89572e-02 -5.92663e-02        00000 
 6.16842e-02 -6.68030e-02        00000 
 8.85302e-02 -7.74897e-02        00000 
-1.39062e-01 -1.52558e-01        00000 
-1.00202e-01 -1.43300e-01        00000 
-6.47729e-02 -1.36545e-01        00000 
-3.17696e-02 -1.32456e-01        00000 
-9.37368e-06 -1.31089e-01        00000 
 3.17508e-02 -1.32453e-01        00000 
 6.47544e-02 -1.36539e-01        00000 
 1.00183e-01 -1.43291e-01        00000 
 1.39043e-01 -1.52547e-01        00000 
-1.82592e-01 -2.50720e-01        00000 
-1.33017e-01 -2.42897e-01        00000 
-8.67862e-02 -2.37231e-01        00000 
-4.28253e-02 -2.33807e-01        00000 
-1.48463e-05 -2.32661e-01        00000 
 4.27959e-02 -2.33804e-01        00000 
 8.67578e-02 -2.37224e-01        00000 
 1.32989e-01 -2.42887e-01        00000 
 1.82565e-01 -2.50707e-01        00000 
-2.18948e-01 -3.68881e-01        00000 
-1.60315e-01 -3.62484e-01        00000 
-1.05020e-01 -3.57873e-01        00000 
-5.19591e-02 -3.55100e-01        00000 
-2.00271e-05 -3.54174e-01        00000 
 5.19197e-02 -3.55097e-01        00000 
 1.04982e-01 -3.57868e-01        00000 
 1.60278e-01 -3.62477e-01        00000 
 2.18913e-01 -3.68871e-01        00000 
-2.48059e-01 -5.03412e-01        00000 
-1.82141e-01 -4.98441e-01        00000 
-1.19558e-01 -4.94881e-01        00000 
-5.92229e-02 -4.92758e-01        00000 
-2.41078e-05 -4.92053e-01        00000 
 5.91752e-02 -4.92756e-01        00000 
 1.19511e-01 -4.94878e-01        00000 
 1.82096e-01 -4.98436e-01        00000 
 2.48016e-01 -5.03405e-01        00000 
-2.69970e-01 -6.50617e-01        00000 
-1.98466e-01 -6.47085e-01        00000 
-1.30324e-01 -6.44644e-01        00000 
-6.45569e-02 -6.43240e-01        00000 
-2.72656e-05 -6.42783e-01        00000 
 6.45030e-02 -6.43240e-01        00000 
 1.30271e-01 -6.44643e-01        00000 
 1.98414e-01 -6.47083e-01        00000 
 2.69918e-01 -6.50614e-01        00000 
-2.84941e-01 -8.06975e-01        00000 
-2.09098e-01 -8.04925e-01        00000 
-1.37000e-01 -8.03690e-01        00000 
-6.77652e-02 -8.03017e-01        00000 
-2.80967e-05 -8.02800e-01        00000 
 6.77090e-02 -8.03017e-01        00000 
 1.36944e-01 -8.03690e-01        00000 
 2.09041e-01 -8.04925e-01        00000 
 2.84883e-01 -8.06974e-01        00000 
-2.93239e-01 -9.71440e-01        00000 
-2.13808e-01 -9.70149e-01        00000 
-1.39794e-01 -9.68586e-01        00000 
-6.91129e-02 -9.67380e-01        00000 
-2.94107e-05 -9.66935e-01        00000 
 6.90538e-02 -9.67380e-01        00000 
 1.39734e-01 -9.68584e-01        00000 
 2.13746e-01 -9.70146e-01        00000 
 2.93176e-01 -9.71437e-01        00000 
 2.43069e-18  9.96506e-20        00000 
-1.61277e-02 -1.23260e-02        00000 
-1.22427e-02 -8.68072e-03        00000 
 3.19150e-19  2.20043e-18        00000 
-9.87527e-03 -6.39800e-03        00000 
-8.00415e-03 -4.85064e-03        00000 
-2.43945e-19 -2.43945e-19        00000 
-6.36328e-03 -3.76942e-03        00000 
-4.85142e-03 -3.01330e-03        00000 
-1.28905e-19 -2.52430e-19        00000 
-3.41839e-03 -2.50036e-03        00000 
-2.03369e-03 -2.18155e-03        00000 
 3.96411e-19  3.65918e-19        00000 
-6.75456e-04 -2.02856e-03        00000 
 6.74306e-04 -2.02850e-03        00000 
-2.63587e-19 -1.34732e-18        00000 
 2.03247e-03 -2.18136e-03        00000 
 3.41714e-03 -2.50011e-03        00000 
 4.87891e-19  6.09864e-19        00000 
 4.85010e-03 -3.01289e-03        00000 
 6.36197e-03 -3.76899e-03        00000 
 4.87891e-19 -9.75782e-19        00000 
 8.00288e-03 -4.85010e-03        00000 
 9.87394e-03 -6.39728e-03        00000 
-5.37729e-18  4.26431e-18        00000 
 1.22411e-02 -8.67982e-03        00000 
 1.61256e-02 -1.23247e-02        00000 
-6.05795e-02 -4.87814e-02        00000 
-8.15022e-02 -6.59656e-02        00000 
-6.84196e-02 -5.95496e-02        00000 
-4.03779e-02 -3.75951e-02        00000 
-5.65862e-02 -5.39370e-02        00000 
-4.60515e-02 -4.92783e-02        00000 
-2.51232e-02 -3.06110e-02        00000 
-3.65315e-02 -4.55642e-02        00000 
-2.77507e-02 -4.27224e-02        00000 
-1.21172e-02 -2.69089e-02        00000 
-1.94876e-02 -4.06718e-02        00000 
-1.15654e-02 -3.93441e-02        00000 
-2.84761e-06 -2.57538e-02        00000 
-3.83664e-03 -3.86920e-02        00000 
 3.82920e-03 -3.86916e-02        00000 
 1.21116e-02 -2.69076e-02        00000 
 1.15579e-02 -3.93428e-02        00000 
 1.94801e-02 -4.06696e-02        00000 
 2.51173e-02 -3.06083e-02        00000 
 2.77430e-02 -4.27192e-02        00000 
 3.65236e-02 -4.55600e-02        00000 
 4.03714e-02 -3.75909e-02        00000 
 4.60433e-02 -4.92732e-02        00000 
 5.65776e-02 -5.39311e-02        00000 
 6.05714e-02 -4.87753e-02        00000 
 6.84102e-02 -5.95429e-02        00000 
 8.14917e-02 -6.59577e-02        00000 
-1.14666e-01 -1.12012e-01        00000 
-1.36703e-01 -1.34659e-01        00000 
-1.17719e-01 -1.29033e-01        00000 
-8.16771e-02 -1.02032e-01        00000 
-9.97490e-02 -1.24135e-01        00000 
-8.27099e-02 -1.19925e-01        00000 
-5.23119e-02 -9.47692e-02        00000 
-6.64974e-02 -1.16402e-01        00000 
-5.09841e-02 -1.13579e-01        00000 
-2.55199e-02 -9.04297e-02        00000 
-3.60232e-02 -1.11462e-01        00000 
-2.14587e-02 -1.10051e-01        00000 
-6.73838e-06 -8.89933e-02        00000 
-7.13192e-03 -1.09346e-01        00000 
 7.11582e-03 -1.09346e-01        00000 
 2.55063e-02 -9.04267e-02        00000 
 2.14426e-02 -1.10049e-01        00000 
 3.60071e-02 -1.11458e-01        00000 
 5.22981e-02 -9.47636e-02        00000 
 5.09681e-02 -1.13574e-01        00000 
 6.64814e-02 -1.16396e-01        00000 
 8.16629e-02 -1.02024e-01        00000 
 8.26938e-02 -1.19917e-01        00000 
 9.97326e-02 -1.24126e-01        00000 
 1.14651e-01 -1.12002e-01        00000 
 1.17702e-01 -1.29023e-01        00000 
 1.36685e-01 -1.34648e-01        00000 
-1.61714e-01 -1.98919e-01        00000 
-1.84778e-01 -2.26843e-01        00000 
-1.60244e-01 -2.22030e-01        00000 
-1.17305e-01 -1.90381e-01        00000 
-1.36740e-01 -2.17864e-01        00000 
-1.14137e-01 -2.14299e-01        00000 
-7.62620e-02 -1.84174e-01        00000 
-9.23086e-02 -2.11322e-01        00000 
-7.11217e-02 -2.08933e-01        00000 
-3.75426e-02 -1.80413e-01        00000 
-5.04401e-02 -2.07135e-01        00000 
-3.01228e-02 -2.05934e-01        00000 
-1.21355e-05 -1.79152e-01        00000 
-1.00256e-02 -2.05331e-01        00000 
 9.99842e-03 -2.05330e-01        00000 
 3.75185e-02 -1.80409e-01        00000 
 3.00959e-02 -2.05931e-01        00000 
 5.04134e-02 -2.07131e-01        00000 
 7.62387e-02 -1.84167e-01        00000 
 7.10955e-02 -2.08926e-01        00000 
 9.22829e-02 -2.11314e-01        00000 
 1.17283e-01 -1.90371e-01        00000 
 1.14112e-01 -2.14289e-01        00000 
 1.36715e-01 -2.17853e-01        00000 
 1.61691e-01 -1.98907e-01        00000 
 1.60220e-01 -2.22018e-01        00000 
 1.84753e-01 -2.26831e-01        00000 
-2.01674e-01 -3.07524e-01        00000 
-2.25319e-01 -3.39877e-01        00000 
-1.96030e-01 -3.35896e-01        00000 
-1.47351e-01 -3.00415e-01        00000 
-1.67781e-01 -3.32457e-01        00000 
-1.40435e-01 -3.29521e-01        00000 
-9.63671e-02 -2.95280e-01        00000 
-1.13855e-01 -3.27078e-01        00000 
-8.79029e-02 -3.25122e-01        00000 
-4.76274e-02 -2.92185e-01        00000 
-6.24418e-02 -3.23655e-01        00000 
-3.73319e-02 -3.22675e-01        00000 
-1.75962e-05 -2.91150e-01        00000 
-1.24332e-02 -3.22185e-01        00000 
 1.23954e-02 -3.22184e-01        00000 
 4.75928e-02 -2.92182e-01        00000 
 3.72945e-02 -3.22673e-01        00000 
 6.24049e-02 -3.23651e-01        00000 
 9.63338e-02 -2.95274e-01        00000 
 8.78669e-02 -3.25117e-01        00000 
 1.13819e-01 -3.27071e-01        00000 
 1.47319e-01 -3.00406e-01        00000 
 1.40400e-01 -3.29513e-01        00000 
 1.67747e-01 -3.32447e-01        00000 
 2.01643e-01 -3.07513e-01        00000 
 1.95996e-01 -3.35886e-01        00000 
 2.25286e-01 -3.39866e-01        00000 
-2.34410e-01 -4.34331e-01        00000 
-2.58173e-01 -4.70196e-01        00000 
-2.25021e-01 -4.67051e-01        00000 
-1.71912e-01 -4.28647e-01        00000 
-1.92908e-01 -4.64337e-01        00000 
-1.61696e-01 -4.62026e-01        00000 
-1.12751e-01 -4.24558e-01        00000 
-1.31249e-01 -4.60108e-01        00000 
-1.01432e-01 -4.58578e-01        00000 
-5.58250e-02 -4.22106e-01        00000 
-7.21053e-02 -4.57433e-01        00000 
-4.31312e-02 -4.56671e-01        00000 
-2.21247e-05 -4.21289e-01        00000 
-1.43690e-02 -4.56290e-01        00000 
 1.43227e-02 -4.56290e-01        00000 
 5.57814e-02 -4.22104e-01        00000 
 4.30852e-02 -4.56669e-01        00000 
 7.20598e-02 -4.57431e-01        00000 
 1.12709e-01 -4.24554e-01        00000 
 1.01387e-01 -4.58575e-01        00000 
 1.31205e-01 -4.60104e-01        00000 
 1.71871e-01 -4.28640e-01        00000 
 1.61652e-01 -4.62021e-01        00000 
 1.92865e-01 -4.64332e-01        00000 
 2.34370e-01 -4.34323e-01        00000 
 2.24979e-01 -4.67045e-01        00000 
 2.58132e-01 -4.70189e-01        00000 
-2.59906e-01 -5.75660e-01        00000 
-2.83356e-01 -6.14117e-01        00000 
-2.47228e-01 -6.11802e-01        00000 
-1.90997e-01 -5.71405e-01        00000 
-2.12117e-01 -6.09818e-01        00000 
-1.77904e-01 -6.08147e-01        00000 
-1.25426e-01 -5.68391e-01        00000 
-1.44466e-01 -6.06777e-01        00000 
-1.11677e-01 -6.05700e-01        00000 
-6.21413e-02 -5.66614e-01        00000 
-7.94021e-02 -6.04904e-01        00000 
-4.75009e-02 -6.04379e-01        00000 
-2.61143e-05 -5.66028e-01        00000 
-1.58262e-02 -6.04118e-01        00000 
 1.57726e-02 -6.04118e-01        00000 
 6.20899e-02 -5.66613e-01        00000 
 4.74476e-02 -6.04378e-01        00000 
 7.93495e-02 -6.04903e-01        00000 
 1.25376e-01 -5.68389e-01        00000 
 1.11625e-01 -6.05699e-01        00000 
 1.44415e-01 -6.06776e-01        00000 
 1.90948e-01 -5.71402e-01        00000 
 1.77853e-01 -6.08144e-01        00000 
 2.12067e-01 -6.09815e-01        00000 
 2.59858e-01 -5.75655e-01        00000 
 2.47178e-01 -6.11798e-01        00000 
 2.83307e-01 -6.14113e-01        00000 
-2.78291e-01 -7.27844e-01        00000 
-3.01130e-01 -7.68048e-01        00000 
-2.62755e-01 -7.66528e-01        00000 
-2.04520e-01 -7.25045e-01        00000 
-2.25350e-01 -7.65289e-01        00000 
-1.88874e-01 -7.64308e-01        00000 
-1.34200e-01 -7.23212e-01        00000 
-1.53256e-01 -7.63546e-01        00000 
-1.18388e-01 -7.62972e-01        00000 
-6.64382e-02 -7.22198e-01        00000 
-8.41249e-02 -7.62559e-01        00000 
-5.03061e-02 -7.62293e-01        00000 
-2.76799e-05 -7.21875e-01        00000 
-1.67570e-02 -7.62161e-01        00000 
 1.67012e-02 -7.62161e-01        00000 
 6.63831e-02 -7.22199e-01        00000 
 5.02502e-02 -7.62293e-01        00000 
 8.40691e-02 -7.62560e-01        00000 
 1.34145e-01 -7.23212e-01        00000 
 1.18332e-01 -7.62972e-01        00000 
 1.53200e-01 -7.63546e-01        00000 
 2.04465e-01 -7.25045e-01        00000 
 1.88817e-01 -7.64308e-01        00000 
 2.25293e-01 -7.65289e-01        00000 
 2.78237e-01 -7.27843e-01        00000 
 2.62699e-01 -7.66527e-01        00000 
 3.01073e-01 -7.68047e-01        00000 
-2.89998e-01 -8.87890e-01        00000 
-3.12446e-01 -9.29727e-01        00000 
-2.71649e-01 -9.28968e-01        00000 
-2.12130e-01 -8.86571e-01        00000 
-2.32267e-01 -9.28386e-01        00000 
-1.94245e-01 -9.27842e-01        00000 
-1.38752e-01 -8.85677e-01        00000 
-1.57385e-01 -9.27320e-01        00000 
-1.21463e-01 -9.26843e-01        00000 
-6.85859e-02 -8.85080e-01        00000 
-8.62615e-02 -9.26447e-01        00000 
-5.15672e-02 -9.26164e-01        00000 
-2.88494e-05 -8.84865e-01        00000 
-1.71751e-02 -9.26016e-01        00000 
 1.71167e-02 -9.26016e-01        00000 
 6.85282e-02 -8.85079e-01        00000 
 5.15088e-02 -9.26164e-01        00000 
 8.62029e-02 -9.26446e-01        00000 
 1.38694e-01 -8.85675e-01        00000 
 1.21404e-01 -9.26842e-01        00000 
 1.57325e-01 -9.27318e-01        00000 
 2.12071e-01 -8.86569e-01        00000 
 1.94185e-01 -9.27840e-01        00000 
 2.32206e-01 -9.28383e-01        00000 
 2.89937e-01 -8.87887e-01        00000 
 2.71587e-01 -9.28965e-01        00000 
 3.12384e-01 -9.29724e-01        00000 
-2.33530e-02 -1.81400e-02        00000 
-4.06750e-02 -3.28362e-02        00000 
-1.50688e-02 -1.17881e-02        00000 
-2.64220e-02 -2.33390e-02        00000 
-8.61552e-03 -8.65854e-03        00000 
-1.58117e-02 -1.81666e-02        00000 
-2.81368e-03 -7.33245e-03        00000 
-6.58297e-03 -1.57068e-02        00000 
 2.81101e-03 -7.33225e-03        00000 
 2.17956e-03 -1.52460e-02        00000 
 8.61289e-03 -8.65773e-03        00000 
 1.10909e-02 -1.66575e-02        00000 
 1.50661e-02 -1.17867e-02        00000 
 2.08536e-02 -2.03369e-02        00000 
 2.33497e-02 -1.81380e-02        00000 
 3.28197e-02 -2.73994e-02        00000 
 4.06909e-02 -3.17576e-02        00000 
 5.11962e-02 -3.98688e-02        00000 
-7.45570e-02 -7.18077e-02        00000 
-9.39430e-02 -9.13022e-02        00000 
-4.98966e-02 -6.26231e-02        00000 
-6.50123e-02 -8.15234e-02        00000 
-2.86935e-02 -5.67252e-02        00000 
-3.96703e-02 -7.48275e-02        00000 
-9.37284e-03 -5.38935e-02        00000 
-1.66136e-02 -7.11925e-02        00000 
 9.36343e-03 -5.38925e-02        00000 
 5.50480e-03 -7.04744e-02        00000 
 2.86839e-02 -5.67219e-02        00000 
 2.79324e-02 -7.26340e-02        00000 
 4.98867e-02 -6.26177e-02        00000 
 5.19550e-02 -7.77794e-02        00000 
 7.45461e-02 -7.18003e-02        00000 
 7.89588e-02 -8.60308e-02        00000 
 1.03605e-01 -8.37120e-02        00000 
 1.09949e-01 -9.73125e-02        00000 
-1.19149e-01 -1.47633e-01        00000 
-1.39819e-01 -1.72713e-01        00000 
-8.21158e-02 -1.39596e-01        00000 
-9.90762e-02 -1.64295e-01        00000 
-4.80394e-02 -1.34162e-01        00000 
-6.14801e-02 -1.58431e-01        00000 
-1.58114e-02 -1.31431e-01        00000 
-2.59739e-02 -1.55151e-01        00000 
 1.57926e-02 -1.31429e-01        00000 
 8.61806e-03 -1.54491e-01        00000 
 4.80207e-02 -1.34157e-01        00000 
 4.35161e-02 -1.56460e-01        00000 
 8.20975e-02 -1.39589e-01        00000 
 7.99266e-02 -1.61036e-01        00000 
 1.19130e-01 -1.47623e-01        00000 
 1.18973e-01 -1.68171e-01        00000 
 1.60038e-01 -1.57979e-01        00000 
 1.61642e-01 -1.77924e-01        00000 
-1.57320e-01 -2.46549e-01        00000 
-1.78984e-01 -2.76573e-01        00000 
-1.09550e-01 -2.39787e-01        00000 
-1.27919e-01 -2.69522e-01        00000 
-6.45910e-02 -2.35236e-01        00000 
-7.99231e-02 -2.64644e-01        00000 
-2.13479e-02 -2.32948e-01        00000 
-3.39058e-02 -2.61925e-01        00000 
 2.13182e-02 -2.32946e-01        00000 
 1.12567e-02 -2.61378e-01        00000 
 6.45620e-02 -2.35231e-01        00000 
 5.67051e-02 -2.63009e-01        00000 
 1.09522e-01 -2.39778e-01        00000 
 1.03574e-01 -2.66806e-01        00000 
 1.57293e-01 -2.46538e-01        00000 
 1.52971e-01 -2.72760e-01        00000 
 2.08956e-01 -2.55323e-01        00000 
 2.05976e-01 -2.80959e-01        00000 
-1.89145e-01 -3.65468e-01        00000 