<?xml version="1.0" encoding="utf-8"?>
<VTKFile byte_order="LittleEndian" type="UnstructuredGrid" version="0.1">
   <UnstructuredGrid>
      <Piece NumberOfCells="1296" NumberOfPoints="685">
         <Points>
            <DataArray Name="Points" NumberOfComponents="3" format="ascii" type="Float32">
0.0000 0.0000 0.0000
0.0000 0.1111 0.0000
0.0000 0.2222 0.0000
0.0000 0.3333 0.0000
0.0000 0.4444 0.0000
0.0000 0.5556 0.0000
0.0000 0.6667 0.0000
0.0000 0.7778 0.0000
0.0000 0.8889 0.0000
0.0000 1.0000 0.0000
0.2222 0.0000 0.0000
0.2222 0.1111 0.0000
0.2222 0.2222 0.0000
0.2222 0.3333 0.0000
0.2222 0.4444 0.0000
0.2222 0.5556 0.0000
0.2222 0.6667 0.0000
0.2222 0.7778 0.0000
0.2222 0.8889 0.0000
0.2222 1.0000 0.0000
0.4444 0.0000 0.0000
0.4444 0.1111 0.0000
0.4444 0.2222 0.0000
0.4444 0.3333 0.0000
0.4444 0.4444 0.0000
0.4444 0.5556 0.0000
0.4444 0.6667 0.0000
0.4444 0.7778 0.0000
0.4444 0.8889 0.0000
0.4444 1.0000 0.0000
0.6667 0.0000 0.0000
0.6667 0.1111 0.0000
0.6667 0.2222 0.0000
0.6667 0.3333 0.0000
0.6667 0.4444 0.0000
0.6667 0.5556 0.0000
0.6667 0.6667 0.0000
0.6667 0.7778 0.0000
0.6667 0.8889 0.0000
0.6667 1.0000 0.0000
0.8889 0.0000 0.0000
0.8889 0.1111 0.0000
0.8889 0.2222 0.0000
0.8889 0.3333 0.0000
0.8889 0.4444 0.0000
0.8889 0.5556 0.0000
0.8889 0.6667 0.0000
0.8889 0.7778 0.0000
0.8889 0.8889 0.0000
0.8889 1.0000 0.0000
1.1111 0.0000 0.0000
1.1111 0.1111 0.0000
1.1111 0.2222 0.0000
1.1111 0.3333 0.0000
1.1111 0.4444 0.0000
1.1111 0.5556 0.0000
1.1111 0.6667 0.0000
1.1111 0.7778 0.0000
1.1111 0.8889 0.0000
1.1111 1.0000 0.0000
1.3333 0.0000 0.0000
1.3333 0.1111 0.0000
1.3333 0.2222 0.0000
1.3333 0.3333 0.0000
1.3333 0.4444 0.0000
1.3333 0.5556 0.0000
1.3333 0.6667 0.0000
1.3333 0.7778 0.0000
1.3333 0.8889 0.0000
1.3333 1.0000 0.0000
1.5556 0.0000 0.0000
1.5556 0.1111 0.0000
1.5556 0.2222 0.0000
1.5556 0.3333 0.0000
1.5556 0.4444 0.0000
1.5556 0.5556 0.0000
1.5556 0.6667 0.0000
1.5556 0.7778 0.0000
1.5556 0.8889 0.0000
1.5556 1.0000 0.0000
1.7778 0.0000 0.0000
1.7778 0.1111 0.0000
1.7778 0.2222 0.0000
1.7778 0.3333 0.0000
1.7778 0.4444 0.0000
1.7778 0.5556 0.0000
1.7778 0.6667 0.0000
1.7778 0.7778 0.0000
1.7778 0.8889 0.0000
1.7778 1.0000 0.0000
2.0000 0.0000 0.0000
2.0000 0.1111 0.0000
2.0000 0.2222 0.0000
2.0000 0.3333 0.0000
2.0000 0.4444 0.0000
2.0000 0.5556 0.0000
2.0000 0.6667 0.0000
2.0000 0.7778 0.0000
2.0000 0.8889 0.0000
2.0000 1.0000 0.0000
0.1111 0.0556 0.0000
0.1111 0.1667 0.0000
0.1111 0.2778 0.0000
0.1111 0.3889 0.0000
0.1111 0.5000 0.0000
0.1111 0.6111 0.0000
0.1111 0.7222 0.0000
0.1111 0.8333 0.0000
0.1111 0.9444 0.0000
0.3333 0.0556 0.0000
0.3333 0.1667 0.0000
0.3333 0.2778 0.0000
0.3333 0.3889 0.0000
0.3333 0.5000 0.0000
0.3333 0.6111 0.0000
0.3333 0.7222 0.0000
0.3333 0.8333 0.0000
0.3333 0.9444 0.0000
0.5556 0.0556 0.0000
0.5556 0.1667 0.0000
0.5556 0.2778 0.0000
0.5556 0.3889 0.0000
0.5556 0.5000 0.0000
0.5556 0.6111 0.0000
0.5556 0.7222 0.0000
0.5556 0.8333 0.0000
0.5556 0.9444 0.0000
0.7778 0.0556 0.0000
0.7778 0.1667 0.0000
0.7778 0.2778 0.0000
0.7778 0.3889 0.0000
0.7778 0.5000 0.0000
0.7778 0.6111 0.0000
0.7778 0.7222 0.0000
0.7778 0.8333 0.0000
0.7778 0.9444 0.0000
1.0000 0.0556 0.0000
1.0000 0.1667 0.0000
1.0000 0.2778 0.0000
1.0000 0.3889 0.0000
1.0000 0.5000 0.0000
1.0000 0.6111 0.0000
1.0000 0.7222 0.0000
1.0000 0.8333 0.0000
1.0000 0.9444 0.0000
1.2222 0.0556 0.0000
1.2222 0.1667 0.0000
1.2222 0.2778 0.0000
1.2222 0.3889 0.0000
1.2222 0.5000 0.0000
1.2222 0.6111 0.0000
1.2222 0.7222 0.0000
1.2222 0.8333 0.0000
1.2222 0.9444 0.0000
1.4444 0.0556 0.0000
1.4444 0.1667 0.0000
1.4444 0.2778 0.0000
1.4444 0.3889 0.0000
1.4444 0.5000 0.0000
1.4444 0.6111 0.0000
1.4444 0.7222 0.0000
1.4444 0.8333 0.0000
1.4444 0.9444 0.0000
1.6667 0.0556 0.0000
1.6667 0.1667 0.0000
1.6667 0.2778 0.0000
1.6667 0.3889 0.0000
1.6667 0.5000 0.0000
1.6667 0.6111 0.0000
1.6667 0.7222 0.0000
1.6667 0.8333 0.0000
1.6667 0.9444 0.0000
1.8889 0.0556 0.0000
1.8889 0.1667 0.0000
1.8889 0.2778 0.0000
1.8889 0.3889 0.0000
1.8889 0.5000 0.0000
1.8889 0.6111 0.0000
1.8889 0.7222 0.0000
1.8889 0.8333 0.0000
1.8889 0.9444 0.0000
0.0000 0.0556 0.0000
0.0556 0.0278 0.0000
0.0556 0.0833 0.0000
0.0000 0.1667 0.0000
0.0556 0.1389 0.0000
0.0556 0.1944 0.0000
0.0000 0.2778 0.0000
0.0556 0.2500 0.0000
0.0556 0.3056 0.0000
0.0000 0.3889 0.0000
0.0556 0.3611 0.0000
0.0556 0.4167 0.0000
0.0000 0.5000 0.0000
0.0556 0.4722 0.0000
0.0556 0.5278 0.0000
0.0000 0.6111 0.0000
0.0556 0.5833 0.0000
0.0556 0.6389 0.0000
0.0000 0.7222 0.0000
0.0556 0.6944 0.0000
0.0556 0.7500 0.0000
0.0000 0.8333 0.0000
0.0556 0.8056 0.0000
0.0556 0.8611 0.0000
0.0000 0.9444 0.0000
0.0556 0.9167 0.0000
0.0556 0.9722 0.0000
0.2222 0.0556 0.0000
0.2778 0.0278 0.0000
0.2778 0.0833 0.0000
0.2222 0.1667 0.0000
0.2778 0.1389 0.0000
0.2778 0.1944 0.0000
0.2222 0.2778 0.0000
0.2778 0.2500 0.0000
0.2778 0.3056 0.0000
0.2222 0.3889 0.0000
0.2778 0.3611 0.0000
0.2778 0.4167 0.0000
0.2222 0.5000 0.0000
0.2778 0.4722 0.0000
0.2778 0.5278 0.0000
0.2222 0.6111 0.0000
0.2778 0.5833 0.0000
0.2778 0.6389 0.0000
0.2222 0.7222 0.0000
0.2778 0.6944 0.0000
0.2778 0.7500 0.0000
0.2222 0.8333 0.0000
0.2778 0.8056 0.0000
0.2778 0.8611 0.0000
0.2222 0.9444 0.0000
0.2778 0.9167 0.0000
0.2778 0.9722 0.0000
0.4444 0.0556 0.0000
0.5000 0.0278 0.0000
0.5000 0.0833 0.0000
0.4444 0.1667 0.0000
0.5000 0.1389 0.0000
0.5000 0.1944 0.0000
0.4444 0.2778 0.0000
0.5000 0.2500 0.0000
0.5000 0.3056 0.0000
0.4444 0.3889 0.0000
0.5000 0.3611 0.0000
0.5000 0.4167 0.0000
0.4444 0.5000 0.0000
0.5000 0.4722 0.0000
0.5000 0.5278 0.0000
0.4444 0.6111 0.0000
0.5000 0.5833 0.0000
0.5000 0.6389 0.0000
0.4444 0.7222 0.0000
0.5000 0.6944 0.0000
0.5000 0.7500 0.0000
0.4444 0.8333 0.0000
0.5000 0.8056 0.0000
0.5000 0.8611 0.0000
0.4444 0.9444 0.0000
0.5000 0.9167 0.0000
0.5000 0.9722 0.0000
0.6667 0.0556 0.0000
0.7222 0.0278 0.0000
0.7222 0.0833 0.0000
0.6667 0.1667 0.0000
0.7222 0.1389 0.0000
0.7222 0.1944 0.0000
0.6667 0.2778 0.0000
0.7222 0.2500 0.0000
0.7222 0.3056 0.0000
0.6667 0.3889 0.0000
0.7222 0.3611 0.0000
0.7222 0.4167 0.0000
0.6667 0.5000 0.0000
0.7222 0.4722 0.0000
0.7222 0.5278 0.0000
0.6667 0.6111 0.0000
0.7222 0.5833 0.0000
0.7222 0.6389 0.0000
0.6667 0.7222 0.0000
0.7222 0.6944 0.0000
0.7222 0.7500 0.0000
0.6667 0.8333 0.0000
0.7222 0.8056 0.0000
0.7222 0.8611 0.0000
0.6667 0.9444 0.0000
0.7222 0.9167 0.0000
0.7222 0.9722 0.0000
0.8889 0.0556 0.0000
0.9444 0.0278 0.0000
0.9444 0.0833 0.0000
0.8889 0.1667 0.0000
0.9444 0.1389 0.0000
0.9444 0.1944 0.0000
0.8889 0.2778 0.0000
0.9444 0.2500 0.0000
0.9444 0.3056 0.0000
0.8889 0.3889 0.0000
0.9444 0.3611 0.0000
0.9444 0.4167 0.0000
0.8889 0.5000 0.0000
0.9444 0.4722 0.0000
0.9444 0.5278 0.0000
0.8889 0.6111 0.0000
0.9444 0.5833 0.0000
0.9444 0.6389 0.0000
0.8889 0.7222 0.0000
0.9444 0.6944 0.0000
0.9444 0.7500 0.0000
0.8889 0.8333 0.0000
0.9444 0.8056 0.0000
0.9444 0.8611 0.0000
0.8889 0.9444 0.0000
0.9444 0.9167 0.0000
0.9444 0.9722 0.0000
1.1111 0.0556 0.0000
1.1667 0.0278 0.0000
1.1667 0.0833 0.0000
1.1111 0.1667 0.0000
1.1667 0.1389 0.0000
1.1667 0.1944 0.0000
1.1111 0.2778 0.0000
1.1667 0.2500 0.0000
1.1667 0.3056 0.0000
1.1111 0.3889 0.0000
1.1667 0.3611 0.0000
1.1667 0.4167 0.0000
1.1111 0.5000 0.0000
1.1667 0.4722 0.0000
1.1667 0.5278 0.0000
1.1111 0.6111 0.0000
1.1667 0.5833 0.0000
1.1667 0.6389 0.0000
1.1111 0.7222 0.0000
1.1667 0.6944 0.0000
1.1667 0.7500 0.0000
1.1111 0.8333 0.0000
1.1667 0.8056 0.0000
1.1667 0.8611 0.0000
1.1111 0.9444 0.0000
1.1667 0.9167 0.0000
1.1667 0.9722 0.0000
1.3333 0.0556 0.0000
1.3889 0.0278 0.0000
1.3889 0.0833 0.0000
1.3333 0.1667 0.0000
1.3889 0.1389 0.0000
1.3889 0.1944 0.0000
1.3333 0.2778 0.0000
1.3889 0.2500 0.0000
1.3889 0.3056 0.0000
1.3333 0.3889 0.0000
1.3889 0.3611 0.0000
1.3889 0.4167 0.0000
1.3333 0.5000 0.0000
1.3889 0.4722 0.0000
1.3889 0.5278 0.0000
1.3333 0.6111 0.0000
1.3889 0.5833 0.0000
1.3889 0.6389 0.0000
1.3333 0.7222 0.0000
1.3889 0.6944 0.0000
1.3889 0.7500 0.0000
1.3333 0.8333 0.0000
1.3889 0.8056 0.0000
1.3889 0.8611 0.0000
1.3333 0.9444 0.0000
1.3889 0.9167 0.0000
1.3889 0.9722 0.0000
1.5556 0.0556 0.0000
1.6111 0.0278 0.0000
1.6111 0.0833 0.0000
1.5556 0.1667 0.0000
1.6111 0.1389 0.0000
1.6111 0.1944 0.0000
1.5556 0.2778 0.0000
1.6111 0.2500 0.0000
1.6111 0.3056 0.0000
1.5556 0.3889 0.0000
1.6111 0.3611 0.0000
1.6111 0.4167 0.0000
1.5556 0.5000 0.0000
1.6111 0.4722 0.0000
1.6111 0.5278 0.0000
1.5556 0.6111 0.0000
1.6111 0.5833 0.0000
1.6111 0.6389 0.0000
1.5556 0.7222 0.0000
1.6111 0.6944 0.0000
1.6111 0.7500 0.0000
1.5556 0.8333 0.0000
1.6111 0.8056 0.0000
1.6111 0.8611 0.0000
1.5556 0.9444 0.0000
1.6111 0.9167 0.0000
1.6111 0.9722 0.0000
1.7778 0.0556 0.0000
1.8333 0.0278 0.0000
1.8333 0.0833 0.0000
1.7778 0.1667 0.0000
1.8333 0.1389 0.0000
1.8333 0.1944 0.0000
1.7778 0.2778 0.0000
1.8333 0.2500 0.0000
1.8333 0.3056 0.0000
1.7778 0.3889 0.0000
1.8333 0.3611 0.0000
1.8333 0.4167 0.0000
1.7778 0.5000 0.0000
1.8333 0.4722 0.0000
1.8333 0.5278 0.0000
1.7778 0.6111 0.0000
1.8333 0.5833 0.0000
1.8333 0.6389 0.0000
1.7778 0.7222 0.0000
1.8333 0.6944 0.0000
1.8333 0.7500 0.0000
1.7778 0.8333 0.0000
1.8333 0.8056 0.0000
1.8333 0.8611 0.0000
1.7778 0.9444 0.0000
1.8333 0.9167 0.0000
1.8333 0.9722 0.0000
0.1111 0.1111 0.0000
0.1667 0.0833 0.0000
0.1111 0.2222 0.0000
0.1667 0.1944 0.0000
0.1111 0.3333 0.0000
0.1667 0.3056 0.0000
0.1111 0.4444 0.0000
0.1667 0.4167 0.0000
0.1111 0.5556 0.0000
0.1667 0.5278 0.0000
0.1111 0.6667 0.0000
0.1667 0.6389 0.0000
0.1111 0.7778 0.0000
0.1667 0.7500 0.0000
0.1111 0.8889 0.0000
0.1667 0.8611 0.0000
0.1111 1.0000 0.0000
0.1667 0.9722 0.0000
0.3333 0.1111 0.0000
0.3889 0.0833 0.0000
0.3333 0.2222 0.0000
0.3889 0.1944 0.0000
0.3333 0.3333 0.0000
0.3889 0.3056 0.0000
0.3333 0.4444 0.0000
0.3889 0.4167 0.0000
0.3333 0.5556 0.0000
0.3889 0.5278 0.0000
0.3333 0.6667 0.0000
0.3889 0.6389 0.0000
0.3333 0.7778 0.0000
0.3889 0.7500 0.0000
0.3333 0.8889 0.0000
0.3889 0.8611 0.0000
0.3333 1.0000 0.0000
0.3889 0.9722 0.0000
0.5556 0.1111 0.0000
[...]
         <PointData>
            <DataArray Name="fValues" NumberOfComponents="3" format="ascii" type="Float64">
-4.78034e-18 -5.97542e-18        00000 
       00000  7.73757e-19        00000 
 1.82237e-18  7.81905e-20        00000 
-1.28431e-18        00000        00000 
-5.01378e-19  9.97217e-20        00000 
-3.85292e-19 -5.13723e-19        00000 
 8.63232e-19 -1.45047e-19        00000 
-4.49101e-19  5.77416e-19        00000 
 1.54789e-18 -1.80587e-18        00000 
-3.58525e-18  1.19508e-18        00000 
-7.29028e-02 -5.53988e-02        00000 
-4.96181e-02 -4.25848e-02        00000 
-3.23611e-02 -3.35640e-02        00000 
-1.84620e-02 -2.83366e-02        00000 
-6.03013e-03 -2.59612e-02        00000 
 5.97968e-03 -2.59557e-02        00000 
 1.84098e-02 -2.83193e-02        00000 
 3.23058e-02 -3.35329e-02        00000 
 4.95535e-02 -4.25386e-02        00000 
 7.28163e-02 -5.53362e-02        00000 
-1.32730e-01 -1.17725e-01        00000 
-9.77079e-02 -1.06583e-01        00000 
-6.66403e-02 -9.79047e-02        00000 
-3.87262e-02 -9.20883e-02        00000 
-1.27391e-02 -8.91965e-02        00000 
 1.26132e-02 -8.91821e-02        00000 
 3.85985e-02 -9.20491e-02        00000 
 6.65111e-02 -9.78426e-02        00000 
 9.75697e-02 -1.06501e-01        00000 
 1.32584e-01 -1.17626e-01        00000 
-1.85572e-01 -2.03784e-01        00000 
-1.39108e-01 -1.94196e-01        00000 
-9.65126e-02 -1.86791e-01        00000 
-5.67747e-02 -1.81788e-01        00000 
-1.88025e-02 -1.79261e-01        00000 
 1.85771e-02 -1.79243e-01        00000 
 5.65548e-02 -1.81739e-01        00000 
 9.63008e-02 -1.86714e-01        00000 
 1.38896e-01 -1.94098e-01        00000 
 1.85359e-01 -2.03667e-01        00000 
-2.30583e-01 -3.11539e-01        00000 
-1.74167e-01 -3.03532e-01        00000 
-1.21650e-01 -2.97383e-01        00000 
-7.19273e-02 -2.93251e-01        00000 
-2.38972e-02 -2.91170e-01        00000 
 2.35730e-02 -2.91154e-01        00000 
 7.16134e-02 -2.93204e-01        00000 
 1.21348e-01 -2.97309e-01        00000 
 1.73873e-01 -3.03437e-01        00000 
 2.30301e-01 -3.11426e-01        00000 
-2.67484e-01 -4.37523e-01        00000 
-2.02877e-01 -4.31109e-01        00000 
-1.42176e-01 -4.26196e-01        00000 
-8.42652e-02 -4.22913e-01        00000 
-2.80375e-02 -4.21269e-01        00000 
 2.76328e-02 -4.21259e-01        00000 
 8.38701e-02 -4.22883e-01        00000 
 1.41793e-01 -4.26147e-01        00000 
 2.02505e-01 -4.31043e-01        00000 
 2.67129e-01 -4.37440e-01        00000 
-2.96228e-01 -5.78040e-01        00000 
-2.25229e-01 -5.73218e-01        00000 
-1.58101e-01 -5.69565e-01        00000 
-9.37943e-02 -5.67166e-01        00000 
-3.12289e-02 -5.65984e-01        00000 
 3.07539e-02 -5.65980e-01        00000 
 9.33308e-02 -5.67152e-01        00000 
 1.57648e-01 -5.69539e-01        00000 
 2.24785e-01 -5.73176e-01        00000 
 2.95799e-01 -5.77981e-01        00000 
-3.17025e-01 -7.29473e-01        00000 
-2.41240e-01 -7.26206e-01        00000 
-1.69255e-01 -7.23893e-01        00000 
-1.00326e-01 -7.22488e-01        00000 
-3.33832e-02 -7.21830e-01        00000 
 3.28754e-02 -7.21832e-01        00000 
 9.98209e-02 -7.22491e-01        00000 
 1.68751e-01 -7.23893e-01        00000 
 2.40735e-01 -7.26199e-01        00000 
 3.16530e-01 -7.29454e-01        00000 
-3.30839e-01 -8.88883e-01        00000 
-2.50807e-01 -8.87113e-01        00000 
-1.75246e-01 -8.86047e-01        00000 
-1.03641e-01 -8.85290e-01        00000 
-3.44560e-02 -8.84869e-01        00000 
 3.39253e-02 -8.84867e-01        00000 
 1.03110e-01 -8.85282e-01        00000 
 1.74711e-01 -8.86033e-01        00000 
 2.50259e-01 -8.87091e-01        00000 
 3.30283e-01 -8.88850e-01        00000 
-3.39343e-01 -1.06215e+00        00000 
-2.54797e-01 -1.05803e+00        00000 
-1.78022e-01 -1.05311e+00        00000 
-1.05409e-01 -1.04933e+00        00000 
-3.50746e-02 -1.04732e+00        00000 
 3.45233e-02 -1.04732e+00        00000 
 1.04854e-01 -1.04933e+00        00000 
 1.77462e-01 -1.05309e+00        00000 
 2.54226e-01 -1.05801e+00        00000 
 3.38778e-01 -1.06213e+00        00000 
-2.95026e-02 -2.35775e-02        00000 
-1.88378e-02 -1.43751e-02        00000 
-1.17247e-02 -9.90947e-03        00000 
-5.67766e-03 -7.77792e-03        00000 
-1.18646e-05 -7.13878e-03        00000 
 5.65411e-03 -7.77406e-03        00000 
 1.17004e-02 -9.90065e-03        00000 
 1.88115e-02 -1.43620e-02        00000 
 2.94666e-02 -2.35544e-02        00000 
-8.85472e-02 -7.74107e-02        00000 
-6.17162e-02 -6.67131e-02        00000 
-3.89985e-02 -5.91659e-02        00000 
-1.89208e-02 -5.48299e-02        00000 
-4.26988e-05 -5.34207e-02        00000 
 1.88342e-02 -5.48099e-02        00000 
 3.89088e-02 -5.91249e-02        00000 
 6.16217e-02 -6.66533e-02        00000 
 8.84383e-02 -7.73311e-02        00000 
-1.39111e-01 -1.52411e-01        00000 
-1.00263e-01 -1.43143e-01        00000 
-6.48415e-02 -1.36379e-01        00000 
-3.18444e-02 -1.32279e-01        00000 
-8.72355e-05 -1.30899e-01        00000 
 3.16696e-02 -1.32248e-01        00000 
 6.46691e-02 -1.36320e-01        00000 
 1.00092e-01 -1.43062e-01        00000 
 1.38934e-01 -1.52313e-01        00000 
-1.82697e-01 -2.50538e-01        00000 
-1.33128e-01 -2.42702e-01        00000 
-8.69021e-02 -2.37024e-01        00000 
-4.29460e-02 -2.33586e-01        00000 
-1.38234e-04 -2.32425e-01        00000 
 4.26727e-02 -2.33552e-01        00000 
 8.66372e-02 -2.36960e-01        00000 
 1.32874e-01 -2.42612e-01        00000 
 1.82447e-01 -2.50426e-01        00000 
-2.19122e-01 -3.68690e-01        00000 
-1.60484e-01 -3.62280e-01        00000 
-1.05187e-01 -3.57656e-01        00000 
-5.21254e-02 -3.54870e-01        00000 
-1.84567e-04 -3.53932e-01        00000 
 5.17613e-02 -3.54844e-01        00000 
 1.04834e-01 -3.57607e-01        00000 
 1.60144e-01 -3.62207e-01        00000 
 2.18795e-01 -3.68597e-01        00000 
-2.48297e-01 -5.03240e-01        00000 
-1.82366e-01 -4.98257e-01        00000 
-1.19772e-01 -4.94686e-01        00000 
-5.94285e-02 -4.92553e-01        00000 
-2.21018e-04 -4.91840e-01        00000 
 5.89909e-02 -4.92537e-01        00000 
 1.19345e-01 -4.94655e-01        00000 
 1.81951e-01 -4.98211e-01        00000 
 2.47895e-01 -5.03179e-01        00000 
-2.70266e-01 -6.50475e-01        00000 
-1.98740e-01 -6.46934e-01        00000 
-1.30578e-01 -6.44487e-01        00000 
-6.47940e-02 -6.43078e-01        00000 
-2.49747e-04 -6.42620e-01        00000 
 6.43005e-02 -6.43076e-01        00000 
 1.30091e-01 -6.44479e-01        00000 
 1.98259e-01 -6.46917e-01        00000 
 2.69796e-01 -6.50444e-01        00000 
-2.85284e-01 -8.06903e-01        00000 
-2.09407e-01 -8.04847e-01        00000 
-1.37279e-01 -8.03608e-01        00000 
-6.80187e-02 -8.02933e-01        00000 
-2.59346e-04 -8.02715e-01        00000 
 6.75009e-02 -8.02932e-01        00000 
 1.36760e-01 -8.03606e-01        00000 
 2.08883e-01 -8.04841e-01        00000 
 2.84754e-01 -8.06890e-01        00000 
-2.93610e-01 -9.71446e-01        00000 
-2.14140e-01 -9.70149e-01        00000 
-1.40092e-01 -9.68579e-01        00000 
-6.93836e-02 -9.67367e-01        00000 
-2.72835e-04 -9.66918e-01        00000 
 6.88371e-02 -9.67362e-01        00000 
 1.39543e-01 -9.68565e-01        00000 
 2.13581e-01 -9.70126e-01        00000 
 2.93042e-01 -9.71418e-01        00000 
-2.03834e-18 -2.17903e-18        00000 
-1.61215e-02 -1.23134e-02        00000 
-1.22412e-02 -8.66851e-03        00000 
 1.64784e-18  1.69459e-18        00000 
-9.87578e-03 -6.38486e-03        00000 
-8.00598e-03 -4.83625e-03        00000 
-2.43945e-19  2.43945e-19        00000 
-6.36647e-03 -3.75405e-03        00000 
-4.85519e-03 -2.99712e-03        00000 
-4.04328e-19 -5.04511e-19        00000 
-3.42227e-03 -2.48356e-03        00000 
-2.03783e-03 -2.16459e-03        00000 
 1.52466e-19 -2.43945e-19        00000 
-6.79872e-04 -2.01122e-03        00000 
 6.69448e-04 -2.01084e-03        00000 
 4.65992e-19 -4.63716e-19        00000 
 2.02689e-03 -2.16317e-03        00000 
 3.41095e-03 -2.48170e-03        00000 
-2.43945e-19 -4.87891e-19        00000 
 4.84315e-03 -2.99406e-03        00000 
 6.35438e-03 -3.75071e-03        00000 
-9.75782e-19 -2.43945e-19        00000 
 7.99419e-03 -4.83191e-03        00000 
 9.86335e-03 -6.37913e-03        00000 
-1.81019e-18  8.37925e-19        00000 
 1.22260e-02 -8.66102e-03        00000 
 1.61019e-02 -1.23021e-02        00000 
-6.05744e-02 -4.87230e-02        00000 
-8.14957e-02 -6.58946e-02        00000 
-6.84229e-02 -5.94754e-02        00000 
-4.03890e-02 -3.75336e-02        00000 
-5.65981e-02 -5.38598e-02        00000 
-4.60706e-02 -4.91986e-02        00000 
-2.51415e-02 -3.05441e-02        00000 
-3.65546e-02 -4.54814e-02        00000 
-2.77767e-02 -4.26356e-02        00000 
-1.21387e-02 -2.68346e-02        00000 
-1.95153e-02 -4.05807e-02        00000 
-1.15943e-02 -3.92491e-02        00000 
-2.55896e-05 -2.56735e-02        00000 
-3.86582e-03 -3.85927e-02        00000 
 3.79846e-03 -3.85890e-02        00000 
 1.20869e-02 -2.68236e-02        00000 
 1.15259e-02 -3.92370e-02        00000 
 1.94458e-02 -4.05606e-02        00000 
 2.50876e-02 -3.05199e-02        00000 
 2.77059e-02 -4.26060e-02        00000 
 3.64816e-02 -4.54431e-02        00000 
 4.03288e-02 -3.74953e-02        00000 
 4.59948e-02 -4.91518e-02        00000 
 5.65186e-02 -5.38052e-02        00000 
 6.05000e-02 -4.86682e-02        00000 
 6.83368e-02 -5.94126e-02        00000 
 8.13984e-02 -6.58221e-02        00000 
-1.14691e-01 -1.11892e-01        00000 
-1.36734e-01 -1.34528e-01        00000 
-1.17760e-01 -1.28896e-01        00000 
-8.17173e-02 -1.01901e-01        00000 
-9.97965e-02 -1.23993e-01        00000 
-8.27623e-02 -1.19778e-01        00000 
-5.23612e-02 -9.46297e-02        00000 
-6.65535e-02 -1.16251e-01        00000 
-5.10436e-02 -1.13423e-01        00000 
-2.55736e-02 -9.02801e-02        00000 
-3.60860e-02 -1.11301e-01        00000 
-2.15234e-02 -1.09885e-01        00000 
-6.27106e-05 -8.88315e-02        00000 
-7.19805e-03 -1.09173e-01        00000 
 7.04857e-03 -1.09166e-01        00000 
 2.54466e-02 -9.02528e-02        00000 
 2.13734e-02 -1.09862e-01        00000 
 3.59354e-02 -1.11265e-01        00000 
 5.22324e-02 -9.45787e-02        00000 
 5.08941e-02 -1.13374e-01        00000 
 6.64041e-02 -1.16189e-01        00000 
 8.15845e-02 -1.01829e-01        00000 
 8.26117e-02 -1.19705e-01        00000 
 9.96434e-02 -1.23911e-01        00000 
 1.14547e-01 -1.11800e-01        00000 
 1.17602e-01 -1.28806e-01        00000 
 1.36570e-01 -1.34430e-01        00000 
-1.61789e-01 -1.98749e-01        00000 
-1.84864e-01 -2.26669e-01        00000 
-1.60336e-01 -2.21850e-01        00000 
-1.17390e-01 -1.90201e-01        00000 
-1.36836e-01 -2.17678e-01        00000 
-1.14237e-01 -2.14108e-01        00000 
-7.63526e-02 -1.83984e-01        00000 
-9.24101e-02 -2.11125e-01        00000 
-7.12264e-02 -2.08730e-01        00000 
-3.76405e-02 -1.80212e-01        00000 
-5.05482e-02 -2.06927e-01        00000 
-3.02340e-02 -2.05719e-01        00000 
-1.13053e-04 -1.78937e-01        00000 
-1.01384e-02 -2.05109e-01        00000 
 9.88573e-03 -2.05100e-01        00000 
 3.74162e-02 -1.80178e-01        00000 
 2.99827e-02 -2.05693e-01        00000 
 5.02996e-02 -2.06885e-01        00000 
 7.61358e-02 -1.83920e-01        00000 
 7.09828e-02 -2.08672e-01        00000 
 9.21708e-02 -2.11053e-01        00000 
 1.17178e-01 -1.90112e-01        00000 
 1.14002e-01 -2.14022e-01        00000 
 1.36604e-01 -2.17582e-01        00000 
 1.61576e-01 -1.98642e-01        00000 
 1.60106e-01 -2.21745e-01        00000 
 1.84633e-01 -2.26556e-01        00000 
-2.01813e-01 -3.07331e-01        00000 
-2.25475e-01 -3.39687e-01        00000 
-1.96186e-01 -3.35699e-01        00000 
-1.47491e-01 -3.00209e-01        00000 
-1.67937e-01 -3.32253e-01        00000 
-1.40589e-01 -3.29312e-01        00000 
-9.65085e-02 -2.95062e-01        00000 
-1.14009e-01 -3.26862e-01        00000 
-8.80571e-02 -3.24900e-01        00000 
-4.77715e-02 -2.91954e-01        00000 
-6.25969e-02 -3.23427e-01        00000 
-3.74879e-02 -3.22440e-01        00000 
-1.62991e-04 -2.90904e-01        00000 
-1.25895e-02 -3.21943e-01        00000 
 1.22410e-02 -3.21935e-01        00000 
 4.74508e-02 -2.91922e-01        00000 
 3.71420e-02 -3.22418e-01        00000 
 6.22557e-02 -3.23391e-01        00000 
 9.61996e-02 -2.95002e-01        00000 
 8.77230e-02 -3.24851e-01        00000 
 1.13681e-01 -3.26799e-01        00000 
 1.47193e-01 -3.00124e-01        00000 
 1.40268e-01 -3.29237e-01        00000 
 1.67620e-01 -3.32168e-01        00000 
 2.01524e-01 -3.07227e-01        00000 
 1.95876e-01 -3.35605e-01        00000 
 2.25170e-01 -3.39585e-01        00000 
-2.34616e-01 -4.34151e-01        00000 
-2.58398e-01 -4.70023e-01        00000 
-2.25241e-01 -4.66872e-01        00000 
-1.72110e-01 -4.28452e-01        00000 
-1.93122e-01 -4.64151e-01        00000 
-1.61905e-01 -4.61833e-01        00000 
-1.12941e-01 -4.24349e-01        00000 
-1.31454e-01 -4.59909e-01        00000 
-1.01632e-01 -4.58373e-01        00000 
-5.60112e-02 -4.21887e-01        00000 
-7.23031e-02 -4.57223e-01        00000 
-4.33260e-02 -4.56456e-01        00000 
-2.03459e-04 -4.21061e-01        00000 
-1.45606e-02 -4.56071e-01        00000 
 1.41358e-02 -4.56066e-01        00000 
 5.56097e-02 -4.21866e-01        00000 
 4.29038e-02 -4.56443e-01        00000 
 7.18848e-02 -4.57201e-01        00000 
 1.12551e-01 -4.24310e-01        00000 
 1.01221e-01 -4.58343e-01        00000 
 1.31048e-01 -4.59870e-01        00000 
 1.71731e-01 -4.28393e-01        00000 
 1.61504e-01 -4.61786e-01        00000 
 1.92728e-01 -4.64096e-01        00000 
 2.34251e-01 -4.34077e-01        00000 
 2.24854e-01 -4.66809e-01        00000 
 2.58018e-01 -4.69953e-01        00000 
-2.60174e-01 -5.75501e-01        00000 
-2.83644e-01 -6.13969e-01        00000 
-2.47505e-01 -6.11647e-01        00000 
-1.91248e-01 -5.71235e-01        00000 
-2.12385e-01 -6.09658e-01        00000 
-1.78163e-01 -6.07983e-01        00000 
-1.25661e-01 -5.68210e-01        00000 
-1.44716e-01 -6.06609e-01        00000 
-1.11919e-01 -6.05529e-01        00000 
-6.23652e-02 -5.66427e-01        00000 
-7.96371e-02 -6.04730e-01        00000 
-4.77297e-02 -6.04203e-01        00000 
-2.39008e-04 -5.65836e-01        00000 
-1.60483e-02 -6.03940e-01        00000 
 1.55582e-02 -6.03938e-01        00000 
 6.18948e-02 -5.66417e-01        00000 
 4.72427e-02 -6.04199e-01        00000 
 7.91551e-02 -6.04722e-01        00000 
 1.25202e-01 -5.68191e-01        00000 
 1.11442e-01 -6.05517e-01        00000 
 1.44244e-01 -6.06593e-01        00000 
 1.90798e-01 -5.71201e-01        00000 
 1.77694e-01 -6.07960e-01        00000 
 2.11921e-01 -6.09629e-01        00000 
 2.59736e-01 -5.75451e-01        00000 
 2.47047e-01 -6.11610e-01        00000 
 2.83193e-01 -6.13925e-01        00000 
-2.78614e-01 -7.27734e-01        00000 
-3.01472e-01 -7.67959e-01        00000 
-2.63080e-01 -7.66434e-01        00000 
-2.04813e-01 -7.24926e-01        00000 
-2.25659e-01 -7.65192e-01        00000 
-1.89169e-01 -7.64208e-01        00000 
-1.34468e-01 -7.23088e-01        00000 
-1.53537e-01 -7.63444e-01        00000 
-1.18656e-01 -7.62868e-01        00000 
-6.66846e-02 -7.22073e-01        00000 
-8.43804e-02 -7.62455e-01        00000 
-5.05520e-02 -7.62188e-01        00000 
-2.54723e-04 -7.21751e-01        00000 
-1.69914e-02 -7.62056e-01        00000 
 1.64766e-02 -7.62056e-01        00000 
 6.61777e-02 -7.22076e-01        00000 
 5.00373e-02 -7.62188e-01        00000 
 8.38670e-02 -7.62456e-01        00000 
 1.33963e-01 -7.23090e-01        00000 
 1.18142e-01 -7.62869e-01        00000 
 1.53023e-01 -7.63444e-01        00000 
 2.04308e-01 -7.24923e-01        00000 
 1.88653e-01 -7.64205e-01        00000 
 2.25142e-01 -7.65188e-01        00000 
 2.78113e-01 -7.27722e-01        00000 
 2.62564e-01 -7.66426e-01        00000 
 3.00956e-01 -7.67945e-01        00000 
-2.90357e-01 -8.87859e-01        00000 
-3.12821e-01 -9.29715e-01        00000 
-2.72005e-01 -9.28955e-01        00000 
-2.12452e-01 -8.86532e-01        00000 
-2.32603e-01 -9.28367e-01        00000 
-1.94563e-01 -9.27821e-01        00000 
-1.39041e-01 -8.85633e-01        00000 
-1.57686e-01 -9.27294e-01        00000 
-1.21750e-01 -9.26815e-01        00000 
-6.88485e-02 -8.85031e-01        00000 
-8.65349e-02 -9.26415e-01        00000 
-5.18275e-02 -9.26130e-01        00000 
-2.66900e-04 -8.84812e-01        00000 
-1.74224e-02 -9.25980e-01        00000 
 1.68819e-02 -9.25980e-01        00000 
 6.83159e-02 -8.85026e-01        00000 
 5.12875e-02 -9.26126e-01        00000 
 8.59944e-02 -9.26409e-01        00000 
 1.38507e-01 -8.85622e-01        00000 
 1.21208e-01 -9.26804e-01        00000 
 1.57143e-01 -9.27280e-01        00000 
 2.11909e-01 -8.86515e-01        00000 
 1.94015e-01 -9.27801e-01        00000 
 2.32049e-01 -9.28345e-01        00000 
 2.89804e-01 -8.87832e-01        00000 
 2.71444e-01 -9.28926e-01        00000 
 3.12259e-01 -9.29687e-01        00000 
-2.33532e-02 -1.81124e-02        00000 
-4.06730e-02 -3.27928e-02        00000 
-1.50747e-02 -1.17578e-02        00000 
-2.64304e-02 -2.32925e-02        00000 
-8.62383e-03 -8.62484e-03        00000 
-1.58248e-02 -1.81147e-02        00000 
-2.82317e-03 -7.29593e-03        00000 
-6.59793e-03 -1.56495e-02        00000 
 2.79934e-03 -7.29422e-03        00000 
 2.16263e-03 -1.51847e-02        00000 
 8.59991e-03 -8.61799e-03        00000 
 1.10723e-02 -1.65946e-02        00000 
 1.50496e-02 -1.17469e-02        00000 
 2.08307e-02 -2.02728e-02        00000 
 2.33234e-02 -1.80952e-02        00000 
 3.27839e-02 -2.73301e-02        00000 
 4.06285e-02 -3.17010e-02        00000 
 5.11296e-02 -3.97864e-02        00000 
-7.45714e-02 -7.17159e-02        00000 
-9.39618e-02 -9.11953e-02        00000 
-4.99241e-02 -6.25228e-02        00000 
-6.50454e-02 -8.14055e-02        00000 
-2.87280e-02 -5.66153e-02        00000 
-3.97118e-02 -7.46997e-02        00000 
-9.40959e-03 -5.37733e-02        00000 
-1.66583e-02 -7.10536e-02        00000 
 9.32357e-03 -5.37637e-02        00000 
 5.45769e-03 -7.03245e-02        00000 
 2.86393e-02 -5.65847e-02        00000 
 2.78811e-02 -7.24745e-02        00000 
 4.98324e-02 -6.24722e-02        00000 
 5.18958e-02 -7.76116e-02        00000 
 7.44705e-02 -7.16465e-02        00000 
 7.88822e-02 -8.58543e-02        00000 
 1.03491e-01 -8.35502e-02        00000 
 1.09841e-01 -9.71291e-02        00000 
-1.19205e-01 -1.47481e-01        00000 
-1.39884e-01 -1.72551e-01        00000 
-8.21804e-02 -1.39435e-01        00000 
-9.91511e-02 -1.64123e-01        00000 
-4.81117e-02 -1.33991e-01        00000 
-6.15614e-02 -1.58249e-01        00000 
-1.58883e-02 -1.31248e-01        00000 
-2.60618e-02 -1.54957e-01        00000 
 1.57128e-02 -1.31232e-01        00000 
 8.52770e-03 -1.54283e-01        00000 
 4.79375e-02 -1.33945e-01        00000 
 4.34239e-02 -1.56236e-01        00000 
 8.20098e-02 -1.39364e-01        00000 
 7.98321e-02 -1.60799e-01        00000 
 1.19031e-01 -1.47391e-01        00000 
 1.18872e-01 -1.67925e-01        00000 
 1.59912e-01 -1.57745e-01        00000 
 1.61524e-01 -1.77672e-01        00000 
-1.57429e-01 -2.46361e-01        00000 
-1.79107e-01 -2.76382e-01        00000 
-1.09664e-01 -2.39586e-01        00000 
-1.28046e-01 -2.69317e-01        00000 
-6.47098e-02 -2.35022e-01        00000 
-8.00518e-02 -2.64425e-01        00000 
-2.14715e-02 -2.32719e-01        00000 
-3.40387e-02 -2.61691e-01        00000 
 2.11944e-02 -2.32702e-01        00000 
 1.11231e-02 -2.61130e-01        00000 
 6.44394e-02 -2.34972e-01        00000 
 5.65737e-02 -2.62746e-01        00000 
 1.09404e-01 -2.39508e-01        00000 
 1.03449e-01 -2.66533e-01        00000 
 1.57178e-01 -2.46259e-01        00000 
 1.52852e-01 -2.72479e-01        00000 
 2.08832e-01 -2.55040e-01        00000 
 2.05856e-01 -2.80674e-01        00000 
-1.89317e-01 -3.65270e-01        00000 