<?xml version="1.0" encoding="utf-8"?>
<VTKFile byte_order="LittleEndian" type="UnstructuredGrid" version="0.1">
   <UnstructuredGrid>
      <Piece NumberOfCells="1296" NumberOfPoints="685">
         <Points>
            <DataArray Name="Points" NumberOfComponents="3" format="ascii" type="Float32">
0.0000 0.0000 0.0000
0.0000 0.1111 0.0000
0.0000 0.2222 0.0000
0.0000 0.3333 0.0000
0.0000 0.4444 0.0000
0.0000 0.5556 0.0000
0.0000 0.6667 0.0000
0.0000 0.7778 0.0000
0.0000 0.8889 0.0000
0.0000 1.0000 0.0000
0.2222 0.0000 0.0000
0.2222 0.1111 0.0000
0.2222 0.2222 0.0000
0.2222 0.3333 0.0000
0.2222 0.4444 0.0000
0.2222 0.5556 0.0000
0.2222 0.6667 0.0000
0.2222 0.7778 0.0000
0.2222 0.8889 0.0000
0.2222 1.0000 0.0000
0.4444 0.0000 0.0000
0.4444 0.1111 0.0000
0.4444 0.2222 0.0000
0.4444 0.3333 0.0000
0.4444 0.4444 0.0000
0.4444 0.5556 0.0000
0.4444 0.6667 0.0000
0.4444 0.7778 0.0000
0.4444 0.8889 0.0000
0.4444 1.0000 0.0000
0.6667 0.0000 0.0000
0.6667 0.1111 0.0000
0.6667 0.2222 0.0000
0.6667 0.3333 0.0000
0.6667 0.4444 0.0000
0.6667 0.5556 0.0000
0.6667 0.6667 0.0000
0.6667 0.7778 0.0000
0.6667 0.8889 0.0000
0.6667 1.0000 0.0000
0.8889 0.0000 0.0000
0.8889 0.1111 0.0000
0.8889 0.2222 0.0000
0.8889 0.3333 0.0000
0.8889 0.4444 0.0000
0.8889 0.5556 0.0000
0.8889 0.6667 0.0000
0.8889 0.7778 0.0000
0.8889 0.8889 0.0000
0.8889 1.0000 0.0000
1.1111 0.0000 0.0000
1.1111 0.1111 0.0000
1.1111 0.2222 0.0000
1.1111 0.3333 0.0000
1.1111 0.4444 0.0000
1.1111 0.5556 0.0000
1.1111 0.6667 0.0000
1.1111 0.7778 0.0000
1.1111 0.8889 0.0000
1.1111 1.0000 0.0000
1.3333 0.0000 0.0000
1.3333 0.1111 0.0000
1.3333 0.2222 0.0000
1.3333 0.3333 0.0000
1.3333 0.4444 0.0000
1.3333 0.5556 0.0000
1.3333 0.6667 0.0000
1.3333 0.7778 0.0000
1.3333 0.8889 0.0000
1.3333 1.0000 0.0000
1.5556 0.0000 0.0000
1.5556 0.1111 0.0000
1.5556 0.2222 0.0000
1.5556 0.3333 0.0000
1.5556 0.4444 0.0000
1.5556 0.5556 0.0000
1.5556 0.6667 0.0000
1.5556 0.7778 0.0000
1.5556 0.8889 0.0000
1.5556 1.0000 0.0000
1.7778 0.0000 0.0000
1.7778 0.1111 0.0000
1.7778 0.2222 0.0000
1.7778 0.3333 0.0000
1.7778 0.4444 0.0000
1.7778 0.5556 0.0000
1.7778 0.6667 0.0000
1.7778 0.7778 0.0000
1.7778 0.8889 0.0000
1.7778 1.0000 0.0000
2.0000 0.0000 0.0000
2.0000 0.1111 0.0000
2.0000 0.2222 0.0000
2.0000 0.3333 0.0000
2.0000 0.4444 0.0000
2.0000 0.5556 0.0000
2.0000 0.6667 0.0000
2.0000 0.7778 0.0000
2.0000 0.8889 0.0000
2.0000 1.0000 0.0000
0.1111 0.0556 0.0000
0.1111 0.1667 0.0000
0.1111 0.2778 0.0000
0.1111 0.3889 0.0000
0.1111 0.5000 0.0000
0.1111 0.6111 0.0000
0.1111 0.7222 0.0000
0.1111 0.8333 0.0000
0.1111 0.9444 0.0000
0.3333 0.0556 0.0000
0.3333 0.1667 0.0000
0.3333 0.2778 0.0000
0.3333 0.3889 0.0000
0.3333 0.5000 0.0000
0.3333 0.6111 0.0000
0.3333 0.7222 0.0000
0.3333 0.8333 0.0000
0.3333 0.9444 0.0000
0.5556 0.0556 0.0000
0.5556 0.1667 0.0000
0.5556 0.2778 0.0000
0.5556 0.3889 0.0000
0.5556 0.5000 0.0000
0.5556 0.6111 0.0000
0.5556 0.7222 0.0000
0.5556 0.8333 0.0000
0.5556 0.9444 0.0000
0.7778 0.0556 0.0000
0.7778 0.1667 0.0000
0.7778 0.2778 0.0000
0.7778 0.3889 0.0000
0.7778 0.5000 0.0000
0.7778 0.6111 0.0000
0.7778 0.7222 0.0000
0.7778 0.8333 0.0000
0.7778 0.9444 0.0000
1.0000 0.0556 0.0000
1.0000 0.1667 0.0000
1.0000 0.2778 0.0000
1.0000 0.3889 0.0000
1.0000 0.5000 0.0000
1.0000 0.6111 0.0000
1.0000 0.7222 0.0000
1.0000 0.8333 0.0000
1.0000 0.9444 0.0000
1.2222 0.0556 0.0000
1.2222 0.1667 0.0000
1.2222 0.2778 0.0000
1.2222 0.3889 0.0000
1.2222 0.5000 0.0000
1.2222 0.6111 0.0000
1.2222 0.7222 0.0000
1.2222 0.8333 0.0000
1.2222 0.9444 0.0000
1.4444 0.0556 0.0000
1.4444 0.1667 0.0000
1.4444 0.2778 0.0000
1.4444 0.3889 0.0000
1.4444 0.5000 0.0000
1.4444 0.6111 0.0000
1.4444 0.7222 0.0000
1.4444 0.8333 0.0000
1.4444 0.9444 0.0000
1.6667 0.0556 0.0000
1.6667 0.1667 0.0000
1.6667 0.2778 0.0000
1.6667 0.3889 0.0000
1.6667 0.5000 0.0000
1.6667 0.6111 0.0000
1.6667 0.7222 0.0000
1.6667 0.8333 0.0000
1.6667 0.9444 0.0000
1.8889 0.0556 0.0000
1.8889 0.1667 0.0000
1.8889 0.2778 0.0000
1.8889 0.3889 0.0000
1.8889 0.5000 0.0000
1.8889 0.6111 0.0000
1.8889 0.7222 0.0000
1.8889 0.8333 0.0000
1.8889 0.9444 0.0000
0.0000 0.0556 0.0000
0.0556 0.0278 0.0000
0.0556 0.0833 0.0000
0.0000 0.1667 0.0000
0.0556 0.1389 0.0000
0.0556 0.1944 0.0000
0.0000 0.2778 0.0000
0.0556 0.2500 0.0000
0.0556 0.3056 0.0000
0.0000 0.3889 0.0000
0.0556 0.3611 0.0000
0.0556 0.4167 0.0000
0.0000 0.5000 0.0000
0.0556 0.4722 0.0000
0.0556 0.5278 0.0000
0.0000 0.6111 0.0000
0.0556 0.5833 0.0000
0.0556 0.6389 0.0000
0.0000 0.7222 0.0000
0.0556 0.6944 0.0000
0.0556 0.7500 0.0000
0.0000 0.8333 0.0000
0.0556 0.8056 0.0000
0.0556 0.8611 0.0000
0.0000 0.9444 0.0000
0.0556 0.9167 0.0000
0.0556 0.9722 0.0000
0.2222 0.0556 0.0000
0.2778 0.0278 0.0000
0.2778 0.0833 0.0000
0.2222 0.1667 0.0000
0.2778 0.1389 0.0000
0.2778 0.1944 0.0000
0.2222 0.2778 0.0000
0.2778 0.2500 0.0000
0.2778 0.3056 0.0000
0.2222 0.3889 0.0000
0.2778 0.3611 0.0000
0.2778 0.4167 0.0000
0.2222 0.5000 0.0000
0.2778 0.4722 0.0000
0.2778 0.5278 0.0000
0.2222 0.6111 0.0000
0.2778 0.5833 0.0000
0.2778 0.6389 0.0000
0.2222 0.7222 0.0000
0.2778 0.6944 0.0000
0.2778 0.7500 0.0000
0.2222 0.8333 0.0000
0.2778 0.8056 0.0000
0.2778 0.8611 0.0000
0.2222 0.9444 0.0000
0.2778 0.9167 0.0000
0.2778 0.9722 0.0000
0.4444 0.0556 0.0000
0.5000 0.0278 0.0000
0.5000 0.0833 0.0000
0.4444 0.1667 0.0000
0.5000 0.1389 0.0000
0.5000 0.1944 0.0000
0.4444 0.2778 0.0000
0.5000 0.2500 0.0000
0.5000 0.3056 0.0000
0.4444 0.3889 0.0000
0.5000 0.3611 0.0000
0.5000 0.4167 0.0000
0.4444 0.5000 0.0000
0.5000 0.4722 0.0000
0.5000 0.5278 0.0000
0.4444 0.6111 0.0000
0.5000 0.5833 0.0000
0.5000 0.6389 0.0000
0.4444 0.7222 0.0000
0.5000 0.6944 0.0000
0.5000 0.7500 0.0000
0.4444 0.8333 0.0000
0.5000 0.8056 0.0000
0.5000 0.8611 0.0000
0.4444 0.9444 0.0000
0.5000 0.9167 0.0000
0.5000 0.9722 0.0000
0.6667 0.0556 0.0000
0.7222 0.0278 0.0000
0.7222 0.0833 0.0000
0.6667 0.1667 0.0000
0.7222 0.1389 0.0000
0.7222 0.1944 0.0000
0.6667 0.2778 0.0000
0.7222 0.2500 0.0000
0.7222 0.3056 0.0000
0.6667 0.3889 0.0000
0.7222 0.3611 0.0000
0.7222 0.4167 0.0000
0.6667 0.5000 0.0000
0.7222 0.4722 0.0000
0.7222 0.5278 0.0000
0.6667 0.6111 0.0000
0.7222 0.5833 0.0000
0.7222 0.6389 0.0000
0.6667 0.7222 0.0000
0.7222 0.6944 0.0000
0.7222 0.7500 0.0000
0.6667 0.8333 0.0000
0.7222 0.8056 0.0000
0.7222 0.8611 0.0000
0.6667 0.9444 0.0000
0.7222 0.9167 0.0000
0.7222 0.9722 0.0000
0.8889 0.0556 0.0000
0.9444 0.0278 0.0000
0.9444 0.0833 0.0000
0.8889 0.1667 0.0000
0.9444 0.1389 0.0000
0.9444 0.1944 0.0000
0.8889 0.2778 0.0000
0.9444 0.2500 0.0000
0.9444 0.3056 0.0000
0.8889 0.3889 0.0000
0.9444 0.3611 0.0000
0.9444 0.4167 0.0000
0.8889 0.5000 0.0000
0.9444 0.4722 0.0000
0.9444 0.5278 0.0000
0.8889 0.6111 0.0000
0.9444 0.5833 0.0000
0.9444 0.6389 0.0000
0.8889 0.7222 0.0000
0.9444 0.6944 0.0000
0.9444 0.7500 0.0000
0.8889 0.8333 0.0000
0.9444 0.8056 0.0000
0.9444 0.8611 0.0000
0.8889 0.9444 0.0000
0.9444 0.9167 0.0000
0.9444 0.9722 0.0000
1.1111 0.0556 0.0000
1.1667 0.0278 0.0000
1.1667 0.0833 0.0000
1.1111 0.1667 0.0000
1.1667 0.1389 0.0000
1.1667 0.1944 0.0000
1.1111 0.2778 0.0000
1.1667 0.2500 0.0000
1.1667 0.3056 0.0000
1.1111 0.3889 0.0000
1.1667 0.3611 0.0000
1.1667 0.4167 0.0000
1.1111 0.5000 0.0000
1.1667 0.4722 0.0000
1.1667 0.5278 0.0000
1.1111 0.6111 0.0000
1.1667 0.5833 0.0000
1.1667 0.6389 0.0000
1.1111 0.7222 0.0000
1.1667 0.6944 0.0000
1.1667 0.7500 0.0000
1.1111 0.8333 0.0000
1.1667 0.8056 0.0000
1.1667 0.8611 0.0000
1.1111 0.9444 0.0000
1.1667 0.9167 0.0000
1.1667 0.9722 0.0000
1.3333 0.0556 0.0000
1.3889 0.0278 0.0000
1.3889 0.0833 0.0000
1.3333 0.1667 0.0000
1.3889 0.1389 0.0000
1.3889 0.1944 0.0000
1.3333 0.2778 0.0000
1.3889 0.2500 0.0000
1.3889 0.3056 0.0000
1.3333 0.3889 0.0000
1.3889 0.3611 0.0000
1.3889 0.4167 0.0000
1.3333 0.5000 0.0000
1.3889 0.4722 0.0000
1.3889 0.5278 0.0000
1.3333 0.6111 0.0000
1.3889 0.5833 0.0000
1.3889 0.6389 0.0000
1.3333 0.7222 0.0000
1.3889 0.6944 0.0000
1.3889 0.7500 0.0000
1.3333 0.8333 0.0000
1.3889 0.8056 0.0000
1.3889 0.8611 0.0000
1.3333 0.9444 0.0000
1.3889 0.9167 0.0000
1.3889 0.9722 0.0000
1.5556 0.0556 0.0000
1.6111 0.0278 0.0000
1.6111 0.0833 0.0000
1.5556 0.1667 0.0000
1.6111 0.1389 0.0000
1.6111 0.1944 0.0000
1.5556 0.2778 0.0000
1.6111 0.2500 0.0000
1.6111 0.3056 0.0000
1.5556 0.3889 0.0000
1.6111 0.3611 0.0000
1.6111 0.4167 0.0000
1.5556 0.5000 0.0000
1.6111 0.4722 0.0000
1.6111 0.5278 0.0000
1.5556 0.6111 0.0000
1.6111 0.5833 0.0000
1.6111 0.6389 0.0000
1.5556 0.7222 0.0000
1.6111 0.6944 0.0000
1.6111 0.7500 0.0000
1.5556 0.8333 0.0000
1.6111 0.8056 0.0000
1.6111 0.8611 0.0000
1.5556 0.9444 0.0000
1.6111 0.9167 0.0000
1.6111 0.9722 0.0000
1.7778 0.0556 0.0000
1.8333 0.0278 0.0000
1.8333 0.0833 0.0000
1.7778 0.1667 0.0000
1.8333 0.1389 0.0000
1.8333 0.1944 0.0000
1.7778 0.2778 0.0000
1.8333 0.2500 0.0000
1.8333 0.3056 0.0000
1.7778 0.3889 0.0000
1.8333 0.3611 0.0000
1.8333 0.4167 0.0000
1.7778 0.5000 0.0000
1.8333 0.4722 0.0000
1.8333 0.5278 0.0000
1.7778 0.6111 0.0000
1.8333 0.5833 0.0000
1.8333 0.6389 0.0000
1.7778 0.7222 0.0000
1.8333 0.6944 0.0000
1.8333 0.7500 0.0000
1.7778 0.8333 0.0000
1.8333 0.8056 0.0000
1.8333 0.8611 0.0000
1.7778 0.9444 0.0000
1.8333 0.9167 0.0000
1.8333 0.9722 0.0000
0.1111 0.1111 0.0000
0.1667 0.0833 0.0000
0.1111 0.2222 0.0000
0.1667 0.1944 0.0000
0.1111 0.3333 0.0000
0.1667 0.3056 0.0000
0.1111 0.4444 0.0000
0.1667 0.4167 0.0000
0.1111 0.5556 0.0000
0.1667 0.5278 0.0000
0.1111 0.6667 0.0000
0.1667 0.6389 0.0000
0.1111 0.7778 0.0000
0.1667 0.7500 0.0000
0.1111 0.8889 0.0000
0.1667 0.8611 0.0000
0.1111 1.0000 0.0000
0.1667 0.9722 0.0000
0.3333 0.1111 0.0000
0.3889 0.0833 0.0000
0.3333 0.2222 0.0000
0.3889 0.1944 0.0000
0.3333 0.3333 0.0000
0.3889 0.3056 0.0000
0.3333 0.4444 0.0000
0.3889 0.4167 0.0000
0.3333 0.5556 0.0000
0.3889 0.5278 0.0000
0.3333 0.6667 0.0000
0.3889 0.6389 0.0000
0.3333 0.7778 0.0000
0.3889 0.7500 0.0000
0.3333 0.8889 0.0000
0.3889 0.8611 0.0000
0.3333 1.0000 0.0000
0.3889 0.9722 0.0000
0.5556 0.1111 0.0000
[...]
         <PointData>
            <DataArray Name="fValues" NumberOfComponents="3" format="ascii" type="Float64">
-1.22377e-15        00000        00000 
 1.81575e-15  1.32055e-15        00000 
-4.48040e-16  3.14466e-16        00000 
 1.31513e-16 -5.91809e-16        00000 
-5.13282e-16 -2.84168e-16        00000 
 1.97270e-16        00000        00000 
-1.26249e-15 -4.12579e-16        00000 
-6.56971e-16 -3.28485e-17        00000 
 2.64172e-16 -1.84921e-15        00000 
 8.56636e-15 -2.44753e-15        00000 
-4.98640e+01 -3.79225e+01        00000 
-3.39274e+01 -2.91618e+01        00000 
-2.21184e+01 -2.29965e+01        00000 
-1.26116e+01 -1.94265e+01        00000 
-4.11006e+00 -1.78066e+01        00000 
 4.10336e+00 -1.78055e+01        00000 
 1.26056e+01 -1.94238e+01        00000 
 2.21138e+01 -2.29922e+01        00000 
 3.39225e+01 -2.91562e+01        00000 
 4.98571e+01 -3.79156e+01        00000 
-9.07532e+01 -8.05820e+01        00000 
-6.67898e+01 -7.29705e+01        00000 
-4.55390e+01 -6.70423e+01        00000 
-2.64475e+01 -6.30710e+01        00000 
-8.67518e+00 -6.11005e+01        00000 
 8.66301e+00 -6.10992e+01        00000 
 2.64356e+01 -6.30676e+01        00000 
 4.55288e+01 -6.70375e+01        00000 
 6.67813e+01 -7.29637e+01        00000 
 9.07455e+01 -8.05742e+01        00000 
-1.26849e+02 -1.39458e+02        00000 
-9.50691e+01 -1.32909e+02        00000 
-6.59386e+01 -1.27853e+02        00000 
-3.87606e+01 -1.24439e+02        00000 
-1.27897e+01 -1.22720e+02        00000 
 1.27726e+01 -1.22720e+02        00000 
 3.87431e+01 -1.24438e+02        00000 
 6.59220e+01 -1.27851e+02        00000 
 9.50544e+01 -1.32906e+02        00000 
 1.26836e+02 -1.39453e+02        00000 
-1.57587e+02 -2.13153e+02        00000 
-1.19004e+02 -2.07687e+02        00000 
-8.30915e+01 -2.03490e+02        00000 
-4.90881e+01 -2.00675e+02        00000 
-1.62403e+01 -1.99263e+02        00000 
 1.62201e+01 -1.99264e+02        00000 
 4.90678e+01 -2.00676e+02        00000 
 8.30711e+01 -2.03492e+02        00000 
 1.18984e+02 -2.07689e+02        00000 
 1.57567e+02 -2.13154e+02        00000 
-1.82774e+02 -2.99295e+02        00000 
-1.38598e+02 -2.94920e+02        00000 
-9.70924e+01 -2.91569e+02        00000 
-5.74926e+01 -2.89333e+02        00000 
-1.90427e+01 -2.88217e+02        00000 
 1.90225e+01 -2.88217e+02        00000 
 5.74719e+01 -2.89334e+02        00000 
 9.70703e+01 -2.91571e+02        00000 
 1.38574e+02 -2.94922e+02        00000 
 1.82750e+02 -2.99297e+02        00000 
-2.02391e+02 -3.95376e+02        00000 
-1.53847e+02 -3.92087e+02        00000 
-1.07949e+02 -3.89597e+02        00000 
-6.39801e+01 -3.87963e+02        00000 
-2.11994e+01 -3.87160e+02        00000 
 2.11788e+01 -3.87160e+02        00000 
 6.39596e+01 -3.87964e+02        00000 
 1.07928e+02 -3.89599e+02        00000 
 1.53824e+02 -3.92090e+02        00000 
 2.02369e+02 -3.95379e+02        00000 
-2.16575e+02 -4.98911e+02        00000 
-1.64764e+02 -4.96684e+02        00000 
-1.15550e+02 -4.95107e+02        00000 
-6.84250e+01 -4.94149e+02        00000 
-2.26585e+01 -4.93701e+02        00000 
 2.26402e+01 -4.93701e+02        00000 
 6.84079e+01 -4.94152e+02        00000 
 1.15533e+02 -4.95111e+02        00000 
 1.64745e+02 -4.96688e+02        00000 
 2.16555e+02 -4.98917e+02        00000 
-2.26001e+02 -6.07893e+02        00000 
-1.71285e+02 -6.06687e+02        00000 
-1.19630e+02 -6.05962e+02        00000 
-7.06782e+01 -6.05448e+02        00000 
-2.33801e+01 -6.05163e+02        00000 
 2.33674e+01 -6.05164e+02        00000 
 7.06647e+01 -6.05448e+02        00000 
 1.19616e+02 -6.05962e+02        00000 
 1.71269e+02 -6.06686e+02        00000 
 2.25983e+02 -6.07892e+02        00000 
-2.31808e+02 -7.26369e+02        00000 
-1.74002e+02 -7.23548e+02        00000 
-1.21518e+02 -7.20189e+02        00000 
-7.18772e+01 -7.17610e+02        00000 
-2.37933e+01 -7.16234e+02        00000 
 2.37832e+01 -7.16232e+02        00000 
 7.18637e+01 -7.17606e+02        00000 
 1.21504e+02 -7.20186e+02        00000 
 1.73988e+02 -7.23547e+02        00000 
 2.31796e+02 -7.26369e+02        00000 
-2.01788e+01 -1.61424e+01        00000 
-1.28789e+01 -9.85045e+00        00000 
-8.01234e+00 -6.79942e+00        00000 
-3.87689e+00 -5.34358e+00        00000 
-1.70834e-03 -4.90730e+00        00000 
 3.87375e+00 -5.34217e+00        00000 
 8.01002e+00 -6.79681e+00        00000 
 1.28770e+01 -9.84741e+00        00000 
 2.01755e+01 -1.61386e+01        00000 
-6.05459e+01 -5.29958e+01        00000 
-4.21868e+01 -4.56867e+01        00000 
-2.66461e+01 -4.05315e+01        00000 
-1.29150e+01 -3.75732e+01        00000 
-4.94836e-03 -3.66156e+01        00000 
 1.29057e+01 -3.75708e+01        00000 
 2.66381e+01 -4.05271e+01        00000 
 4.21802e+01 -4.56810e+01        00000 
 6.05389e+01 -5.29889e+01        00000 
-9.50910e+01 -1.04320e+02        00000 
-6.85194e+01 -9.79893e+01        00000 
-4.42937e+01 -9.33701e+01        00000 
-2.17260e+01 -9.05738e+01        00000 
-7.70915e-03 -8.96393e+01        00000 
 2.17110e+01 -9.05722e+01        00000 
 4.42794e+01 -9.33670e+01        00000 
 6.85070e+01 -9.79847e+01        00000 
 9.50809e+01 -1.04314e+02        00000 
-1.24860e+02 -1.71438e+02        00000 
-9.09601e+01 -1.66088e+02        00000 
-5.93470e+01 -1.62215e+02        00000 
-2.92844e+01 -1.59875e+02        00000 
-9.40204e-03 -1.59093e+02        00000 
 2.92656e+01 -1.59875e+02        00000 
 5.93276e+01 -1.62216e+02        00000 
 9.09414e+01 -1.66089e+02        00000 
 1.24842e+02 -1.71437e+02        00000 
-1.49725e+02 -2.52237e+02        00000 
-1.09628e+02 -2.47862e+02        00000 
-7.18145e+01 -2.44710e+02        00000 
-3.55284e+01 -2.42815e+02        00000 
-1.01226e-02 -2.42183e+02        00000 
 3.55082e+01 -2.42816e+02        00000 
 7.17932e+01 -2.44712e+02        00000 
 1.09606e+02 -2.47865e+02        00000 
 1.49702e+02 -2.52240e+02        00000 
-1.69636e+02 -3.44236e+02        00000 
-1.24556e+02 -3.40836e+02        00000 
-8.17564e+01 -3.38402e+02        00000 
-4.04944e+01 -3.36951e+02        00000 
-1.02663e-02 -3.36469e+02        00000 
 4.04739e+01 -3.36951e+02        00000 
 8.17349e+01 -3.38403e+02        00000 
 1.24533e+02 -3.40838e+02        00000 
 1.69612e+02 -3.44238e+02        00000 
-1.84623e+02 -4.44908e+02        00000 
-1.35720e+02 -4.42492e+02        00000 
-8.91176e+01 -4.40824e+02        00000 
-4.41401e+01 -4.39865e+02        00000 
-1.04103e-02 -4.39554e+02        00000 
 4.41201e+01 -4.39867e+02        00000 
 8.90975e+01 -4.40827e+02        00000 
 1.35700e+02 -4.42496e+02        00000 
 1.84602e+02 -4.44912e+02        00000 
-1.94864e+02 -5.51848e+02        00000 
-1.42991e+02 -5.50447e+02        00000 
-9.36807e+01 -5.49603e+02        00000 
-4.63317e+01 -5.49143e+02        00000 
-7.89158e-03 -5.48995e+02        00000 
 4.63167e+01 -5.49143e+02        00000 
 9.36661e+01 -5.49604e+02        00000 
 1.42975e+02 -5.50449e+02        00000 
 1.94846e+02 -5.51851e+02        00000 
-2.00540e+02 -6.64345e+02        00000 
-1.46211e+02 -6.63462e+02        00000 
-9.55910e+01 -6.62392e+02        00000 
-4.72509e+01 -6.61567e+02        00000 
-5.11928e-03 -6.61262e+02        00000 
 4.72388e+01 -6.61566e+02        00000 
 9.55766e+01 -6.62391e+02        00000 
 1.46196e+02 -6.63460e+02        00000 
 2.00525e+02 -6.64343e+02        00000 
-8.51952e-16 -2.32736e-15        00000 
-1.10287e+01 -8.42929e+00        00000 
-8.37184e+00 -5.93665e+00        00000 
 1.57347e-15  1.69619e-15        00000 
-6.75290e+00 -4.37566e+00        00000 
-5.47326e+00 -3.31768e+00        00000 
-7.49401e-16        00000        00000 
-4.35134e+00 -2.57842e+00        00000 
-3.31746e+00 -2.06141e+00        00000 
-2.89153e-16  2.97162e-16        00000 
-2.33781e+00 -1.71049e+00        00000 
-1.39079e+00 -1.49222e+00        00000 
 9.36751e-17 -4.37150e-16        00000 
-4.62141e-01 -1.38740e+00        00000 
 4.60765e-01 -1.38720e+00        00000 
 3.35315e-16 -2.43487e-16        00000 
 1.38945e+00 -1.49164e+00        00000 
 2.33628e+00 -1.70941e+00        00000 
 2.49800e-16 -1.24900e-16        00000 
 3.31623e+00 -2.05981e+00        00000 
 4.35025e+00 -2.57679e+00        00000 
 9.99201e-16 -4.99600e-16        00000 
 5.47230e+00 -3.31600e+00        00000 
 6.75172e+00 -4.37399e+00        00000 
-2.65711e-15  1.37985e-15        00000 
 8.37046e+00 -5.93477e+00        00000 
 1.10267e+01 -8.42723e+00        00000 
-4.14256e+01 -3.33582e+01        00000 
-5.57327e+01 -4.51091e+01        00000 
-4.67862e+01 -4.07219e+01        00000 
-2.76107e+01 -2.57092e+01        00000 
-3.86940e+01 -3.68839e+01        00000 
-3.14904e+01 -3.36984e+01        00000 
-1.71798e+01 -2.09334e+01        00000 
-2.49807e+01 -3.11585e+01        00000 
-1.89767e+01 -2.92154e+01        00000 
-8.28677e+00 -1.84016e+01        00000 
-1.33266e+01 -2.78130e+01        00000 
-7.90986e+00 -2.69049e+01        00000 
-3.55011e-03 -1.76112e+01        00000 
-2.62518e+00 -2.64585e+01        00000 
 2.61667e+00 -2.64579e+01        00000 
 8.28038e+00 -1.83998e+01        00000 
 7.90177e+00 -2.69030e+01        00000 
 1.33190e+01 -2.78101e+01        00000 
 1.71744e+01 -2.09300e+01        00000 
 1.89696e+01 -2.92116e+01        00000 
 2.49741e+01 -3.11542e+01        00000 
 2.76061e+01 -2.57041e+01        00000 
 3.14844e+01 -3.36933e+01        00000 
 3.86882e+01 -3.68784e+01        00000 
 4.14196e+01 -3.33518e+01        00000 
 4.67799e+01 -4.07157e+01        00000 
 5.57255e+01 -4.51023e+01        00000 
-7.84089e+01 -7.65969e+01        00000 
-9.34771e+01 -9.20824e+01        00000 
-8.04965e+01 -8.82352e+01        00000 
-5.58515e+01 -6.97724e+01        00000 
-6.82093e+01 -8.48858e+01        00000 
-5.65584e+01 -8.20064e+01        00000 
-3.57724e+01 -6.48055e+01        00000 
-4.54725e+01 -7.95974e+01        00000 
-3.48648e+01 -7.76667e+01        00000 
-1.74523e+01 -6.18376e+01        00000 
-2.46347e+01 -7.62187e+01        00000 
-1.46754e+01 -7.52542e+01        00000 
-6.03899e-03 -6.08549e+01        00000 
-4.87866e+00 -7.47721e+01        00000 
 4.86456e+00 -7.47716e+01        00000 
 1.74401e+01 -6.18353e+01        00000 
 1.46615e+01 -7.52526e+01        00000 
 2.46209e+01 -7.62163e+01        00000 
 3.57611e+01 -6.48015e+01        00000 
 3.48517e+01 -7.76637e+01        00000 
 4.54601e+01 -7.95934e+01        00000 
 5.58421e+01 -6.97665e+01        00000 
 5.65468e+01 -8.20014e+01        00000 
 6.81988e+01 -8.48801e+01        00000 
 7.84008e+01 -7.65892e+01        00000 
 8.04871e+01 -8.82287e+01        00000 
 9.34685e+01 -9.20754e+01        00000 
-1.10582e+02 -1.36019e+02        00000 
-1.26353e+02 -1.55112e+02        00000 
-1.09578e+02 -1.51821e+02        00000 
-8.02160e+01 -1.30180e+02        00000 
-9.35056e+01 -1.48972e+02        00000 
-7.80502e+01 -1.46534e+02        00000 
-5.21505e+01 -1.25936e+02        00000 
-6.31233e+01 -1.44499e+02        00000 
-4.86353e+01 -1.42866e+02        00000 
-2.56733e+01 -1.23365e+02        00000 
-3.44925e+01 -1.41637e+02        00000 
-2.05987e+01 -1.40816e+02        00000 
-8.88640e-03 -1.22504e+02        00000 
-6.85562e+00 -1.40405e+02        00000 
 6.83739e+00 -1.40405e+02        00000 
 2.56556e+01 -1.23365e+02        00000 
 2.05805e+01 -1.40816e+02        00000 
 3.44740e+01 -1.41637e+02        00000 
 5.21330e+01 -1.25935e+02        00000 
 4.86168e+01 -1.42866e+02        00000 
 6.31048e+01 -1.44499e+02        00000 
 8.02003e+01 -1.30178e+02        00000 
 7.80323e+01 -1.46533e+02        00000 
 9.34888e+01 -1.48971e+02        00000 
 1.10568e+02 -1.36015e+02        00000 
 1.09562e+02 -1.51819e+02        00000 
 1.26338e+02 -1.55110e+02        00000 
-1.37911e+02 -2.10280e+02        00000 
-1.54081e+02 -2.32404e+02        00000 
-1.34052e+02 -2.29681e+02        00000 
-1.00762e+02 -2.05419e+02        00000 
-1.14733e+02 -2.27329e+02        00000 
-9.60332e+01 -2.25322e+02        00000 
-6.58980e+01 -2.01908e+02        00000 
-7.78565e+01 -2.23651e+02        00000 
-6.01095e+01 -2.22315e+02        00000 
-3.25672e+01 -1.99793e+02        00000 
-4.26976e+01 -2.21312e+02        00000 
-2.55263e+01 -2.20643e+02        00000 
-1.01173e-02 -1.99087e+02        00000 
-8.49954e+00 -2.20308e+02        00000 
 8.47918e+00 -2.20309e+02        00000 
 3.25471e+01 -1.99794e+02        00000 
 2.55059e+01 -2.20644e+02        00000 
 4.26771e+01 -2.21313e+02        00000 
 6.58775e+01 -2.01910e+02        00000 
 6.00886e+01 -2.22317e+02        00000 
 7.78356e+01 -2.23653e+02        00000 
 1.00742e+02 -2.05421e+02        00000 
 9.60122e+01 -2.25325e+02        00000 
 1.14712e+02 -2.27332e+02        00000 
 1.37890e+02 -2.10282e+02        00000 
 1.34030e+02 -2.29684e+02        00000 
 1.54059e+02 -2.32406e+02        00000 
-1.60300e+02 -2.96995e+02        00000 
-1.76552e+02 -3.21521e+02        00000 
-1.53880e+02 -3.19370e+02        00000 
-1.17560e+02 -2.93107e+02        00000 
-1.31919e+02 -3.17514e+02        00000 
-1.10574e+02 -3.15934e+02        00000 
-7.71013e+01 -2.90311e+02        00000 
-8.97520e+01 -3.14622e+02        00000 
-6.93603e+01 -3.13576e+02        00000 
-3.81714e+01 -2.88635e+02        00000 
-4.93047e+01 -3.12793e+02        00000 
-2.94902e+01 -3.12272e+02        00000 
-1.02801e-02 -2.88077e+02        00000 
-9.82091e+00 -3.12012e+02        00000 
 9.80020e+00 -3.12013e+02        00000 
 3.81511e+01 -2.88636e+02        00000 
 2.94699e+01 -3.12273e+02        00000 
 4.92841e+01 -3.12794e+02        00000 
 7.70799e+01 -2.90312e+02        00000 
 6.93392e+01 -3.13577e+02        00000 
 8.97301e+01 -3.14623e+02        00000 
 1.17537e+02 -2.93109e+02        00000 
 1.10551e+02 -3.15936e+02        00000 
 1.31896e+02 -3.17516e+02        00000 
 1.60275e+02 -2.96997e+02        00000 
 1.53856e+02 -3.19373e+02        00000 
 1.76527e+02 -3.21524e+02        00000 
-1.77739e+02 -3.93645e+02        00000 
-1.93778e+02 -4.19945e+02        00000 
-1.69069e+02 -4.18362e+02        00000 
-1.30612e+02 -3.90735e+02        00000 
-1.45057e+02 -4.17005e+02        00000 
-1.21658e+02 -4.15863e+02        00000 
-8.57691e+01 -3.88674e+02        00000 
-9.87902e+01 -4.14927e+02        00000 
-7.63657e+01 -4.14191e+02        00000 
-4.24895e+01 -3.87460e+02        00000 
-5.42932e+01 -4.13647e+02        00000 
-3.24766e+01 -4.13288e+02        00000 
-1.05675e-02 -3.87060e+02        00000 
-1.08151e+01 -4.13110e+02        00000 
 1.07942e+01 -4.13110e+02        00000 
 4.24687e+01 -3.87461e+02        00000 
 3.24558e+01 -4.13289e+02        00000 
 5.42728e+01 -4.13647e+02        00000 
 8.57478e+01 -3.88676e+02        00000 
 7.63451e+01 -4.14192e+02        00000 
 9.87692e+01 -4.14929e+02        00000 
 1.30590e+02 -3.90737e+02        00000 
 1.21637e+02 -4.15865e+02        00000 
 1.45035e+02 -4.17008e+02        00000 
 1.77716e+02 -3.93647e+02        00000 
 1.69047e+02 -4.18365e+02        00000 
 1.93756e+02 -4.19949e+02        00000 
-1.90315e+02 -4.97726e+02        00000 
-2.05936e+02 -5.25224e+02        00000 
-1.79690e+02 -5.24184e+02        00000 
-1.39860e+02 -4.95811e+02        00000 
-1.54106e+02 -5.23337e+02        00000 
-1.29159e+02 -5.22666e+02        00000 
-9.17669e+01 -4.94558e+02        00000 
-1.04799e+02 -5.22145e+02        00000 
-8.09521e+01 -5.21753e+02        00000 
-4.54254e+01 -4.93867e+02        00000 
-5.75203e+01 -5.21471e+02        00000 
-3.43927e+01 -5.21289e+02        00000 
-9.21234e-03 -4.93646e+02        00000 
-1.14493e+01 -5.21199e+02        00000 
 1.14320e+01 -5.21199e+02        00000 
 4.54078e+01 -4.93868e+02        00000 
 3.43756e+01 -5.21289e+02        00000 
 5.75041e+01 -5.21472e+02        00000 
 9.17498e+01 -4.94561e+02        00000 
 8.09363e+01 -5.21754e+02        00000 
 1.04783e+02 -5.22147e+02        00000 
 1.39842e+02 -4.95815e+02        00000 
 1.29142e+02 -5.22668e+02        00000 
 1.54088e+02 -5.23340e+02        00000 
 1.90296e+02 -4.97731e+02        00000 
 1.79671e+02 -5.24187e+02        00000 
 2.05917e+02 -5.25227e+02        00000 
-1.98324e+02 -6.07195e+02        00000 
-2.13679e+02 -6.35812e+02        00000 
-1.85773e+02 -6.35293e+02        00000 
-1.45064e+02 -6.06292e+02        00000 
-1.58837e+02 -6.34895e+02        00000 
-1.32831e+02 -6.34523e+02        00000 
-9.48785e+01 -6.05680e+02        00000 
-1.07621e+02 -6.34165e+02        00000 
-8.30544e+01 -6.33839e+02        00000 
-4.68917e+01 -6.05272e+02        00000 
-5.89795e+01 -6.33568e+02        00000 
-3.52520e+01 -6.33374e+02        00000 
-6.49026e-03 -6.05126e+02        00000 
-1.17315e+01 -6.33273e+02        00000 
 1.17199e+01 -6.33274e+02        00000 
 4.68783e+01 -6.05273e+02        00000 
 3.52398e+01 -6.33375e+02        00000 
 5.89663e+01 -6.33568e+02        00000 
 9.48647e+01 -6.05681e+02        00000 
 8.30404e+01 -6.33839e+02        00000 
 1.07607e+02 -6.34164e+02        00000 
 1.45049e+02 -6.06292e+02        00000 
 1.32817e+02 -6.34521e+02        00000 
 1.58821e+02 -6.34893e+02        00000 
 1.98307e+02 -6.07194e+02        00000 
 1.85757e+02 -6.35291e+02        00000 
 2.13663e+02 -6.35811e+02        00000 
-1.59693e+01 -1.24052e+01        00000 
-2.78145e+01 -2.24549e+01        00000 
-1.03040e+01 -8.06191e+00        00000 
-1.80673e+01 -1.59604e+01        00000 
-5.89170e+00 -5.92168e+00        00000 
-1.08125e+01 -1.24234e+01        00000 
-1.92456e+00 -5.01453e+00        00000 
-4.50231e+00 -1.07412e+01        00000 
 1.92142e+00 -5.01375e+00        00000 
 1.48919e+00 -1.04254e+01        00000 
 5.88882e+00 -5.91956e+00        00000 
 7.58283e+00 -1.13901e+01        00000 
 1.03022e+01 -8.05899e+00        00000 
 1.42593e+01 -1.39056e+01        00000 
 1.59667e+01 -1.24019e+01        00000 
 2.24425e+01 -1.87347e+01        00000 
 2.78245e+01 -2.17150e+01        00000 
 3.50085e+01 -2.72614e+01        00000 
-5.09825e+01 -4.91047e+01        00000 
-6.42385e+01 -6.24358e+01        00000 
-3.41198e+01 -4.28240e+01        00000 
-4.44559e+01 -5.57487e+01        00000 
-1.96218e+01 -3.87906e+01        00000 
-2.71279e+01 -5.11695e+01        00000 
-6.41083e+00 -3.68538e+01        00000 
-1.13620e+01 -4.86832e+01        00000 
 6.40103e+00 -3.68527e+01        00000 
 3.76257e+00 -4.81919e+01        00000 
 1.96128e+01 -3.87873e+01        00000 
 1.90989e+01 -4.96686e+01        00000 
 3.41124e+01 -4.28189e+01        00000 
 3.55264e+01 -5.31873e+01        00000 
 5.09757e+01 -4.90984e+01        00000 
 5.39933e+01 -5.88298e+01        00000 
 7.08480e+01 -5.72441e+01        00000 
 7.51858e+01 -6.65444e+01        00000 
-8.14749e+01 -1.00952e+02        00000 
-9.56095e+01 -1.18101e+02        00000 
-5.61527e+01 -9.54566e+01        00000 
-6.77505e+01 -1.12344e+02        00000 
-3.28514e+01 -9.17404e+01        00000 
-4.20422e+01 -1.08334e+02        00000 
-1.08136e+01 -8.98731e+01        00000 
-1.77625e+01 -1.06092e+02        00000 
 1.07981e+01 -8.98724e+01        00000 
 5.89252e+00 -1.05642e+02        00000 
 3.28365e+01 -9.17382e+01        00000 
 2.97566e+01 -1.06989e+02        00000 
 5.61392e+01 -9.54527e+01        00000 
 5.46548e+01 -1.10118e+02        00000 
 8.14635e+01 -1.00947e+02        00000 
 8.13564e+01 -1.14998e+02        00000 
 1.09438e+02 -1.08029e+02        00000 
 1.10534e+02 -1.21667e+02        00000 
-1.07579e+02 -1.68586e+02        00000 
-1.22394e+02 -1.89116e+02        00000 
-7.49131e+01 -1.63962e+02        00000 
-8.74741e+01 -1.84294e+02        00000 
-4.41690e+01 -1.60852e+02        00000 
-5.46534e+01 -1.80960e+02        00000 
-1.45975e+01 -1.59288e+02        00000 
-2.31845e+01 -1.79102e+02        00000 
 1.45788e+01 -1.59289e+02        00000 
 7.69891e+00 -1.78730e+02        00000 
 4.41496e+01 -1.60852e+02        00000 
 3.87773e+01 -1.79846e+02        00000 
 7.48939e+01 -1.63963e+02        00000 
 7.08277e+01 -1.82444e+02        00000 
 1.07561e+02 -1.68586e+02        00000 
 1.04606e+02 -1.86517e+02        00000 
 1.42889e+02 -1.74593e+02        00000 
 1.40852e+02 -1.92124e+02        00000 
-1.29344e+02 -2.49903e+02        00000 