<?xml version="1.0" encoding="utf-8"?>
<VTKFile byte_order="LittleEndian" type="UnstructuredGrid" version="0.1">
   <UnstructuredGrid>
      <Piece NumberOfCells="1296" NumberOfPoints="685">
         <Points>
            <DataArray Name="Points" NumberOfComponents="3" format="ascii" type="Float32">
0.0000 0.0000 0.0000
0.0000 0.1111 0.0000
0.0000 0.2222 0.0000
0.0000 0.3333 0.0000
0.0000 0.4444 0.0000
0.0000 0.5556 0.0000
0.0000 0.6667 0.0000
0.0000 0.7778 0.0000
0.0000 0.8889 0.0000
0.0000 1.0000 0.0000
0.2222 0.0000 0.0000
0.2222 0.1111 0.0000
0.2222 0.2222 0.0000
0.2222 0.3333 0.0000
0.2222 0.4444 0.0000
0.2222 0.5556 0.0000
0.2222 0.6667 0.0000
0.2222 0.7778 0.0000
0.2222 0.8889 0.0000
0.2222 1.0000 0.0000
0.4444 0.0000 0.0000
0.4444 0.1111 0.0000
0.4444 0.2222 0.0000
0.4444 0.3333 0.0000
0.4444 0.4444 0.0000
0.4444 0.5556 0.0000
0.4444 0.6667 0.0000
0.4444 0.7778 0.0000
0.4444 0.8889 0.0000
0.4444 1.0000 0.0000
0.6667 0.0000 0.0000
0.6667 0.1111 0.0000
0.6667 0.2222 0.0000
0.6667 0.3333 0.0000
0.6667 0.4444 0.0000
0.6667 0.5556 0.0000
0.6667 0.6667 0.0000
0.6667 0.7778 0.0000
0.6667 0.8889 0.0000
0.6667 1.0000 0.0000
0.8889 0.0000 0.0000
0.8889 0.1111 0.0000
0.8889 0.2222 0.0000
0.8889 0.3333 0.0000
0.8889 0.4444 0.0000
0.8889 0.5556 0.0000
0.8889 0.6667 0.0000
0.8889 0.7778 0.0000
0.8889 0.8889 0.0000
0.8889 1.0000 0.0000
1.1111 0.0000 0.0000
1.1111 0.1111 0.0000
1.1111 0.2222 0.0000
1.1111 0.3333 0.0000
1.1111 0.4444 0.0000
1.1111 0.5556 0.0000
1.1111 0.6667 0.0000
1.1111 0.7778 0.0000
1.1111 0.8889 0.0000
1.1111 1.0000 0.0000
1.3333 0.0000 0.0000
1.3333 0.1111 0.0000
1.3333 0.2222 0.0000
1.3333 0.3333 0.0000
1.3333 0.4444 0.0000
1.3333 0.5556 0.0000
1.3333 0.6667 0.0000
1.3333 0.7778 0.0000
1.3333 0.8889 0.0000
1.3333 1.0000 0.0000
1.5556 0.0000 0.0000
1.5556 0.1111 0.0000
1.5556 0.2222 0.0000
1.5556 0.3333 0.0000
1.5556 0.4444 0.0000
1.5556 0.5556 0.0000
1.5556 0.6667 0.0000
1.5556 0.7778 0.0000
1.5556 0.8889 0.0000
1.5556 1.0000 0.0000
1.7778 0.0000 0.0000
1.7778 0.1111 0.0000
1.7778 0.2222 0.0000
1.7778 0.3333 0.0000
1.7778 0.4444 0.0000
1.7778 0.5556 0.0000
1.7778 0.6667 0.0000
1.7778 0.7778 0.0000
1.7778 0.8889 0.0000
1.7778 1.0000 0.0000
2.0000 0.0000 0.0000
2.0000 0.1111 0.0000
2.0000 0.2222 0.0000
2.0000 0.3333 0.0000
2.0000 0.4444 0.0000
2.0000 0.5556 0.0000
2.0000 0.6667 0.0000
2.0000 0.7778 0.0000
2.0000 0.8889 0.0000
2.0000 1.0000 0.0000
0.1111 0.0556 0.0000
0.1111 0.1667 0.0000
0.1111 0.2778 0.0000
0.1111 0.3889 0.0000
0.1111 0.5000 0.0000
0.1111 0.6111 0.0000
0.1111 0.7222 0.0000
0.1111 0.8333 0.0000
0.1111 0.9444 0.0000
0.3333 0.0556 0.0000
0.3333 0.1667 0.0000
0.3333 0.2778 0.0000
0.3333 0.3889 0.0000
0.3333 0.5000 0.0000
0.3333 0.6111 0.0000
0.3333 0.7222 0.0000
0.3333 0.8333 0.0000
0.3333 0.9444 0.0000
0.5556 0.0556 0.0000
0.5556 0.1667 0.0000
0.5556 0.2778 0.0000
0.5556 0.3889 0.0000
0.5556 0.5000 0.0000
0.5556 0.6111 0.0000
0.5556 0.7222 0.0000
0.5556 0.8333 0.0000
0.5556 0.9444 0.0000
0.7778 0.0556 0.0000
0.7778 0.1667 0.0000
0.7778 0.2778 0.0000
0.7778 0.3889 0.0000
0.7778 0.5000 0.0000
0.7778 0.6111 0.0000
0.7778 0.7222 0.0000
0.7778 0.8333 0.0000
0.7778 0.9444 0.0000
1.0000 0.0556 0.0000
1.0000 0.1667 0.0000
1.0000 0.2778 0.0000
1.0000 0.3889 0.0000
1.0000 0.5000 0.0000
1.0000 0.6111 0.0000
1.0000 0.7222 0.0000
1.0000 0.8333 0.0000
1.0000 0.9444 0.0000
1.2222 0.0556 0.0000
1.2222 0.1667 0.0000
1.2222 0.2778 0.0000
1.2222 0.3889 0.0000
1.2222 0.5000 0.0000
1.2222 0.6111 0.0000
1.2222 0.7222 0.0000
1.2222 0.8333 0.0000
1.2222 0.9444 0.0000
1.4444 0.0556 0.0000
1.4444 0.1667 0.0000
1.4444 0.2778 0.0000
1.4444 0.3889 0.0000
1.4444 0.5000 0.0000
1.4444 0.6111 0.0000
1.4444 0.7222 0.0000
1.4444 0.8333 0.0000
1.4444 0.9444 0.0000
1.6667 0.0556 0.0000
1.6667 0.1667 0.0000
1.6667 0.2778 0.0000
1.6667 0.3889 0.0000
1.6667 0.5000 0.0000
1.6667 0.6111 0.0000
1.6667 0.7222 0.0000
1.6667 0.8333 0.0000
1.6667 0.9444 0.0000
1.8889 0.0556 0.0000
1.8889 0.1667 0.0000
1.8889 0.2778 0.0000
1.8889 0.3889 0.0000
1.8889 0.5000 0.0000
1.8889 0.6111 0.0000
1.8889 0.7222 0.0000
1.8889 0.8333 0.0000
1.8889 0.9444 0.0000
0.0000 0.0556 0.0000
0.0556 0.0278 0.0000
0.0556 0.0833 0.0000
0.0000 0.1667 0.0000
0.0556 0.1389 0.0000
0.0556 0.1944 0.0000
0.0000 0.2778 0.0000
0.0556 0.2500 0.0000
0.0556 0.3056 0.0000
0.0000 0.3889 0.0000
0.0556 0.3611 0.0000
0.0556 0.4167 0.0000
0.0000 0.5000 0.0000
0.0556 0.4722 0.0000
0.0556 0.5278 0.0000
0.0000 0.6111 0.0000
0.0556 0.5833 0.0000
0.0556 0.6389 0.0000
0.0000 0.7222 0.0000
0.0556 0.6944 0.0000
0.0556 0.7500 0.0000
0.0000 0.8333 0.0000
0.0556 0.8056 0.0000
0.0556 0.8611 0.0000
0.0000 0.9444 0.0000
0.0556 0.9167 0.0000
0.0556 0.9722 0.0000
0.2222 0.0556 0.0000
0.2778 0.0278 0.0000
0.2778 0.0833 0.0000
0.2222 0.1667 0.0000
0.2778 0.1389 0.0000
0.2778 0.1944 0.0000
0.2222 0.2778 0.0000
0.2778 0.2500 0.0000
0.2778 0.3056 0.0000
0.2222 0.3889 0.0000
0.2778 0.3611 0.0000
0.2778 0.4167 0.0000
0.2222 0.5000 0.0000
0.2778 0.4722 0.0000
0.2778 0.5278 0.0000
0.2222 0.6111 0.0000
0.2778 0.5833 0.0000
0.2778 0.6389 0.0000
0.2222 0.7222 0.0000
0.2778 0.6944 0.0000
0.2778 0.7500 0.0000
0.2222 0.8333 0.0000
0.2778 0.8056 0.0000
0.2778 0.8611 0.0000
0.2222 0.9444 0.0000
0.2778 0.9167 0.0000
0.2778 0.9722 0.0000
0.4444 0.0556 0.0000
0.5000 0.0278 0.0000
0.5000 0.0833 0.0000
0.4444 0.1667 0.0000
0.5000 0.1389 0.0000
0.5000 0.1944 0.0000
0.4444 0.2778 0.0000
0.5000 0.2500 0.0000
0.5000 0.3056 0.0000
0.4444 0.3889 0.0000
0.5000 0.3611 0.0000
0.5000 0.4167 0.0000
0.4444 0.5000 0.0000
0.5000 0.4722 0.0000
0.5000 0.5278 0.0000
0.4444 0.6111 0.0000
0.5000 0.5833 0.0000
0.5000 0.6389 0.0000
0.4444 0.7222 0.0000
0.5000 0.6944 0.0000
0.5000 0.7500 0.0000
0.4444 0.8333 0.0000
0.5000 0.8056 0.0000
0.5000 0.8611 0.0000
0.4444 0.9444 0.0000
0.5000 0.9167 0.0000
0.5000 0.9722 0.0000
0.6667 0.0556 0.0000
0.7222 0.0278 0.0000
0.7222 0.0833 0.0000
0.6667 0.1667 0.0000
0.7222 0.1389 0.0000
0.7222 0.1944 0.0000
0.6667 0.2778 0.0000
0.7222 0.2500 0.0000
0.7222 0.3056 0.0000
0.6667 0.3889 0.0000
0.7222 0.3611 0.0000
0.7222 0.4167 0.0000
0.6667 0.5000 0.0000
0.7222 0.4722 0.0000
0.7222 0.5278 0.0000
0.6667 0.6111 0.0000
0.7222 0.5833 0.0000
0.7222 0.6389 0.0000
0.6667 0.7222 0.0000
0.7222 0.6944 0.0000
0.7222 0.7500 0.0000
0.6667 0.8333 0.0000
0.7222 0.8056 0.0000
0.7222 0.8611 0.0000
0.6667 0.9444 0.0000
0.7222 0.9167 0.0000
0.7222 0.9722 0.0000
0.8889 0.0556 0.0000
0.9444 0.0278 0.0000
0.9444 0.0833 0.0000
0.8889 0.1667 0.0000
0.9444 0.1389 0.0000
0.9444 0.1944 0.0000
0.8889 0.2778 0.0000
0.9444 0.2500 0.0000
0.9444 0.3056 0.0000
0.8889 0.3889 0.0000
0.9444 0.3611 0.0000
0.9444 0.4167 0.0000
0.8889 0.5000 0.0000
0.9444 0.4722 0.0000
0.9444 0.5278 0.0000
0.8889 0.6111 0.0000
0.9444 0.5833 0.0000
0.9444 0.6389 0.0000
0.8889 0.7222 0.0000
0.9444 0.6944 0.0000
0.9444 0.7500 0.0000
0.8889 0.8333 0.0000
0.9444 0.8056 0.0000
0.9444 0.8611 0.0000
0.8889 0.9444 0.0000
0.9444 0.9167 0.0000
0.9444 0.9722 0.0000
1.1111 0.0556 0.0000
1.1667 0.0278 0.0000
1.1667 0.0833 0.0000
1.1111 0.1667 0.0000
1.1667 0.1389 0.0000
1.1667 0.1944 0.0000
1.1111 0.2778 0.0000
1.1667 0.2500 0.0000
1.1667 0.3056 0.0000
1.1111 0.3889 0.0000
1.1667 0.3611 0.0000
1.1667 0.4167 0.0000
1.1111 0.5000 0.0000
1.1667 0.4722 0.0000
1.1667 0.5278 0.0000
1.1111 0.6111 0.0000
1.1667 0.5833 0.0000
1.1667 0.6389 0.0000
1.1111 0.7222 0.0000
1.1667 0.6944 0.0000
1.1667 0.7500 0.0000
1.1111 0.8333 0.0000
1.1667 0.8056 0.0000
1.1667 0.8611 0.0000
1.1111 0.9444 0.0000
1.1667 0.9167 0.0000
1.1667 0.9722 0.0000
1.3333 0.0556 0.0000
1.3889 0.0278 0.0000
1.3889 0.0833 0.0000
1.3333 0.1667 0.0000
1.3889 0.1389 0.0000
1.3889 0.1944 0.0000
1.3333 0.2778 0.0000
1.3889 0.2500 0.0000
1.3889 0.3056 0.0000
1.3333 0.3889 0.0000
1.3889 0.3611 0.0000
1.3889 0.4167 0.0000
1.3333 0.5000 0.0000
1.3889 0.4722 0.0000
1.3889 0.5278 0.0000
1.3333 0.6111 0.0000
1.3889 0.5833 0.0000
1.3889 0.6389 0.0000
1.3333 0.7222 0.0000
1.3889 0.6944 0.0000
1.3889 0.7500 0.0000
1.3333 0.8333 0.0000
1.3889 0.8056 0.0000
1.3889 0.8611 0.0000
1.3333 0.9444 0.0000
1.3889 0.9167 0.0000
1.3889 0.9722 0.0000
1.5556 0.0556 0.0000
1.6111 0.0278 0.0000
1.6111 0.0833 0.0000
1.5556 0.1667 0.0000
1.6111 0.1389 0.0000
1.6111 0.1944 0.0000
1.5556 0.2778 0.0000
1.6111 0.2500 0.0000
1.6111 0.3056 0.0000
1.5556 0.3889 0.0000
1.6111 0.3611 0.0000
1.6111 0.4167 0.0000
1.5556 0.5000 0.0000
1.6111 0.4722 0.0000
1.6111 0.5278 0.0000
1.5556 0.6111 0.0000
1.6111 0.5833 0.0000
1.6111 0.6389 0.0000
1.5556 0.7222 0.0000
1.6111 0.6944 0.0000
1.6111 0.7500 0.0000
1.5556 0.8333 0.0000
1.6111 0.8056 0.0000
1.6111 0.8611 0.0000
1.5556 0.9444 0.0000
1.6111 0.9167 0.0000
1.6111 0.9722 0.0000
1.7778 0.0556 0.0000
1.8333 0.0278 0.0000
1.8333 0.0833 0.0000
1.7778 0.1667 0.0000
1.8333 0.1389 0.0000
1.8333 0.1944 0.0000
1.7778 0.2778 0.0000
1.8333 0.2500 0.0000
1.8333 0.3056 0.0000
1.7778 0.3889 0.0000
1.8333 0.3611 0.0000
1.8333 0.4167 0.0000
1.7778 0.5000 0.0000
1.8333 0.4722 0.0000
1.8333 0.5278 0.0000
1.7778 0.6111 0.0000
1.8333 0.5833 0.0000
1.8333 0.6389 0.0000
1.7778 0.7222 0.0000
1.8333 0.6944 0.0000
1.8333 0.7500 0.0000
1.7778 0.8333 0.0000
1.8333 0.8056 0.0000
1.8333 0.8611 0.0000
1.7778 0.9444 0.0000
1.8333 0.9167 0.0000
1.8333 0.9722 0.0000
0.1111 0.1111 0.0000
0.1667 0.0833 0.0000
0.1111 0.2222 0.0000
0.1667 0.1944 0.0000
0.1111 0.3333 0.0000
0.1667 0.3056 0.0000
0.1111 0.4444 0.0000
0.1667 0.4167 0.0000
0.1111 0.5556 0.0000
0.1667 0.5278 0.0000
0.1111 0.6667 0.0000
0.1667 0.6389 0.0000
0.1111 0.7778 0.0000
0.1667 0.7500 0.0000
0.1111 0.8889 0.0000
0.1667 0.8611 0.0000
0.1111 1.0000 0.0000
0.1667 0.9722 0.0000
0.3333 0.1111 0.0000
0.3889 0.0833 0.0000
0.3333 0.2222 0.0000
0.3889 0.1944 0.0000
0.3333 0.3333 0.0000
0.3889 0.3056 0.0000
0.3333 0.4444 0.0000
0.3889 0.4167 0.0000
0.3333 0.5556 0.0000
0.3889 0.5278 0.0000
0.3333 0.6667 0.0000
0.3889 0.6389 0.0000
0.3333 0.7778 0.0000
0.3889 0.7500 0.0000
0.3333 0.8889 0.0000
0.3889 0.8611 0.0000
0.3333 1.0000 0.0000
0.3889 0.9722 0.0000
0.5556 0.1111 0.0000
[...]
         <PointData>
            <DataArray Name="fValues" NumberOfComponents="3" format="ascii" type="Float64">
-1.52971e-16 -3.82427e-17        00000 
 1.98082e-16  2.06335e-17        00000 
 2.54174e-16  1.00052e-16        00000 
-3.28783e-17  3.94539e-16        00000 
-6.46599e-17  5.03097e-16        00000 
 3.28783e-17        00000        00000 
 2.36717e-16  4.15673e-16        00000 
 1.06758e-16 -1.64243e-17        00000 
-9.90646e-17 -6.19154e-18        00000 
 2.29456e-16 -1.52971e-16        00000 
-7.58213e+00 -1.36757e-01        00000 
-6.18342e+00  1.22649e+00        00000 
-4.45923e+00  2.20944e+00        00000 
-2.38241e+00  2.45675e+00        00000 
-5.35760e-01  2.21305e+00        00000 
 1.21073e+00  1.58825e+00        00000 
 2.92796e+00  9.77435e-01        00000 
 4.02265e+00  3.93055e-01        00000 
 4.69426e+00 -4.41953e-01        00000 
 5.19140e+00 -1.36790e+00        00000 
-1.66205e+01 -5.03726e+00        00000 
-1.31073e+01 -3.14958e+00        00000 
-9.07198e+00 -1.78894e+00        00000 
-4.91771e+00 -9.96182e-01        00000 
-5.42685e-01 -5.70718e-01        00000 
 3.14319e+00 -7.36615e-01        00000 
 5.95635e+00 -1.43181e+00        00000 
 8.61702e+00 -2.66421e+00        00000 
 1.11475e+01 -3.91191e+00        00000 
 1.39302e+01 -5.75405e+00        00000 
-2.48518e+01 -1.19090e+01        00000 
-2.02289e+01 -1.02632e+01        00000 
-1.45059e+01 -8.89247e+00        00000 
-7.97351e+00 -7.79125e+00        00000 
-1.84380e+00 -6.86582e+00        00000 
 4.66761e+00 -6.24644e+00        00000 
 1.02972e+01 -6.63333e+00        00000 
 1.49454e+01 -7.76921e+00        00000 
 1.97440e+01 -9.59951e+00        00000 
 2.38983e+01 -1.22119e+01        00000 
-3.37173e+01 -2.33755e+01        00000 
-2.69725e+01 -2.19877e+01        00000 
-1.93325e+01 -2.09869e+01        00000 
-1.13711e+01 -2.00142e+01        00000 
-3.67741e+00 -1.90321e+01        00000 
 4.86757e+00 -1.81048e+01        00000 
 1.32626e+01 -1.74633e+01        00000 
 2.10405e+01 -1.76281e+01        00000 
 2.80292e+01 -1.85672e+01        00000 
 3.41758e+01 -2.01658e+01        00000 
-4.22960e+01 -3.98684e+01        00000 
-3.26353e+01 -3.84513e+01        00000 
-2.35767e+01 -3.73017e+01        00000 
-1.47576e+01 -3.62514e+01        00000 
-5.42304e+00 -3.56253e+01        00000 
 4.89145e+00 -3.51825e+01        00000 
 1.50622e+01 -3.52398e+01        00000 
 2.44682e+01 -3.54917e+01        00000 
 3.42114e+01 -3.64940e+01        00000 
 4.46464e+01 -3.83851e+01        00000 
-5.09172e+01 -6.38971e+01        00000 
-3.97315e+01 -6.19506e+01        00000 
-2.87828e+01 -6.03817e+01        00000 
-1.82244e+01 -5.96060e+01        00000 
-7.18129e+00 -5.90495e+01        00000 
 4.08318e+00 -5.86833e+01        00000 
 1.57257e+01 -5.83847e+01        00000 
 2.70742e+01 -5.85206e+01        00000 
 3.86388e+01 -5.88539e+01        00000 
 5.06014e+01 -5.94840e+01        00000 
-5.97057e+01 -8.76109e+01        00000 
-4.63204e+01 -8.64207e+01        00000 
-3.37351e+01 -8.59912e+01        00000 
-2.16521e+01 -8.56563e+01        00000 
-9.95514e+00 -8.51999e+01        00000 
 2.05183e+00 -8.46711e+01        00000 
 1.47388e+01 -8.41823e+01        00000 
 2.79130e+01 -8.38090e+01        00000 
 4.11903e+01 -8.36869e+01        00000 
 5.43969e+01 -8.43092e+01        00000 
-6.79084e+01 -1.18075e+02        00000 
-5.19585e+01 -1.16982e+02        00000 
-3.79460e+01 -1.16573e+02        00000 
-2.48935e+01 -1.16195e+02        00000 
-1.21927e+01 -1.16190e+02        00000 
 6.25776e-01 -1.16447e+02        00000 
 1.34528e+01 -1.16406e+02        00000 
 2.69884e+01 -1.16357e+02        00000 
 4.23441e+01 -1.15926e+02        00000 
 5.99694e+01 -1.15959e+02        00000 
-7.24541e+01 -1.58311e+02        00000 
-5.40721e+01 -1.56162e+02        00000 
-3.94528e+01 -1.54282e+02        00000 
-2.56990e+01 -1.53823e+02        00000 
-1.28238e+01 -1.53991e+02        00000 
 4.53332e-01 -1.54177e+02        00000 
 1.37897e+01 -1.54702e+02        00000 
 2.77276e+01 -1.56377e+02        00000 
 4.31298e+01 -1.58896e+02        00000 
 6.29550e+01 -1.61187e+02        00000 
-3.27762e+00  3.12845e-01        00000 
-2.44624e+00  1.47113e+00        00000 
-1.60430e+00  1.96450e+00        00000 
-7.70299e-01  2.00992e+00        00000 
 2.56103e-01  1.84234e+00        00000 
 1.08099e+00  1.60605e+00        00000 
 1.77039e+00  8.21529e-01        00000 
 2.15117e+00  4.48069e-02        00000 
 2.41752e+00 -8.99535e-01        00000 
-1.08374e+01 -9.83823e-01        00000 
-8.25026e+00  3.63498e-01        00000 
-5.26144e+00  1.11578e+00        00000 
-1.88484e+00  1.34293e+00        00000 
 8.27497e-01  9.53494e-01        00000 
 3.25927e+00  3.41831e-01        00000 
 5.21376e+00 -1.42676e-01        00000 
 6.97715e+00 -7.84167e-01        00000 
 8.32851e+00 -2.01519e+00        00000 
-1.87043e+01 -6.96087e+00        00000 
-1.44384e+01 -5.31384e+00        00000 
-9.12020e+00 -4.07278e+00        00000 
-3.60356e+00 -3.52397e+00        00000 
 1.52946e+00 -3.15224e+00        00000 
 6.14549e+00 -3.46194e+00        00000 
 1.01583e+01 -4.31435e+00        00000 
 1.35047e+01 -5.56918e+00        00000 
 1.70313e+01 -7.31777e+00        00000 
-2.66377e+01 -1.67593e+01        00000 
-2.04509e+01 -1.49153e+01        00000 
-1.33188e+01 -1.37892e+01        00000 
-6.23040e+00 -1.26955e+01        00000 
 1.02702e+00 -1.17438e+01        00000 
 8.64445e+00 -1.09994e+01        00000 
 1.53575e+01 -1.13284e+01        00000 
 2.13284e+01 -1.28500e+01        00000 
 2.69326e+01 -1.46795e+01        00000 
-3.38466e+01 -3.00391e+01        00000 
-2.54494e+01 -2.91490e+01        00000 
-1.72869e+01 -2.83470e+01        00000 
-8.92837e+00 -2.72697e+01        00000 
 2.13958e-01 -2.62967e+01        00000 
 9.57787e+00 -2.57583e+01        00000 
 1.86473e+01 -2.55808e+01        00000 
 2.72084e+01 -2.56715e+01        00000 
 3.56070e+01 -2.66852e+01        00000 
-4.13069e+01 -5.02109e+01        00000 
-3.09844e+01 -4.85972e+01        00000 
-2.12535e+01 -4.74164e+01        00000 
-1.13174e+01 -4.67093e+01        00000 
-1.01398e+00 -4.66443e+01        00000 
 1.01396e+01 -4.63943e+01        00000 
 2.07409e+01 -4.63638e+01        00000 
 3.12679e+01 -4.69842e+01        00000 
 4.23897e+01 -4.77274e+01        00000 
-4.90400e+01 -7.46637e+01        00000 
-3.73621e+01 -7.33831e+01        00000 
-2.56724e+01 -7.27455e+01        00000 
-1.42769e+01 -7.24639e+01        00000 
-2.64668e+00 -7.20185e+01        00000 
 9.33250e+00 -7.12999e+01        00000 
 2.16915e+01 -7.07547e+01        00000 
 3.38826e+01 -7.06316e+01        00000 
 4.60589e+01 -7.08929e+01        00000 
-5.66593e+01 -1.01210e+02        00000 
-4.25754e+01 -1.00476e+02        00000 
-2.97099e+01 -1.00021e+02        00000 
-1.74817e+01 -9.97674e+01        00000 
-5.18562e+00 -9.96510e+01        00000 
 7.41450e+00 -9.96492e+01        00000 
 2.06654e+01 -9.92938e+01        00000 
 3.44813e+01 -9.87218e+01        00000 
 4.94014e+01 -9.86297e+01        00000 
-6.14563e+01 -1.35736e+02        00000 
-4.58282e+01 -1.35618e+02        00000 
-3.22385e+01 -1.35090e+02        00000 
-1.89666e+01 -1.34962e+02        00000 
-5.99546e+00 -1.34938e+02        00000 
 6.81174e+00 -1.35050e+02        00000 
 2.00280e+01 -1.35613e+02        00000 
 3.44352e+01 -1.36339e+02        00000 
 5.17157e+01 -1.36730e+02        00000 
-1.01242e-16  9.40889e-17        00000 
-1.72509e+00 -7.00028e-02        00000 
-1.38886e+00  5.02037e-01        00000 
 2.69888e-16 -2.35250e-16        00000 
-1.16248e+00  8.34896e-01        00000 
-1.06702e+00  1.03112e+00        00000 
-1.24900e-16  1.87350e-16        00000 
-9.69780e-01  1.17028e+00        00000 
-6.68386e-01  1.38529e+00        00000 
 4.20017e-17  4.15751e-16        00000 
-4.95408e-01  1.32932e+00        00000 
-3.19675e-01  1.37436e+00        00000 
 7.02563e-17  1.24900e-16        00000 
-1.15096e-01  1.24877e+00        00000 
 1.70888e-01  1.17092e+00        00000 
-1.48740e-16 -1.94179e-16        00000 
 3.76059e-01  1.06493e+00        00000 
 4.35097e-01  1.07488e+00        00000 
 1.56125e-16  6.24500e-17        00000 
 7.48643e-01  8.51460e-01        00000 
 8.92563e-01  5.99773e-01        00000 
       00000 -2.53703e-17        00000 
 9.40642e-01  4.16858e-01        00000 
 9.61036e-01  4.03940e-02        00000 
-1.46017e-17  1.80500e-16        00000 
 1.00668e+00 -2.95620e-01        00000 
 1.08060e+00 -7.02045e-01        00000 
-7.13911e+00  4.03473e-01        00000 
-9.52815e+00 -5.81931e-01        00000 
-8.57451e+00  2.95833e-01        00000 
-5.39271e+00  1.70284e+00        00000 
-7.44473e+00  1.02993e+00        00000 
-6.24369e+00  1.51247e+00        00000 
-3.49084e+00  2.36120e+00        00000 
-4.98282e+00  1.76476e+00        00000 
-3.62181e+00  1.94552e+00        00000 
-1.40339e+00  2.35293e+00        00000 
-2.20354e+00  1.93186e+00        00000 
-1.12073e+00  1.76879e+00        00000 
 3.59772e-01  1.90374e+00        00000 
 1.98598e-02  1.44717e+00        00000 
 1.09086e+00  1.19650e+00        00000 
 2.06644e+00  1.26551e+00        00000 
 2.19037e+00  9.28346e-01        00000 
 3.16862e+00  6.74471e-01        00000 
 3.57882e+00  7.23726e-01        00000 
 3.99002e+00  5.59155e-01        00000 
 4.75848e+00  2.98363e-01        00000 
 4.48975e+00  6.00575e-03        00000 
 5.41800e+00  3.90173e-02        00000 
 5.87797e+00 -4.14998e-01        00000 
 4.89305e+00 -9.41921e-01        00000 
 6.27727e+00 -9.55928e-01        00000 
 6.71849e+00 -1.74780e+00        00000 
-1.49815e+01 -4.08512e+00        00000 
-1.77455e+01 -5.90308e+00        00000 
-1.58693e+01 -5.03238e+00        00000 
-1.11553e+01 -2.32370e+00        00000 
-1.39262e+01 -4.16710e+00        00000 
-1.15827e+01 -3.40563e+00        00000 
-7.03568e+00 -1.35150e+00        00000 
-9.30612e+00 -2.68186e+00        00000 
-6.82924e+00 -2.26776e+00        00000 
-2.71910e+00 -6.76760e-01        00000 
-4.34382e+00 -2.06654e+00        00000 
-1.92323e+00 -1.83243e+00        00000 
 1.42824e+00 -5.72911e-01        00000 
 4.33821e-01 -1.79568e+00        00000 
 2.53090e+00 -1.82856e+00        00000 
 4.49548e+00 -9.69143e-01        00000 
 4.38231e+00 -1.93306e+00        00000 
 6.15845e+00 -2.35619e+00        00000 
 7.30792e+00 -2.02431e+00        00000 
 7.85319e+00 -2.79938e+00        00000 
 9.41081e+00 -3.40257e+00        00000 
 9.88054e+00 -3.28804e+00        00000 
 1.09802e+01 -4.01904e+00        00000 
 1.24221e+01 -4.75425e+00        00000 
 1.23532e+01 -4.82006e+00        00000 
 1.38605e+01 -5.59585e+00        00000 
 1.54342e+01 -6.53671e+00        00000 
-2.27198e+01 -1.11836e+01        00000 
-2.59228e+01 -1.44743e+01        00000 
-2.33982e+01 -1.33024e+01        00000 
-1.75183e+01 -9.57308e+00        00000 
-2.04297e+01 -1.23684e+01        00000 
-1.74079e+01 -1.16011e+01        00000 
-1.13139e+01 -8.29251e+00        00000 
-1.40478e+01 -1.10878e+01        00000 
-1.06279e+01 -1.06192e+01        00000 
-4.82800e+00 -7.34963e+00        00000 
-7.22091e+00 -1.00375e+01        00000 
-3.86785e+00 -9.44015e+00        00000 
 1.34378e+00 -6.51140e+00        00000 
-4.73145e-01 -8.83900e+00        00000 
 3.11134e+00 -8.52246e+00        00000 
 7.58372e+00 -6.41623e+00        00000 
 6.53132e+00 -8.42442e+00        00000 
 9.77839e+00 -8.41126e+00        00000 
 1.27156e+01 -7.15571e+00        00000 
 1.27126e+01 -8.71667e+00        00000 
 1.52554e+01 -9.29892e+00        00000 
 1.72799e+01 -8.55321e+00        00000 
 1.80412e+01 -9.92126e+00        00000 
 2.08082e+01 -1.09725e+01        00000 
 2.18939e+01 -1.07471e+01        00000 
 2.33190e+01 -1.20975e+01        00000 
 2.56153e+01 -1.33840e+01        00000 
-3.03195e+01 -2.27463e+01        00000 
-3.40767e+01 -2.66941e+01        00000 
-3.02342e+01 -2.58486e+01        00000 
-2.32682e+01 -2.14604e+01        00000 
-2.63811e+01 -2.53139e+01        00000 
-2.22790e+01 -2.50206e+01        00000 
-1.53453e+01 -2.04184e+01        00000 
-1.82365e+01 -2.46215e+01        00000 
-1.42550e+01 -2.42681e+01        00000 
-7.56983e+00 -1.94009e+01        00000 
-1.02104e+01 -2.35367e+01        00000 
-6.14313e+00 -2.29463e+01        00000 
 6.18156e-01 -1.84801e+01        00000 
-1.79969e+00 -2.24376e+01        00000 
 2.53304e+00 -2.20441e+01        00000 
 9.17395e+00 -1.78511e+01        00000 
 7.09100e+00 -2.17312e+01        00000 
 1.16183e+01 -2.14717e+01        00000 
 1.72758e+01 -1.73870e+01        00000 
 1.58923e+01 -2.12802e+01        00000 
 2.00776e+01 -2.12098e+01        00000 
 2.48317e+01 -1.78720e+01        00000 
 2.41756e+01 -2.12105e+01        00000 
 2.79652e+01 -2.15454e+01        00000 
 3.11698e+01 -1.91305e+01        00000 
 3.16079e+01 -2.21011e+01        00000 
 3.52638e+01 -2.30165e+01        00000 
-3.74463e+01 -3.91204e+01        00000 
-4.20787e+01 -4.48946e+01        00000 
-3.67898e+01 -4.41004e+01        00000 
-2.80608e+01 -3.79568e+01        00000 
-3.17015e+01 -4.33964e+01        00000 
-2.71042e+01 -4.27157e+01        00000 
-1.93208e+01 -3.68513e+01        00000 
-2.26385e+01 -4.22100e+01        00000 
-1.80728e+01 -4.15409e+01        00000 
-1.01889e+01 -3.58878e+01        00000 
-1.32853e+01 -4.12727e+01        00000 
-8.35941e+00 -4.10552e+01        00000 
-4.90591e-01 -3.55340e+01        00000 
-3.20829e+00 -4.07092e+01        00000 
 1.95134e+00 -4.06456e+01        00000 
 9.99237e+00 -3.52591e+01        00000 
 7.38382e+00 -4.05816e+01        00000 
 1.25344e+01 -4.06074e+01        00000 
 1.97458e+01 -3.54707e+01        00000 
 1.76927e+01 -4.05841e+01        00000 
 2.27136e+01 -4.07042e+01        00000 
 2.91773e+01 -3.59839e+01        00000 
 2.78036e+01 -4.09427e+01        00000 
 3.29753e+01 -4.14689e+01        00000 
 3.92472e+01 -3.73512e+01        00000 
 3.82660e+01 -4.20699e+01        00000 
 4.38212e+01 -4.28305e+01        00000 
-4.50538e+01 -6.29549e+01        00000 
-4.98511e+01 -6.91846e+01        00000 
-4.41576e+01 -6.83120e+01        00000 
-3.43683e+01 -6.10611e+01        00000 
-3.87671e+01 -6.75824e+01        00000 
-3.30491e+01 -6.70038e+01        00000 
-2.35252e+01 -5.99214e+01        00000 
-2.74063e+01 -6.65319e+01        00000 
-2.18519e+01 -6.62681e+01        00000 
-1.27031e+01 -5.93245e+01        00000 
-1.63805e+01 -6.60957e+01        00000 
-1.06354e+01 -6.57322e+01        00000 
-1.60097e+00 -5.88045e+01        00000 
-4.95442e+00 -6.54666e+01        00000 
 8.31014e-01 -6.52285e+01        00000 
 9.91703e+00 -5.84968e+01        00000 
 6.67823e+00 -6.49760e+01        00000 
 1.27392e+01 -6.47909e+01        00000 
 2.13714e+01 -5.84011e+01        00000 
 1.86929e+01 -6.46117e+01        00000 
 2.46312e+01 -6.45819e+01        00000 
 3.28138e+01 -5.86097e+01        00000 
 3.05386e+01 -6.46143e+01        00000 
 3.64183e+01 -6.47520e+01        00000 
 4.47045e+01 -5.91290e+01        00000 
 4.23533e+01 -6.49902e+01        00000 
 4.85038e+01 -6.51187e+01        00000 
-5.28586e+01 -8.68657e+01        00000 
-5.83738e+01 -9.42232e+01        00000 
-5.12596e+01 -9.35006e+01        00000 
-3.99101e+01 -8.61714e+01        00000 
-4.45659e+01 -9.30525e+01        00000 
-3.79483e+01 -9.28468e+01        00000 
-2.75931e+01 -8.57615e+01        00000 
-3.16639e+01 -9.27191e+01        00000 
-2.56372e+01 -9.26040e+01        00000 
-1.58354e+01 -8.54149e+01        00000 
-1.95662e+01 -9.23649e+01        00000 
-1.36933e+01 -9.22248e+01        00000 
-3.92701e+00 -8.48574e+01        00000 
-7.60749e+00 -9.20725e+01        00000 
-1.52223e+00 -9.18593e+01        00000 
 8.28434e+00 -8.44367e+01        00000 
 4.72082e+00 -9.18323e+01        00000 
 1.11376e+01 -9.15648e+01        00000 
 2.11795e+01 -8.39684e+01        00000 
 1.77946e+01 -9.14125e+01        00000 
 2.43425e+01 -9.13587e+01        00000 
 3.44909e+01 -8.37487e+01        00000 
 3.11160e+01 -9.10880e+01        00000 
 3.79793e+01 -9.08853e+01        00000 
 4.77810e+01 -8.38194e+01        00000 
 4.51365e+01 -9.10143e+01        00000 
 5.21999e+01 -9.11777e+01        00000 
-5.97639e+01 -1.17451e+02        00000 
-6.50718e+01 -1.26491e+02        00000 
-5.67151e+01 -1.26195e+02        00000 
-4.47260e+01 -1.16667e+02        00000 
-4.90449e+01 -1.26006e+02        00000 
-4.19698e+01 -1.25839e+02        00000 
-3.12706e+01 -1.16369e+02        00000 
-3.51556e+01 -1.25631e+02        00000 
-2.85232e+01 -1.25430e+02        00000 
-1.84742e+01 -1.16045e+02        00000 
-2.20991e+01 -1.25375e+02        00000 
-1.55160e+01 -1.25313e+02        00000 
-5.81505e+00 -1.16239e+02        00000 
-9.01434e+00 -1.25422e+02        00000 
-2.62853e+00 -1.25497e+02        00000 
 6.91900e+00 -1.16387e+02        00000 
 3.77099e+00 -1.25465e+02        00000 
 1.00249e+01 -1.25529e+02        00000 
 2.01679e+01 -1.16368e+02        00000 
 1.65473e+01 -1.25706e+02        00000 
 2.34942e+01 -1.25774e+02        00000 
 3.43407e+01 -1.16026e+02        00000 
 3.06207e+01 -1.25786e+02        00000 
 3.82758e+01 -1.25843e+02        00000 
 5.08514e+01 -1.15678e+02        00000 
 4.68820e+01 -1.25784e+02        00000 
 5.62670e+01 -1.25919e+02        00000 
-2.81952e+00  9.28145e-01        00000 
-4.81656e+00  7.99654e-01        00000 
-2.18205e+00  1.64888e+00        00000 
-3.54494e+00  1.87820e+00        00000 
-1.08464e+00  2.06157e+00        00000 
-2.21657e+00  2.36583e+00        00000 
-3.18055e-01  1.94622e+00        00000 
-8.37145e-01  2.19506e+00        00000 
 5.92139e-01  1.69434e+00        00000 
 6.27591e-01  1.95447e+00        00000 
 1.43703e+00  1.25314e+00        00000 
 1.91223e+00  1.38502e+00        00000 
 1.99143e+00  4.53435e-01        00000 
 2.84122e+00  5.25534e-01        00000 
 2.32221e+00 -3.51554e-01        00000 
 3.41774e+00 -2.94791e-01        00000 
 2.53348e+00 -1.44136e+00        00000 
 3.71629e+00 -1.16818e+00        00000 
-9.71540e+00 -1.88848e-01        00000 
-1.20783e+01 -2.01708e+00        00000 
-6.87962e+00  8.20132e-01        00000 
-8.81429e+00 -6.15431e-01        00000 
-3.50712e+00  1.36139e+00        00000 
-5.11467e+00  1.90022e-01        00000 
-4.82558e-01  1.18901e+00        00000 
-1.30412e+00  6.04737e-01        00000 
 2.16076e+00  5.78344e-01        00000 
 1.93508e+00  3.70717e-01        00000 
 4.23271e+00  1.44030e-01        00000 
 4.36598e+00 -3.02228e-01        00000 
 6.19322e+00 -5.12948e-01        00000 
 6.69943e+00 -1.14977e+00        00000 
 7.66716e+00 -1.28740e+00        00000 
 8.87174e+00 -2.11363e+00        00000 
 9.03087e+00 -2.75477e+00        00000 
 1.08650e+01 -3.74058e+00        00000 
-1.67168e+01 -6.12158e+00        00000 
-1.96009e+01 -8.49892e+00        00000 
-1.19262e+01 -4.64423e+00        00000 
-1.45807e+01 -7.04508e+00        00000 
-6.24978e+00 -3.75000e+00        00000 
-8.57806e+00 -6.00930e+00        00000 
-9.49129e-01 -3.32365e+00        00000 
-2.75019e+00 -5.33461e+00        00000 
 3.84605e+00 -3.18443e+00        00000 
 2.87301e+00 -4.71549e+00        00000 
 8.14413e+00 -3.86213e+00        00000 
 8.12778e+00 -4.90663e+00        00000 
 1.18108e+01 -4.92884e+00        00000 
 1.24659e+01 -5.95075e+00        00000 
 1.52100e+01 -6.45964e+00        00000 
 1.63754e+01 -7.36310e+00        00000 
 1.86535e+01 -8.38058e+00        00000 
 2.03090e+01 -9.50313e+00        00000 
-2.37773e+01 -1.58451e+01        00000 
-2.70525e+01 -1.93394e+01        00000 
-1.70068e+01 -1.43733e+01        00000 
-2.00645e+01 -1.78800e+01        00000 
-9.73127e+00 -1.32826e+01        00000 
-1.24398e+01 -1.68354e+01        00000 
-2.65453e+00 -1.21381e+01        00000 
-5.06551e+00 -1.58166e+01        00000 
 4.85483e+00 -1.12224e+01        00000 
 2.64754e+00 -1.47382e+01        00000 
 1.22622e+01 -1.10352e+01        00000 
 1.10071e+01 -1.40971e+01        00000 
 1.82759e+01 -1.19443e+01        00000 
 1.80999e+01 -1.43236e+01        00000 
 2.42329e+01 -1.36982e+01        00000 
 2.47600e+01 -1.55289e+01        00000 
 2.92722e+01 -1.57006e+01        00000 
 3.05845e+01 -1.72442e+01        00000 
-2.96503e+01 -2.94639e+01        00000 