<?xml version="1.0" encoding="utf-8"?>
<VTKFile byte_order="LittleEndian" type="UnstructuredGrid" version="0.1">
   <UnstructuredGrid>
      <Piece NumberOfCells="1296" NumberOfPoints="685">
         <Points>
            <DataArray Name="Points" NumberOfComponents="3" format="ascii" type="Float32">
0.0000 0.0000 0.0000
0.0000 0.1111 0.0000
0.0000 0.2222 0.0000
0.0000 0.3333 0.0000
0.0000 0.4444 0.0000
0.0000 0.5556 0.0000
0.0000 0.6667 0.0000
0.0000 0.7778 0.0000
0.0000 0.8889 0.0000
0.0000 1.0000 0.0000
0.2222 0.0000 0.0000
0.2222 0.1111 0.0000
0.2222 0.2222 0.0000
0.2222 0.3333 0.0000
0.2222 0.4444 0.0000
0.2222 0.5556 0.0000
0.2222 0.6667 0.0000
0.2222 0.7778 0.0000
0.2222 0.8889 0.0000
0.2222 1.0000 0.0000
0.4444 0.0000 0.0000
0.4444 0.1111 0.0000
0.4444 0.2222 0.0000
0.4444 0.3333 0.0000
0.4444 0.4444 0.0000
0.4444 0.5556 0.0000
0.4444 0.6667 0.0000
0.4444 0.7778 0.0000
0.4444 0.8889 0.0000
0.4444 1.0000 0.0000
0.6667 0.0000 0.0000
0.6667 0.1111 0.0000
0.6667 0.2222 0.0000
0.6667 0.3333 0.0000
0.6667 0.4444 0.0000
0.6667 0.5556 0.0000
0.6667 0.6667 0.0000
0.6667 0.7778 0.0000
0.6667 0.8889 0.0000
0.6667 1.0000 0.0000
0.8889 0.0000 0.0000
0.8889 0.1111 0.0000
0.8889 0.2222 0.0000
0.8889 0.3333 0.0000
0.8889 0.4444 0.0000
0.8889 0.5556 0.0000
0.8889 0.6667 0.0000
0.8889 0.7778 0.0000
0.8889 0.8889 0.0000
0.8889 1.0000 0.0000
1.1111 0.0000 0.0000
1.1111 0.1111 0.0000
1.1111 0.2222 0.0000
1.1111 0.3333 0.0000
1.1111 0.4444 0.0000
1.1111 0.5556 0.0000
1.1111 0.6667 0.0000
1.1111 0.7778 0.0000
1.1111 0.8889 0.0000
1.1111 1.0000 0.0000
1.3333 0.0000 0.0000
1.3333 0.1111 0.0000
1.3333 0.2222 0.0000
1.3333 0.3333 0.0000
1.3333 0.4444 0.0000
1.3333 0.5556 0.0000
1.3333 0.6667 0.0000
1.3333 0.7778 0.0000
1.3333 0.8889 0.0000
1.3333 1.0000 0.0000
1.5556 0.0000 0.0000
1.5556 0.1111 0.0000
1.5556 0.2222 0.0000
1.5556 0.3333 0.0000
1.5556 0.4444 0.0000
1.5556 0.5556 0.0000
1.5556 0.6667 0.0000
1.5556 0.7778 0.0000
1.5556 0.8889 0.0000
1.5556 1.0000 0.0000
1.7778 0.0000 0.0000
1.7778 0.1111 0.0000
1.7778 0.2222 0.0000
1.7778 0.3333 0.0000
1.7778 0.4444 0.0000
1.7778 0.5556 0.0000
1.7778 0.6667 0.0000
1.7778 0.7778 0.0000
1.7778 0.8889 0.0000
1.7778 1.0000 0.0000
2.0000 0.0000 0.0000
2.0000 0.1111 0.0000
2.0000 0.2222 0.0000
2.0000 0.3333 0.0000
2.0000 0.4444 0.0000
2.0000 0.5556 0.0000
2.0000 0.6667 0.0000
2.0000 0.7778 0.0000
2.0000 0.8889 0.0000
2.0000 1.0000 0.0000
0.1111 0.0556 0.0000
0.1111 0.1667 0.0000
0.1111 0.2778 0.0000
0.1111 0.3889 0.0000
0.1111 0.5000 0.0000
0.1111 0.6111 0.0000
0.1111 0.7222 0.0000
0.1111 0.8333 0.0000
0.1111 0.9444 0.0000
0.3333 0.0556 0.0000
0.3333 0.1667 0.0000
0.3333 0.2778 0.0000
0.3333 0.3889 0.0000
0.3333 0.5000 0.0000
0.3333 0.6111 0.0000
0.3333 0.7222 0.0000
0.3333 0.8333 0.0000
0.3333 0.9444 0.0000
0.5556 0.0556 0.0000
0.5556 0.1667 0.0000
0.5556 0.2778 0.0000
0.5556 0.3889 0.0000
0.5556 0.5000 0.0000
0.5556 0.6111 0.0000
0.5556 0.7222 0.0000
0.5556 0.8333 0.0000
0.5556 0.9444 0.0000
0.7778 0.0556 0.0000
0.7778 0.1667 0.0000
0.7778 0.2778 0.0000
0.7778 0.3889 0.0000
0.7778 0.5000 0.0000
0.7778 0.6111 0.0000
0.7778 0.7222 0.0000
0.7778 0.8333 0.0000
0.7778 0.9444 0.0000
1.0000 0.0556 0.0000
1.0000 0.1667 0.0000
1.0000 0.2778 0.0000
1.0000 0.3889 0.0000
1.0000 0.5000 0.0000
1.0000 0.6111 0.0000
1.0000 0.7222 0.0000
1.0000 0.8333 0.0000
1.0000 0.9444 0.0000
1.2222 0.0556 0.0000
1.2222 0.1667 0.0000
1.2222 0.2778 0.0000
1.2222 0.3889 0.0000
1.2222 0.5000 0.0000
1.2222 0.6111 0.0000
1.2222 0.7222 0.0000
1.2222 0.8333 0.0000
1.2222 0.9444 0.0000
1.4444 0.0556 0.0000
1.4444 0.1667 0.0000
1.4444 0.2778 0.0000
1.4444 0.3889 0.0000
1.4444 0.5000 0.0000
1.4444 0.6111 0.0000
1.4444 0.7222 0.0000
1.4444 0.8333 0.0000
1.4444 0.9444 0.0000
1.6667 0.0556 0.0000
1.6667 0.1667 0.0000
1.6667 0.2778 0.0000
1.6667 0.3889 0.0000
1.6667 0.5000 0.0000
1.6667 0.6111 0.0000
1.6667 0.7222 0.0000
1.6667 0.8333 0.0000
1.6667 0.9444 0.0000
1.8889 0.0556 0.0000
1.8889 0.1667 0.0000
1.8889 0.2778 0.0000
1.8889 0.3889 0.0000
1.8889 0.5000 0.0000
1.8889 0.6111 0.0000
1.8889 0.7222 0.0000
1.8889 0.8333 0.0000
1.8889 0.9444 0.0000
0.0000 0.0556 0.0000
0.0556 0.0278 0.0000
0.0556 0.0833 0.0000
0.0000 0.1667 0.0000
0.0556 0.1389 0.0000
0.0556 0.1944 0.0000
0.0000 0.2778 0.0000
0.0556 0.2500 0.0000
0.0556 0.3056 0.0000
0.0000 0.3889 0.0000
0.0556 0.3611 0.0000
0.0556 0.4167 0.0000
0.0000 0.5000 0.0000
0.0556 0.4722 0.0000
0.0556 0.5278 0.0000
0.0000 0.6111 0.0000
0.0556 0.5833 0.0000
0.0556 0.6389 0.0000
0.0000 0.7222 0.0000
0.0556 0.6944 0.0000
0.0556 0.7500 0.0000
0.0000 0.8333 0.0000
0.0556 0.8056 0.0000
0.0556 0.8611 0.0000
0.0000 0.9444 0.0000
0.0556 0.9167 0.0000
0.0556 0.9722 0.0000
0.2222 0.0556 0.0000
0.2778 0.0278 0.0000
0.2778 0.0833 0.0000
0.2222 0.1667 0.0000
0.2778 0.1389 0.0000
0.2778 0.1944 0.0000
0.2222 0.2778 0.0000
0.2778 0.2500 0.0000
0.2778 0.3056 0.0000
0.2222 0.3889 0.0000
0.2778 0.3611 0.0000
0.2778 0.4167 0.0000
0.2222 0.5000 0.0000
0.2778 0.4722 0.0000
0.2778 0.5278 0.0000
0.2222 0.6111 0.0000
0.2778 0.5833 0.0000
0.2778 0.6389 0.0000
0.2222 0.7222 0.0000
0.2778 0.6944 0.0000
0.2778 0.7500 0.0000
0.2222 0.8333 0.0000
0.2778 0.8056 0.0000
0.2778 0.8611 0.0000
0.2222 0.9444 0.0000
0.2778 0.9167 0.0000
0.2778 0.9722 0.0000
0.4444 0.0556 0.0000
0.5000 0.0278 0.0000
0.5000 0.0833 0.0000
0.4444 0.1667 0.0000
0.5000 0.1389 0.0000
0.5000 0.1944 0.0000
0.4444 0.2778 0.0000
0.5000 0.2500 0.0000
0.5000 0.3056 0.0000
0.4444 0.3889 0.0000
0.5000 0.3611 0.0000
0.5000 0.4167 0.0000
0.4444 0.5000 0.0000
0.5000 0.4722 0.0000
0.5000 0.5278 0.0000
0.4444 0.6111 0.0000
0.5000 0.5833 0.0000
0.5000 0.6389 0.0000
0.4444 0.7222 0.0000
0.5000 0.6944 0.0000
0.5000 0.7500 0.0000
0.4444 0.8333 0.0000
0.5000 0.8056 0.0000
0.5000 0.8611 0.0000
0.4444 0.9444 0.0000
0.5000 0.9167 0.0000
0.5000 0.9722 0.0000
0.6667 0.0556 0.0000
0.7222 0.0278 0.0000
0.7222 0.0833 0.0000
0.6667 0.1667 0.0000
0.7222 0.1389 0.0000
0.7222 0.1944 0.0000
0.6667 0.2778 0.0000
0.7222 0.2500 0.0000
0.7222 0.3056 0.0000
0.6667 0.3889 0.0000
0.7222 0.3611 0.0000
0.7222 0.4167 0.0000
0.6667 0.5000 0.0000
0.7222 0.4722 0.0000
0.7222 0.5278 0.0000
0.6667 0.6111 0.0000
0.7222 0.5833 0.0000
0.7222 0.6389 0.0000
0.6667 0.7222 0.0000
0.7222 0.6944 0.0000
0.7222 0.7500 0.0000
0.6667 0.8333 0.0000
0.7222 0.8056 0.0000
0.7222 0.8611 0.0000
0.6667 0.9444 0.0000
0.7222 0.9167 0.0000
0.7222 0.9722 0.0000
0.8889 0.0556 0.0000
0.9444 0.0278 0.0000
0.9444 0.0833 0.0000
0.8889 0.1667 0.0000
0.9444 0.1389 0.0000
0.9444 0.1944 0.0000
0.8889 0.2778 0.0000
0.9444 0.2500 0.0000
0.9444 0.3056 0.0000
0.8889 0.3889 0.0000
0.9444 0.3611 0.0000
0.9444 0.4167 0.0000
0.8889 0.5000 0.0000
0.9444 0.4722 0.0000
0.9444 0.5278 0.0000
0.8889 0.6111 0.0000
0.9444 0.5833 0.0000
0.9444 0.6389 0.0000
0.8889 0.7222 0.0000
0.9444 0.6944 0.0000
0.9444 0.7500 0.0000
0.8889 0.8333 0.0000
0.9444 0.8056 0.0000
0.9444 0.8611 0.0000
0.8889 0.9444 0.0000
0.9444 0.9167 0.0000
0.9444 0.9722 0.0000
1.1111 0.0556 0.0000
1.1667 0.0278 0.0000
1.1667 0.0833 0.0000
1.1111 0.1667 0.0000
1.1667 0.1389 0.0000
1.1667 0.1944 0.0000
1.1111 0.2778 0.0000
1.1667 0.2500 0.0000
1.1667 0.3056 0.0000
1.1111 0.3889 0.0000
1.1667 0.3611 0.0000
1.1667 0.4167 0.0000
1.1111 0.5000 0.0000
1.1667 0.4722 0.0000
1.1667 0.5278 0.0000
1.1111 0.6111 0.0000
1.1667 0.5833 0.0000
1.1667 0.6389 0.0000
1.1111 0.7222 0.0000
1.1667 0.6944 0.0000
1.1667 0.7500 0.0000
1.1111 0.8333 0.0000
1.1667 0.8056 0.0000
1.1667 0.8611 0.0000
1.1111 0.9444 0.0000
1.1667 0.9167 0.0000
1.1667 0.9722 0.0000
1.3333 0.0556 0.0000
1.3889 0.0278 0.0000
1.3889 0.0833 0.0000
1.3333 0.1667 0.0000
1.3889 0.1389 0.0000
1.3889 0.1944 0.0000
1.3333 0.2778 0.0000
1.3889 0.2500 0.0000
1.3889 0.3056 0.0000
1.3333 0.3889 0.0000
1.3889 0.3611 0.0000
1.3889 0.4167 0.0000
1.3333 0.5000 0.0000
1.3889 0.4722 0.0000
1.3889 0.5278 0.0000
1.3333 0.6111 0.0000
1.3889 0.5833 0.0000
1.3889 0.6389 0.0000
1.3333 0.7222 0.0000
1.3889 0.6944 0.0000
1.3889 0.7500 0.0000
1.3333 0.8333 0.0000
1.3889 0.8056 0.0000
1.3889 0.8611 0.0000
1.3333 0.9444 0.0000
1.3889 0.9167 0.0000
1.3889 0.9722 0.0000
1.5556 0.0556 0.0000
1.6111 0.0278 0.0000
1.6111 0.0833 0.0000
1.5556 0.1667 0.0000
1.6111 0.1389 0.0000
1.6111 0.1944 0.0000
1.5556 0.2778 0.0000
1.6111 0.2500 0.0000
1.6111 0.3056 0.0000
1.5556 0.3889 0.0000
1.6111 0.3611 0.0000
1.6111 0.4167 0.0000
1.5556 0.5000 0.0000
1.6111 0.4722 0.0000
1.6111 0.5278 0.0000
1.5556 0.6111 0.0000
1.6111 0.5833 0.0000
1.6111 0.6389 0.0000
1.5556 0.7222 0.0000
1.6111 0.6944 0.0000
1.6111 0.7500 0.0000
1.5556 0.8333 0.0000
1.6111 0.8056 0.0000
1.6111 0.8611 0.0000
1.5556 0.9444 0.0000
1.6111 0.9167 0.0000
1.6111 0.9722 0.0000
1.7778 0.0556 0.0000
1.8333 0.0278 0.0000
1.8333 0.0833 0.0000
1.7778 0.1667 0.0000
1.8333 0.1389 0.0000
1.8333 0.1944 0.0000
1.7778 0.2778 0.0000
1.8333 0.2500 0.0000
1.8333 0.3056 0.0000
1.7778 0.3889 0.0000
1.8333 0.3611 0.0000
1.8333 0.4167 0.0000
1.7778 0.5000 0.0000
1.8333 0.4722 0.0000
1.8333 0.5278 0.0000
1.7778 0.6111 0.0000
1.8333 0.5833 0.0000
1.8333 0.6389 0.0000
1.7778 0.7222 0.0000
1.8333 0.6944 0.0000
1.8333 0.7500 0.0000
1.7778 0.8333 0.0000
1.8333 0.8056 0.0000
1.8333 0.8611 0.0000
1.7778 0.9444 0.0000
1.8333 0.9167 0.0000
1.8333 0.9722 0.0000
0.1111 0.1111 0.0000
0.1667 0.0833 0.0000
0.1111 0.2222 0.0000
0.1667 0.1944 0.0000
0.1111 0.3333 0.0000
0.1667 0.3056 0.0000
0.1111 0.4444 0.0000
0.1667 0.4167 0.0000
0.1111 0.5556 0.0000
0.1667 0.5278 0.0000
0.1111 0.6667 0.0000
0.1667 0.6389 0.0000
0.1111 0.7778 0.0000
0.1667 0.7500 0.0000
0.1111 0.8889 0.0000
0.1667 0.8611 0.0000
0.1111 1.0000 0.0000
0.1667 0.9722 0.0000
0.3333 0.1111 0.0000
0.3889 0.0833 0.0000
0.3333 0.2222 0.0000
0.3889 0.1944 0.0000
0.3333 0.3333 0.0000
0.3889 0.3056 0.0000
0.3333 0.4444 0.0000
0.3889 0.4167 0.0000
0.3333 0.5556 0.0000
0.3889 0.5278 0.0000
0.3333 0.6667 0.0000
0.3889 0.6389 0.0000
0.3333 0.7778 0.0000
0.3889 0.7500 0.0000
0.3333 0.8889 0.0000
0.3889 0.8611 0.0000
0.3333 1.0000 0.0000
0.3889 0.9722 0.0000
0.5556 0.1111 0.0000
[...]
         <PointData>
            <DataArray Name="fValues" NumberOfComponents="3" format="ascii" type="Float64">
-2.44753e-15        00000        00000 
-3.63150e-16  4.95205e-16        00000 
 8.72421e-16  5.87287e-16        00000 
-5.26052e-16        00000        00000 
-5.51060e-16 -1.06911e-15        00000 
 6.57565e-17 -5.26052e-16        00000 
 4.70340e-16 -4.16704e-16        00000 
 1.05115e-15  2.95637e-16        00000 
 1.84921e-15 -1.32086e-16        00000 
-3.67130e-15  6.11883e-16        00000 
-4.97919e+01 -3.78635e+01        00000 
-3.38790e+01 -2.91154e+01        00000 
-2.20874e+01 -2.29589e+01        00000 
-1.25953e+01 -1.93935e+01        00000 
-4.10660e+00 -1.77751e+01        00000 
 4.09466e+00 -1.77730e+01        00000 
 1.25846e+01 -1.93885e+01        00000 
 2.20792e+01 -2.29509e+01        00000 
 3.38701e+01 -2.91053e+01        00000 
 4.97793e+01 -3.78511e+01        00000 
-9.06224e+01 -8.04581e+01        00000 
-6.66957e+01 -7.28566e+01        00000 
-4.54770e+01 -6.69359e+01        00000 
-2.64143e+01 -6.29691e+01        00000 
-8.66766e+00 -6.10002e+01        00000 
 8.64568e+00 -6.09978e+01        00000 
 2.63927e+01 -6.29629e+01        00000 
 4.54585e+01 -6.69270e+01        00000 
 6.66803e+01 -7.28442e+01        00000 
 9.06086e+01 -8.04437e+01        00000 
-1.26671e+02 -1.39241e+02        00000 
-9.49391e+01 -1.32700e+02        00000 
-6.58515e+01 -1.27650e+02        00000 
-3.87129e+01 -1.24241e+02        00000 
-1.27787e+01 -1.22525e+02        00000 
 1.27476e+01 -1.22524e+02        00000 
 3.86812e+01 -1.24240e+02        00000 
 6.58215e+01 -1.27647e+02        00000 
 9.49127e+01 -1.32695e+02        00000 
 1.26648e+02 -1.39232e+02        00000 
-1.57375e+02 -2.12826e+02        00000 
-1.18846e+02 -2.07366e+02        00000 
-8.29840e+01 -2.03175e+02        00000 
-4.90280e+01 -2.00363e+02        00000 
-1.62258e+01 -1.98954e+02        00000 
 1.61892e+01 -1.98955e+02        00000 
 4.89911e+01 -2.00366e+02        00000 
 8.29472e+01 -2.03178e+02        00000 
 1.18810e+02 -2.07370e+02        00000 
 1.57338e+02 -2.12828e+02        00000 
-1.82536e+02 -2.98848e+02        00000 
-1.38419e+02 -2.94477e+02        00000 
-9.69696e+01 -2.91130e+02        00000 
-5.74229e+01 -2.88896e+02        00000 
-1.90250e+01 -2.87781e+02        00000 
 1.89888e+01 -2.87782e+02        00000 
 5.73858e+01 -2.88898e+02        00000 
 9.69300e+01 -2.91133e+02        00000 
 1.38377e+02 -2.94481e+02        00000 
 1.82492e+02 -2.98852e+02        00000 
-2.02134e+02 -3.94800e+02        00000 
-1.53653e+02 -3.91514e+02        00000 
-1.07816e+02 -3.89026e+02        00000 
-6.39036e+01 -3.87395e+02        00000 
-2.11794e+01 -3.86593e+02        00000 
 2.11428e+01 -3.86594e+02        00000 
 6.38672e+01 -3.87397e+02        00000 
 1.07778e+02 -3.89030e+02        00000 
 1.53613e+02 -3.91518e+02        00000 
 2.02095e+02 -3.94805e+02        00000 
-2.16308e+02 -4.98203e+02        00000 
-1.64560e+02 -4.95977e+02        00000 
-1.15407e+02 -4.94403e+02        00000 
-6.83422e+01 -4.93447e+02        00000 
-2.26358e+01 -4.92999e+02        00000 
 2.26036e+01 -4.93001e+02        00000 
 6.83123e+01 -4.93451e+02        00000 
 1.15376e+02 -4.94409e+02        00000 
 1.64527e+02 -4.95986e+02        00000 
 2.16273e+02 -4.98213e+02        00000 
-2.25727e+02 -6.07057e+02        00000 
-1.71076e+02 -6.05852e+02        00000 
-1.19483e+02 -6.05128e+02        00000 
-7.05920e+01 -6.04614e+02        00000 
-2.33543e+01 -6.04329e+02        00000 
 2.33326e+01 -6.04330e+02        00000 
 7.05690e+01 -6.04615e+02        00000 
 1.19458e+02 -6.05128e+02        00000 
 1.71048e+02 -6.05852e+02        00000 
 2.25699e+02 -6.07057e+02        00000 
-2.31532e+02 -7.25405e+02        00000 
-1.73790e+02 -7.22585e+02        00000 
-1.21370e+02 -7.19228e+02        00000 
-7.17900e+01 -7.16650e+02        00000 
-2.37656e+01 -7.15274e+02        00000 
 2.37494e+01 -7.15271e+02        00000 
 7.17676e+01 -7.16644e+02        00000 
 1.21346e+02 -7.19223e+02        00000 
 1.73767e+02 -7.22584e+02        00000 
 2.31513e+02 -7.25408e+02        00000 
-2.01498e+01 -1.61176e+01        00000 
-1.28605e+01 -9.83444e+00        00000 
-8.00127e+00 -6.78770e+00        00000 
-3.87229e+00 -5.33338e+00        00000 
-3.02767e-03 -4.89710e+00        00000 
 3.86669e+00 -5.33079e+00        00000 
 7.99712e+00 -6.78293e+00        00000 
 1.28570e+01 -9.82889e+00        00000 
 2.01438e+01 -1.61105e+01        00000 
-6.04593e+01 -5.29134e+01        00000 
-4.21273e+01 -4.56141e+01        00000 
-2.66101e+01 -4.04655e+01        00000 
-1.28999e+01 -3.75103e+01        00000 
-8.90076e-03 -3.65531e+01        00000 
 1.28831e+01 -3.75059e+01        00000 
 2.65958e+01 -4.04574e+01        00000 
 4.21154e+01 -4.56036e+01        00000 
 6.04465e+01 -5.29008e+01        00000 
-9.49570e+01 -1.04158e+02        00000 
-6.84258e+01 -9.78346e+01        00000 
-4.42361e+01 -9.32211e+01        00000 
-2.17013e+01 -9.04280e+01        00000 
-1.39353e-02 -8.94943e+01        00000 
 2.16741e+01 -9.04251e+01        00000 
 4.42102e+01 -9.32155e+01        00000 
 6.84035e+01 -9.78262e+01        00000 
 9.49388e+01 -1.04147e+02        00000 
-1.24690e+02 -1.71171e+02        00000 
-9.08393e+01 -1.65828e+02        00000 
-5.92714e+01 -1.61960e+02        00000 
-2.92509e+01 -1.59624e+02        00000 
-1.71046e-02 -1.58843e+02        00000 
 2.92166e+01 -1.59624e+02        00000 
 5.92363e+01 -1.61961e+02        00000 
 9.08056e+01 -1.65829e+02        00000 
 1.24659e+02 -1.71169e+02        00000 
-1.49528e+02 -2.51854e+02        00000 
-1.09486e+02 -2.47483e+02        00000 
-7.17242e+01 -2.44335e+02        00000 
-3.54876e+01 -2.42443e+02        00000 
-1.82339e-02 -2.41812e+02        00000 
 3.54510e+01 -2.42445e+02        00000 
 7.16857e+01 -2.44340e+02        00000 
 1.09447e+02 -2.47489e+02        00000 
 1.49488e+02 -2.51859e+02        00000 
-1.69419e+02 -3.43727e+02        00000 
-1.24399e+02 -3.40330e+02        00000 
-8.16558e+01 -3.37899e+02        00000 
-4.04483e+01 -3.36449e+02        00000 
-1.82520e-02 -3.35969e+02        00000 
 4.04118e+01 -3.36450e+02        00000 
 8.16175e+01 -3.37901e+02        00000 
 1.24359e+02 -3.40334e+02        00000 
 1.69376e+02 -3.43731e+02        00000 
-1.84392e+02 -4.44266e+02        00000 
-1.35552e+02 -4.41853e+02        00000 
-8.90087e+01 -4.40188e+02        00000 
-4.40896e+01 -4.39231e+02        00000 
-1.84110e-02 -4.38921e+02        00000 
 4.40542e+01 -4.39234e+02        00000 
 8.89734e+01 -4.40192e+02        00000 
 1.35516e+02 -4.41860e+02        00000 
 1.84355e+02 -4.44274e+02        00000 
-1.94626e+02 -5.51076e+02        00000 
-1.42814e+02 -5.49676e+02        00000 
-9.35653e+01 -5.48833e+02        00000 
-4.62772e+01 -5.48374e+02        00000 
-1.37243e-02 -5.48227e+02        00000 
 4.62511e+01 -5.48376e+02        00000 
 9.35402e+01 -5.48836e+02        00000 
 1.42787e+02 -5.49680e+02        00000 
 1.94595e+02 -5.51081e+02        00000 
-2.00297e+02 -6.63446e+02        00000 
-1.46032e+02 -6.62564e+02        00000 
-9.54739e+01 -6.61494e+02        00000 
-4.71941e+01 -6.60669e+02        00000 
-8.38695e-03 -6.60364e+02        00000 
 4.71739e+01 -6.60668e+02        00000 
 9.54497e+01 -6.61492e+02        00000 
 1.46007e+02 -6.62561e+02        00000 
 2.00273e+02 -6.63444e+02        00000 
 2.15329e-15 -6.11853e-16        00000 
-1.10126e+01 -8.41658e+00        00000 
-8.35977e+00 -5.92757e+00        00000 
-3.95204e-16  1.90052e-15        00000 
-6.74327e+00 -4.36871e+00        00000 
-5.46543e+00 -3.31222e+00        00000 
-2.49800e-16  4.99600e-16        00000 
-4.34534e+00 -2.57401e+00        00000 
-3.31292e+00 -2.05772e+00        00000 
-1.57957e-16  4.27986e-16        00000 
-2.33492e+00 -1.70715e+00        00000 
-1.38915e+00 -1.48894e+00        00000 
 2.18575e-16 -2.49800e-16        00000 
-4.61957e-01 -1.38407e+00        00000 
 4.59533e-01 -1.38370e+00        00000 
 2.96310e-16 -1.80349e-16        00000 
 1.38679e+00 -1.48789e+00        00000 
 2.33221e+00 -1.70518e+00        00000 
 4.99600e-16 -1.37390e-15        00000 
 3.31074e+00 -2.05483e+00        00000 
 4.34338e+00 -2.57106e+00        00000 
-7.49401e-16        00000        00000 
 5.46371e+00 -3.30916e+00        00000 
 6.74113e+00 -4.36565e+00        00000 
-8.58035e-16 -4.97800e-16        00000 
 8.35727e+00 -5.92410e+00        00000 
 1.10091e+01 -8.41277e+00        00000 
-4.13663e+01 -3.33058e+01        00000 
-5.56526e+01 -4.50389e+01        00000 
-4.67193e+01 -4.06578e+01        00000 
-2.75717e+01 -2.56679e+01        00000 
-3.86390e+01 -3.68252e+01        00000 
-3.14463e+01 -3.36442e+01        00000 
-1.71566e+01 -2.08986e+01        00000 
-2.49464e+01 -3.11076e+01        00000 
-1.89516e+01 -2.91671e+01        00000 
-8.27701e+00 -1.83696e+01        00000 
-1.33100e+01 -2.77662e+01        00000 
-7.90153e+00 -2.68589e+01        00000 
-6.34471e-03 -1.75794e+01        00000 
-2.62468e+00 -2.64125e+01        00000 
 2.60943e+00 -2.64113e+01        00000 
 8.26556e+00 -1.83662e+01        00000 
 7.88702e+00 -2.68554e+01        00000 
 1.32963e+01 -2.77609e+01        00000 
 1.71468e+01 -2.08923e+01        00000 
 1.89388e+01 -2.91600e+01        00000 
 2.49346e+01 -3.10995e+01        00000 
 2.75633e+01 -2.56586e+01        00000 
 3.14356e+01 -3.36347e+01        00000 
 3.86285e+01 -3.68150e+01        00000 
 4.13553e+01 -3.32943e+01        00000 
 4.67079e+01 -4.06464e+01        00000 
 5.56396e+01 -4.50265e+01        00000 
-7.82971e+01 -7.64784e+01        00000 
-9.33435e+01 -9.19399e+01        00000 
-8.03831e+01 -8.80977e+01        00000 
-5.57740e+01 -6.96627e+01        00000 
-6.81146e+01 -8.47526e+01        00000 
-5.64814e+01 -8.18768e+01        00000 
-3.57253e+01 -6.47017e+01        00000 
-4.54120e+01 -7.94706e+01        00000 
-3.48200e+01 -7.75421e+01        00000 
-1.74321e+01 -6.17368e+01        00000 
-2.46050e+01 -7.60958e+01        00000 
-1.46600e+01 -7.51322e+01        00000 
-1.08913e-02 -6.07542e+01        00000 
-4.87752e+00 -7.46503e+01        00000 
 4.85207e+00 -7.46493e+01        00000 
 1.74100e+01 -6.17326e+01        00000 
 1.46350e+01 -7.51292e+01        00000 
 2.45801e+01 -7.60914e+01        00000 
 3.57047e+01 -6.46943e+01        00000 
 3.47962e+01 -7.75365e+01        00000 
 4.53894e+01 -7.94632e+01        00000 
 5.57570e+01 -6.96518e+01        00000 
 5.64604e+01 -8.18676e+01        00000 
 6.80957e+01 -8.47421e+01        00000 
 7.82826e+01 -7.64643e+01        00000 
 8.03663e+01 -8.80859e+01        00000 
 9.33283e+01 -9.19271e+01        00000 
-1.10428e+02 -1.35807e+02        00000 
-1.26179e+02 -1.54871e+02        00000 
-1.09428e+02 -1.51583e+02        00000 
-8.01082e+01 -1.29975e+02        00000 
-9.33797e+01 -1.48738e+02        00000 
-7.79468e+01 -1.46304e+02        00000 
-5.20835e+01 -1.25737e+02        00000 
-6.30414e+01 -1.44271e+02        00000 
-4.85741e+01 -1.42640e+02        00000 
-2.56442e+01 -1.23169e+02        00000 
-3.44513e+01 -1.41413e+02        00000 
-2.05770e+01 -1.40594e+02        00000 
-1.61347e-02 -1.22309e+02        00000 
-6.85347e+00 -1.40183e+02        00000 
 6.82035e+00 -1.40183e+02        00000 
 2.56122e+01 -1.23168e+02        00000 
 2.05441e+01 -1.40593e+02        00000 
 3.44178e+01 -1.41413e+02        00000 
 5.20518e+01 -1.25735e+02        00000 
 4.85406e+01 -1.42640e+02        00000 
 6.30078e+01 -1.44271e+02        00000 
 8.00797e+01 -1.29971e+02        00000 
 7.79146e+01 -1.46302e+02        00000 
 9.33493e+01 -1.48736e+02        00000 
 1.10403e+02 -1.35799e+02        00000 
 1.09400e+02 -1.51579e+02        00000 
 1.26152e+02 -1.54866e+02        00000 
-1.37726e+02 -2.09956e+02        00000 
-1.53876e+02 -2.32049e+02        00000 
-1.33875e+02 -2.29329e+02        00000 
-1.00630e+02 -2.05100e+02        00000 
-1.14583e+02 -2.26979e+02        00000 
-9.59086e+01 -2.24975e+02        00000 
-6.58146e+01 -2.01595e+02        00000 
-7.77572e+01 -2.23306e+02        00000 
-6.00347e+01 -2.21971e+02        00000 
-3.25299e+01 -1.99483e+02        00000 
-4.26466e+01 -2.20970e+02        00000 
-2.54992e+01 -2.20303e+02        00000 
-1.83578e-02 -1.98778e+02        00000 
-8.49602e+00 -2.19969e+02        00000 
 8.45919e+00 -2.19969e+02        00000 
 3.24932e+01 -1.99484e+02        00000 
 2.54622e+01 -2.20304e+02        00000 
 4.26095e+01 -2.20973e+02        00000 
 6.57775e+01 -2.01597e+02        00000 
 5.99970e+01 -2.21975e+02        00000 
 7.77194e+01 -2.23310e+02        00000 
 1.00593e+02 -2.05104e+02        00000 
 9.58709e+01 -2.24980e+02        00000 
 1.14545e+02 -2.26985e+02        00000 
 1.37690e+02 -2.09959e+02        00000 
 1.33836e+02 -2.29334e+02        00000 
 1.53837e+02 -2.32053e+02        00000 
-1.60092e+02 -2.96550e+02        00000 
-1.76324e+02 -3.21043e+02        00000 
-1.53683e+02 -3.18894e+02        00000 
-1.17409e+02 -2.92666e+02        00000 
-1.31750e+02 -3.17040e+02        00000 
-1.10434e+02 -3.15461e+02        00000 
-7.70052e+01 -2.89873e+02        00000 
-8.96400e+01 -3.14151e+02        00000 
-6.92754e+01 -3.13106e+02        00000 
-3.81277e+01 -2.88199e+02        00000 
-4.92465e+01 -3.12324e+02        00000 
-2.94586e+01 -3.11804e+02        00000 
-1.83834e-02 -2.87642e+02        00000 
-9.81585e+00 -3.11545e+02        00000 
 9.77890e+00 -3.11545e+02        00000 
 3.80913e+01 -2.88200e+02        00000 
 2.94223e+01 -3.11805e+02        00000 
 4.92096e+01 -3.12326e+02        00000 
 7.69669e+01 -2.89875e+02        00000 
 6.92377e+01 -3.13108e+02        00000 
 8.96008e+01 -3.14154e+02        00000 
 1.17369e+02 -2.92669e+02        00000 
 1.10394e+02 -3.15465e+02        00000 
 1.31710e+02 -3.17044e+02        00000 
 1.60048e+02 -2.96554e+02        00000 
 1.53640e+02 -3.18899e+02        00000 
 1.76280e+02 -3.21048e+02        00000 
-1.77515e+02 -3.93070e+02        00000 
-1.93534e+02 -4.19336e+02        00000 
-1.68857e+02 -4.17754e+02        00000 
-1.30449e+02 -3.90163e+02        00000 
-1.44875e+02 -4.16399e+02        00000 
-1.21507e+02 -4.15258e+02        00000 
-8.56644e+01 -3.88104e+02        00000 
-9.86687e+01 -4.14323e+02        00000 
-7.62734e+01 -4.13589e+02        00000 
-4.24414e+01 -3.86892e+02        00000 
-5.42295e+01 -4.13046e+02        00000 
-3.24418e+01 -4.12688e+02        00000 
-1.87327e-02 -3.86494e+02        00000 
-1.08087e+01 -4.12511e+02        00000 
 1.07718e+01 -4.12511e+02        00000 
 4.24046e+01 -3.86893e+02        00000 
 3.24050e+01 -4.12689e+02        00000 
 5.41935e+01 -4.13047e+02        00000 
 8.56265e+01 -3.88107e+02        00000 
 7.62368e+01 -4.13591e+02        00000 
 9.86316e+01 -4.14327e+02        00000 
 1.30410e+02 -3.90167e+02        00000 
 1.21470e+02 -4.15262e+02        00000 
 1.44837e+02 -4.16404e+02        00000 
 1.77474e+02 -3.93075e+02        00000 
 1.68818e+02 -4.17760e+02        00000 
 1.93495e+02 -4.19343e+02        00000 
-1.90080e+02 -4.97018e+02        00000 
-2.05683e+02 -5.24483e+02        00000 
-1.79468e+02 -5.23444e+02        00000 
-1.39687e+02 -4.95106e+02        00000 
-1.53916e+02 -5.22598e+02        00000 
-1.28999e+02 -5.21928e+02        00000 
-9.16540e+01 -4.93855e+02        00000 
-1.04670e+02 -5.21409e+02        00000 
-8.08529e+01 -5.21017e+02        00000 
-4.53727e+01 -4.93165e+02        00000 
-5.74514e+01 -5.20735e+02        00000 
-3.43544e+01 -5.20554e+02        00000 
-1.62032e-02 -4.92945e+02        00000 
-1.14408e+01 -5.20465e+02        00000 
 1.14105e+01 -5.20465e+02        00000 
 4.53417e+01 -4.93168e+02        00000 
 3.43244e+01 -5.20555e+02        00000 
 5.74233e+01 -5.20738e+02        00000 
 9.16241e+01 -4.93860e+02        00000 
 8.08256e+01 -5.21020e+02        00000 
 1.04642e+02 -5.21413e+02        00000 
 1.39655e+02 -4.95113e+02        00000 
 1.28970e+02 -5.21933e+02        00000 
 1.53885e+02 -5.22605e+02        00000 
 1.90047e+02 -4.97027e+02        00000 
 1.79437e+02 -5.23451e+02        00000 
 2.05651e+02 -5.24490e+02        00000 
-1.98083e+02 -6.06360e+02        00000 
-2.13420e+02 -6.34945e+02        00000 
-1.85547e+02 -6.34427e+02        00000 
-1.44886e+02 -6.05458e+02        00000 
-1.58642e+02 -6.34028e+02        00000 
-1.32668e+02 -6.33657e+02        00000 
-9.47617e+01 -6.04846e+02        00000 
-1.07489e+02 -6.33299e+02        00000 
-8.29527e+01 -6.32972e+02        00000 
-4.68360e+01 -6.04438e+02        00000 
-5.89082e+01 -6.32701e+02        00000 
-3.52107e+01 -6.32508e+02        00000 
-1.10178e-02 -6.04292e+02        00000 
-1.17202e+01 -6.32407e+02        00000 
 1.17007e+01 -6.32408e+02        00000 
 4.68130e+01 -6.04440e+02        00000 
 3.51902e+01 -6.32509e+02        00000 
 5.88858e+01 -6.32702e+02        00000 
 9.47383e+01 -6.04847e+02        00000 
 8.29290e+01 -6.32973e+02        00000 
 1.07465e+02 -6.33298e+02        00000 
 1.44860e+02 -6.05457e+02        00000 
 1.32643e+02 -6.33655e+02        00000 
 1.58616e+02 -6.34026e+02        00000 
 1.98055e+02 -6.06359e+02        00000 
 1.85521e+02 -6.34424e+02        00000 
 2.13395e+02 -6.34944e+02        00000 
-1.59465e+01 -1.23856e+01        00000 
-2.77748e+01 -2.24196e+01        00000 
-1.02894e+01 -8.04852e+00        00000 
-1.80416e+01 -1.59341e+01        00000 
-5.88402e+00 -5.91094e+00        00000 
-1.07981e+01 -1.24019e+01        00000 
-1.92284e+00 -5.00459e+00        00000 
-4.49748e+00 -1.07215e+01        00000 
 1.91728e+00 -5.00313e+00        00000 
 1.48496e+00 -1.04052e+01        00000 
 5.87888e+00 -5.90706e+00        00000 
 7.56973e+00 -1.13679e+01        00000 
 1.02862e+01 -8.04320e+00        00000 
 1.42367e+01 -1.38795e+01        00000 
 1.59418e+01 -1.23795e+01        00000 
 2.24079e+01 -1.87009e+01        00000 
 2.77797e+01 -2.16781e+01        00000 
 3.49535e+01 -2.72145e+01        00000 
-5.09099e+01 -4.90277e+01        00000 
-6.41469e+01 -6.23389e+01        00000 
-3.40726e+01 -4.27552e+01        00000 
-4.43941e+01 -5.56604e+01        00000 
-1.95966e+01 -3.87266e+01        00000 
-2.70925e+01 -5.10864e+01        00000 
-6.40538e+00 -3.67915e+01        00000 
-1.13499e+01 -4.86025e+01        00000 
 6.38774e+00 -3.67893e+01        00000 
 3.75268e+00 -4.81109e+01        00000 
 1.95804e+01 -3.87203e+01        00000 
 1.90669e+01 -4.95848e+01        00000 
 3.40592e+01 -4.27457e+01        00000 
 3.54708e+01 -5.30980e+01        00000 
 5.08976e+01 -4.90161e+01        00000 
 5.39111e+01 -5.87320e+01        00000 
 7.07397e+01 -5.71499e+01        00000 
 7.50718e+01 -6.64354e+01        00000 
-8.13619e+01 -1.00794e+02        00000 
-9.54768e+01 -1.17916e+02        00000 
-5.60775e+01 -9.53051e+01        00000 
-6.76595e+01 -1.12166e+02        00000 
-3.28105e+01 -9.15932e+01        00000 
-4.19888e+01 -1.08161e+02        00000 
-1.08045e+01 -8.97281e+01        00000 
-1.77440e+01 -1.05922e+02        00000 
 1.07765e+01 -8.97266e+01        00000 
 5.87758e+00 -1.05472e+02        00000 
 3.27836e+01 -9.15892e+01        00000 
 2.97079e+01 -1.06816e+02        00000 
 5.60532e+01 -9.52979e+01        00000 
 5.45705e+01 -1.09941e+02        00000 
 8.13414e+01 -1.00784e+02        00000 
 8.12345e+01 -1.14814e+02        00000 
 1.09274e+02 -1.07856e+02        00000 
 1.10369e+02 -1.21473e+02        00000 
-1.07434e+02 -1.68322e+02        00000 
-1.22230e+02 -1.88822e+02        00000 
-7.48154e+01 -1.63705e+02        00000 
-8.73595e+01 -1.84007e+02        00000 
-4.41149e+01 -1.60599e+02        00000 
-5.45851e+01 -1.80677e+02        00000 
-1.45847e+01 -1.59038e+02        00000 
-2.31599e+01 -1.78822e+02        00000 
 1.45506e+01 -1.59038e+02        00000 
 7.68014e+00 -1.78450e+02        00000 
 4.40796e+01 -1.60599e+02        00000 
 3.87147e+01 -1.79565e+02        00000 
 7.47806e+01 -1.63706e+02        00000 
 7.07205e+01 -1.82160e+02        00000 
 1.07402e+02 -1.68322e+02        00000 
 1.04451e+02 -1.86227e+02        00000 
 1.42680e+02 -1.74322e+02        00000 
 1.40646e+02 -1.91828e+02        00000 
-1.29175e+02 -2.49522e+02        00000 