<?xml version="1.0" encoding="utf-8"?>
<VTKFile byte_order="LittleEndian" type="UnstructuredGrid" version="0.1">
   <UnstructuredGrid>
      <Piece NumberOfCells="1296" NumberOfPoints="685">
         <Points>
            <DataArray Name="Points" NumberOfComponents="3" format="ascii" type="Float32">
0.0000 0.0000 0.0000
0.0000 0.1111 0.0000
0.0000 0.2222 0.0000
0.0000 0.3333 0.0000
0.0000 0.4444 0.0000
0.0000 0.5556 0.0000
0.0000 0.6667 0.0000
0.0000 0.7778 0.0000
0.0000 0.8889 0.0000
0.0000 1.0000 0.0000
0.2222 0.0000 0.0000
0.2222 0.1111 0.0000
0.2222 0.2222 0.0000
0.2222 0.3333 0.0000
0.2222 0.4444 0.0000
0.2222 0.5556 0.0000
0.2222 0.6667 0.0000
0.2222 0.7778 0.0000
0.2222 0.8889 0.0000
0.2222 1.0000 0.0000
0.4444 0.0000 0.0000
0.4444 0.1111 0.0000
0.4444 0.2222 0.0000
0.4444 0.3333 0.0000
0.4444 0.4444 0.0000
0.4444 0.5556 0.0000
0.4444 0.6667 0.0000
0.4444 0.7778 0.0000
0.4444 0.8889 0.0000
0.4444 1.0000 0.0000
0.6667 0.0000 0.0000
0.6667 0.1111 0.0000
0.6667 0.2222 0.0000
0.6667 0.3333 0.0000
0.6667 0.4444 0.0000
0.6667 0.5556 0.0000
0.6667 0.6667 0.0000
0.6667 0.7778 0.0000
0.6667 0.8889 0.0000
0.6667 1.0000 0.0000
0.8889 0.0000 0.0000
0.8889 0.1111 0.0000
0.8889 0.2222 0.0000
0.8889 0.3333 0.0000
0.8889 0.4444 0.0000
0.8889 0.5556 0.0000
0.8889 0.6667 0.0000
0.8889 0.7778 0.0000
0.8889 0.8889 0.0000
0.8889 1.0000 0.0000
1.1111 0.0000 0.0000
1.1111 0.1111 0.0000
1.1111 0.2222 0.0000
1.1111 0.3333 0.0000
1.1111 0.4444 0.0000
1.1111 0.5556 0.0000
1.1111 0.6667 0.0000
1.1111 0.7778 0.0000
1.1111 0.8889 0.0000
1.1111 1.0000 0.0000
1.3333 0.0000 0.0000
1.3333 0.1111 0.0000
1.3333 0.2222 0.0000
1.3333 0.3333 0.0000
1.3333 0.4444 0.0000
1.3333 0.5556 0.0000
1.3333 0.6667 0.0000
1.3333 0.7778 0.0000
1.3333 0.8889 0.0000
1.3333 1.0000 0.0000
1.5556 0.0000 0.0000
1.5556 0.1111 0.0000
1.5556 0.2222 0.0000
1.5556 0.3333 0.0000
1.5556 0.4444 0.0000
1.5556 0.5556 0.0000
1.5556 0.6667 0.0000
1.5556 0.7778 0.0000
1.5556 0.8889 0.0000
1.5556 1.0000 0.0000
1.7778 0.0000 0.0000
1.7778 0.1111 0.0000
1.7778 0.2222 0.0000
1.7778 0.3333 0.0000
1.7778 0.4444 0.0000
1.7778 0.5556 0.0000
1.7778 0.6667 0.0000
1.7778 0.7778 0.0000
1.7778 0.8889 0.0000
1.7778 1.0000 0.0000
2.0000 0.0000 0.0000
2.0000 0.1111 0.0000
2.0000 0.2222 0.0000
2.0000 0.3333 0.0000
2.0000 0.4444 0.0000
2.0000 0.5556 0.0000
2.0000 0.6667 0.0000
2.0000 0.7778 0.0000
2.0000 0.8889 0.0000
2.0000 1.0000 0.0000
0.1111 0.0556 0.0000
0.1111 0.1667 0.0000
0.1111 0.2778 0.0000
0.1111 0.3889 0.0000
0.1111 0.5000 0.0000
0.1111 0.6111 0.0000
0.1111 0.7222 0.0000
0.1111 0.8333 0.0000
0.1111 0.9444 0.0000
0.3333 0.0556 0.0000
0.3333 0.1667 0.0000
0.3333 0.2778 0.0000
0.3333 0.3889 0.0000
0.3333 0.5000 0.0000
0.3333 0.6111 0.0000
0.3333 0.7222 0.0000
0.3333 0.8333 0.0000
0.3333 0.9444 0.0000
0.5556 0.0556 0.0000
0.5556 0.1667 0.0000
0.5556 0.2778 0.0000
0.5556 0.3889 0.0000
0.5556 0.5000 0.0000
0.5556 0.6111 0.0000
0.5556 0.7222 0.0000
0.5556 0.8333 0.0000
0.5556 0.9444 0.0000
0.7778 0.0556 0.0000
0.7778 0.1667 0.0000
0.7778 0.2778 0.0000
0.7778 0.3889 0.0000
0.7778 0.5000 0.0000
0.7778 0.6111 0.0000
0.7778 0.7222 0.0000
0.7778 0.8333 0.0000
0.7778 0.9444 0.0000
1.0000 0.0556 0.0000
1.0000 0.1667 0.0000
1.0000 0.2778 0.0000
1.0000 0.3889 0.0000
1.0000 0.5000 0.0000
1.0000 0.6111 0.0000
1.0000 0.7222 0.0000
1.0000 0.8333 0.0000
1.0000 0.9444 0.0000
1.2222 0.0556 0.0000
1.2222 0.1667 0.0000
1.2222 0.2778 0.0000
1.2222 0.3889 0.0000
1.2222 0.5000 0.0000
1.2222 0.6111 0.0000
1.2222 0.7222 0.0000
1.2222 0.8333 0.0000
1.2222 0.9444 0.0000
1.4444 0.0556 0.0000
1.4444 0.1667 0.0000
1.4444 0.2778 0.0000
1.4444 0.3889 0.0000
1.4444 0.5000 0.0000
1.4444 0.6111 0.0000
1.4444 0.7222 0.0000
1.4444 0.8333 0.0000
1.4444 0.9444 0.0000
1.6667 0.0556 0.0000
1.6667 0.1667 0.0000
1.6667 0.2778 0.0000
1.6667 0.3889 0.0000
1.6667 0.5000 0.0000
1.6667 0.6111 0.0000
1.6667 0.7222 0.0000
1.6667 0.8333 0.0000
1.6667 0.9444 0.0000
1.8889 0.0556 0.0000
1.8889 0.1667 0.0000
1.8889 0.2778 0.0000
1.8889 0.3889 0.0000
1.8889 0.5000 0.0000
1.8889 0.6111 0.0000
1.8889 0.7222 0.0000
1.8889 0.8333 0.0000
1.8889 0.9444 0.0000
0.0000 0.0556 0.0000
0.0556 0.0278 0.0000
0.0556 0.0833 0.0000
0.0000 0.1667 0.0000
0.0556 0.1389 0.0000
0.0556 0.1944 0.0000
0.0000 0.2778 0.0000
0.0556 0.2500 0.0000
0.0556 0.3056 0.0000
0.0000 0.3889 0.0000
0.0556 0.3611 0.0000
0.0556 0.4167 0.0000
0.0000 0.5000 0.0000
0.0556 0.4722 0.0000
0.0556 0.5278 0.0000
0.0000 0.6111 0.0000
0.0556 0.5833 0.0000
0.0556 0.6389 0.0000
0.0000 0.7222 0.0000
0.0556 0.6944 0.0000
0.0556 0.7500 0.0000
0.0000 0.8333 0.0000
0.0556 0.8056 0.0000
0.0556 0.8611 0.0000
0.0000 0.9444 0.0000
0.0556 0.9167 0.0000
0.0556 0.9722 0.0000
0.2222 0.0556 0.0000
0.2778 0.0278 0.0000
0.2778 0.0833 0.0000
0.2222 0.1667 0.0000
0.2778 0.1389 0.0000
0.2778 0.1944 0.0000
0.2222 0.2778 0.0000
0.2778 0.2500 0.0000
0.2778 0.3056 0.0000
0.2222 0.3889 0.0000
0.2778 0.3611 0.0000
0.2778 0.4167 0.0000
0.2222 0.5000 0.0000
0.2778 0.4722 0.0000
0.2778 0.5278 0.0000
0.2222 0.6111 0.0000
0.2778 0.5833 0.0000
0.2778 0.6389 0.0000
0.2222 0.7222 0.0000
0.2778 0.6944 0.0000
0.2778 0.7500 0.0000
0.2222 0.8333 0.0000
0.2778 0.8056 0.0000
0.2778 0.8611 0.0000
0.2222 0.9444 0.0000
0.2778 0.9167 0.0000
0.2778 0.9722 0.0000
0.4444 0.0556 0.0000
0.5000 0.0278 0.0000
0.5000 0.0833 0.0000
0.4444 0.1667 0.0000
0.5000 0.1389 0.0000
0.5000 0.1944 0.0000
0.4444 0.2778 0.0000
0.5000 0.2500 0.0000
0.5000 0.3056 0.0000
0.4444 0.3889 0.0000
0.5000 0.3611 0.0000
0.5000 0.4167 0.0000
0.4444 0.5000 0.0000
0.5000 0.4722 0.0000
0.5000 0.5278 0.0000
0.4444 0.6111 0.0000
0.5000 0.5833 0.0000
0.5000 0.6389 0.0000
0.4444 0.7222 0.0000
0.5000 0.6944 0.0000
0.5000 0.7500 0.0000
0.4444 0.8333 0.0000
0.5000 0.8056 0.0000
0.5000 0.8611 0.0000
0.4444 0.9444 0.0000
0.5000 0.9167 0.0000
0.5000 0.9722 0.0000
0.6667 0.0556 0.0000
0.7222 0.0278 0.0000
0.7222 0.0833 0.0000
0.6667 0.1667 0.0000
0.7222 0.1389 0.0000
0.7222 0.1944 0.0000
0.6667 0.2778 0.0000
0.7222 0.2500 0.0000
0.7222 0.3056 0.0000
0.6667 0.3889 0.0000
0.7222 0.3611 0.0000
0.7222 0.4167 0.0000
0.6667 0.5000 0.0000
0.7222 0.4722 0.0000
0.7222 0.5278 0.0000
0.6667 0.6111 0.0000
0.7222 0.5833 0.0000
0.7222 0.6389 0.0000
0.6667 0.7222 0.0000
0.7222 0.6944 0.0000
0.7222 0.7500 0.0000
0.6667 0.8333 0.0000
0.7222 0.8056 0.0000
0.7222 0.8611 0.0000
0.6667 0.9444 0.0000
0.7222 0.9167 0.0000
0.7222 0.9722 0.0000
0.8889 0.0556 0.0000
0.9444 0.0278 0.0000
0.9444 0.0833 0.0000
0.8889 0.1667 0.0000
0.9444 0.1389 0.0000
0.9444 0.1944 0.0000
0.8889 0.2778 0.0000
0.9444 0.2500 0.0000
0.9444 0.3056 0.0000
0.8889 0.3889 0.0000
0.9444 0.3611 0.0000
0.9444 0.4167 0.0000
0.8889 0.5000 0.0000
0.9444 0.4722 0.0000
0.9444 0.5278 0.0000
0.8889 0.6111 0.0000
0.9444 0.5833 0.0000
0.9444 0.6389 0.0000
0.8889 0.7222 0.0000
0.9444 0.6944 0.0000
0.9444 0.7500 0.0000
0.8889 0.8333 0.0000
0.9444 0.8056 0.0000
0.9444 0.8611 0.0000
0.8889 0.9444 0.0000
0.9444 0.9167 0.0000
0.9444 0.9722 0.0000
1.1111 0.0556 0.0000
1.1667 0.0278 0.0000
1.1667 0.0833 0.0000
1.1111 0.1667 0.0000
1.1667 0.1389 0.0000
1.1667 0.1944 0.0000
1.1111 0.2778 0.0000
1.1667 0.2500 0.0000
1.1667 0.3056 0.0000
1.1111 0.3889 0.0000
1.1667 0.3611 0.0000
1.1667 0.4167 0.0000
1.1111 0.5000 0.0000
1.1667 0.4722 0.0000
1.1667 0.5278 0.0000
1.1111 0.6111 0.0000
1.1667 0.5833 0.0000
1.1667 0.6389 0.0000
1.1111 0.7222 0.0000
1.1667 0.6944 0.0000
1.1667 0.7500 0.0000
1.1111 0.8333 0.0000
1.1667 0.8056 0.0000
1.1667 0.8611 0.0000
1.1111 0.9444 0.0000
1.1667 0.9167 0.0000
1.1667 0.9722 0.0000
1.3333 0.0556 0.0000
1.3889 0.0278 0.0000
1.3889 0.0833 0.0000
1.3333 0.1667 0.0000
1.3889 0.1389 0.0000
1.3889 0.1944 0.0000
1.3333 0.2778 0.0000
1.3889 0.2500 0.0000
1.3889 0.3056 0.0000
1.3333 0.3889 0.0000
1.3889 0.3611 0.0000
1.3889 0.4167 0.0000
1.3333 0.5000 0.0000
1.3889 0.4722 0.0000
1.3889 0.5278 0.0000
1.3333 0.6111 0.0000
1.3889 0.5833 0.0000
1.3889 0.6389 0.0000
1.3333 0.7222 0.0000
1.3889 0.6944 0.0000
1.3889 0.7500 0.0000
1.3333 0.8333 0.0000
1.3889 0.8056 0.0000
1.3889 0.8611 0.0000
1.3333 0.9444 0.0000
1.3889 0.9167 0.0000
1.3889 0.9722 0.0000
1.5556 0.0556 0.0000
1.6111 0.0278 0.0000
1.6111 0.0833 0.0000
1.5556 0.1667 0.0000
1.6111 0.1389 0.0000
1.6111 0.1944 0.0000
1.5556 0.2778 0.0000
1.6111 0.2500 0.0000
1.6111 0.3056 0.0000
1.5556 0.3889 0.0000
1.6111 0.3611 0.0000
1.6111 0.4167 0.0000
1.5556 0.5000 0.0000
1.6111 0.4722 0.0000
1.6111 0.5278 0.0000
1.5556 0.6111 0.0000
1.6111 0.5833 0.0000
1.6111 0.6389 0.0000
1.5556 0.7222 0.0000
1.6111 0.6944 0.0000
1.6111 0.7500 0.0000
1.5556 0.8333 0.0000
1.6111 0.8056 0.0000
1.6111 0.8611 0.0000
1.5556 0.9444 0.0000
1.6111 0.9167 0.0000
1.6111 0.9722 0.0000
1.7778 0.0556 0.0000
1.8333 0.0278 0.0000
1.8333 0.0833 0.0000
1.7778 0.1667 0.0000
1.8333 0.1389 0.0000
1.8333 0.1944 0.0000
1.7778 0.2778 0.0000
1.8333 0.2500 0.0000
1.8333 0.3056 0.0000
1.7778 0.3889 0.0000
1.8333 0.3611 0.0000
1.8333 0.4167 0.0000
1.7778 0.5000 0.0000
1.8333 0.4722 0.0000
1.8333 0.5278 0.0000
1.7778 0.6111 0.0000
1.8333 0.5833 0.0000
1.8333 0.6389 0.0000
1.7778 0.7222 0.0000
1.8333 0.6944 0.0000
1.8333 0.7500 0.0000
1.7778 0.8333 0.0000
1.8333 0.8056 0.0000
1.8333 0.8611 0.0000
1.7778 0.9444 0.0000
1.8333 0.9167 0.0000
1.8333 0.9722 0.0000
0.1111 0.1111 0.0000
0.1667 0.0833 0.0000
0.1111 0.2222 0.0000
0.1667 0.1944 0.0000
0.1111 0.3333 0.0000
0.1667 0.3056 0.0000
0.1111 0.4444 0.0000
0.1667 0.4167 0.0000
0.1111 0.5556 0.0000
0.1667 0.5278 0.0000
0.1111 0.6667 0.0000
0.1667 0.6389 0.0000
0.1111 0.7778 0.0000
0.1667 0.7500 0.0000
0.1111 0.8889 0.0000
0.1667 0.8611 0.0000
0.1111 1.0000 0.0000
0.1667 0.9722 0.0000
0.3333 0.1111 0.0000
0.3889 0.0833 0.0000
0.3333 0.2222 0.0000
0.3889 0.1944 0.0000
0.3333 0.3333 0.0000
0.3889 0.3056 0.0000
0.3333 0.4444 0.0000
0.3889 0.4167 0.0000
0.3333 0.5556 0.0000
0.3889 0.5278 0.0000
0.3333 0.6667 0.0000
0.3889 0.6389 0.0000
0.3333 0.7778 0.0000
0.3889 0.7500 0.0000
0.3333 0.8889 0.0000
0.3889 0.8611 0.0000
0.3333 1.0000 0.0000
0.3889 0.9722 0.0000
0.5556 0.1111 0.0000
[...]
         <PointData>
            <DataArray Name="fValues" NumberOfComponents="3" format="ascii" type="Float64">
-3.67130e-15  1.22377e-15        00000 
-1.65068e-16 -1.98082e-16        00000 
 3.53823e-16 -6.84631e-17        00000 
-8.54835e-16  6.57565e-17        00000 
-2.84813e-16  6.70452e-18        00000 
-2.63026e-16 -6.57565e-16        00000 
-7.58113e-17  4.24956e-16        00000 
       00000  1.97091e-16        00000 
 1.58503e-15 -6.60431e-16        00000 
-2.44753e-15  6.11883e-16        00000 
-4.64836e+01 -3.50752e+01        00000 
-3.16683e+01 -2.69037e+01        00000 
-2.06868e+01 -2.11541e+01        00000 
-1.18705e+01 -1.78034e+01        00000 
-3.96210e+00 -1.62637e+01        00000 
 3.69775e+00 -1.62261e+01        00000 
 1.16387e+01 -1.77141e+01        00000 
 2.05163e+01 -2.10055e+01        00000 
 3.14793e+01 -2.67086e+01        00000 
 4.61955e+01 -3.48276e+01        00000 
-8.46554e+01 -7.46780e+01        00000 
-6.24306e+01 -6.75371e+01        00000 
-4.26869e+01 -6.19596e+01        00000 
-2.49380e+01 -5.82077e+01        00000 
-8.34640e+00 -5.63094e+01        00000 
 7.84929e+00 -5.62549e+01        00000 
 2.44341e+01 -5.80615e+01        00000 
 4.22575e+01 -6.17556e+01        00000 
 6.20680e+01 -6.72606e+01        00000 
 8.43419e+01 -7.43562e+01        00000 
-1.18559e+02 -1.29194e+02        00000 
-8.90501e+01 -1.23020e+02        00000 
-6.19283e+01 -1.18271e+02        00000 
-3.65937e+01 -1.15068e+02        00000 
-1.23120e+01 -1.13452e+02        00000 
 1.15906e+01 -1.13438e+02        00000 
 3.58441e+01 -1.15031e+02        00000 
 6.12394e+01 -1.18210e+02        00000 
 8.84414e+01 -1.22903e+02        00000 
 1.17998e+02 -1.28980e+02        00000 
-1.47674e+02 -1.97693e+02        00000 
-1.11662e+02 -1.92515e+02        00000 
-7.81275e+01 -1.88580e+02        00000 
-4.63530e+01 -1.85948e+02        00000 
-1.56345e+01 -1.84635e+02        00000 
 1.47265e+01 -1.84646e+02        00000 
 4.54505e+01 -1.85961e+02        00000 
 7.72545e+01 -1.88600e+02        00000 
 1.10794e+02 -1.92533e+02        00000 
 1.46779e+02 -1.97655e+02        00000 
-1.71564e+02 -2.78085e+02        00000 
-1.30262e+02 -2.73914e+02        00000 
-9.14023e+01 -2.70713e+02        00000 
-5.43176e+01 -2.68592e+02        00000 
-1.82989e+01 -2.67544e+02        00000 
 1.73685e+01 -2.67548e+02        00000 
 5.33699e+01 -2.68609e+02        00000 
 9.04191e+01 -2.70756e+02        00000 
 1.29221e+02 -2.73954e+02        00000 
 1.70487e+02 -2.78095e+02        00000 
-1.90293e+02 -3.67917e+02        00000 
-1.44819e+02 -3.64762e+02        00000 
-1.01769e+02 -3.62390e+02        00000 
-6.05080e+01 -3.60849e+02        00000 
-2.03715e+01 -3.60106e+02        00000 
 1.93963e+01 -3.60103e+02        00000 
 5.95452e+01 -3.60848e+02        00000 
 1.00775e+02 -3.62388e+02        00000 
 1.43779e+02 -3.64755e+02        00000 
 1.89245e+02 -3.67920e+02        00000 
-2.03974e+02 -4.64955e+02        00000 
-1.55257e+02 -4.62831e+02        00000 
-1.08970e+02 -4.61363e+02        00000 
-6.46805e+01 -4.60485e+02        00000 
-2.17311e+01 -4.60088e+02        00000 
 2.07903e+01 -4.60114e+02        00000 
 6.37920e+01 -4.60537e+02        00000 
 1.08074e+02 -4.61426e+02        00000 
 1.54362e+02 -4.62936e+02        00000 
 2.03071e+02 -4.65102e+02        00000 
-2.13163e+02 -5.67735e+02        00000 
-1.61504e+02 -5.66566e+02        00000 
-1.12844e+02 -5.65860e+02        00000 
-6.67966e+01 -5.65354e+02        00000 
-2.23339e+01 -5.65081e+02        00000 
 2.15771e+01 -5.65105e+02        00000 
 6.60187e+01 -5.65385e+02        00000 
 1.12075e+02 -5.65873e+02        00000 
 1.60742e+02 -5.66569e+02        00000 
 2.12424e+02 -5.67752e+02        00000 
-2.18811e+02 -6.80027e+02        00000 
-1.64131e+02 -6.77260e+02        00000 
-1.14693e+02 -6.73983e+02        00000 
-6.79591e+01 -6.71494e+02        00000 
-2.26713e+01 -6.70154e+02        00000 
 2.20311e+01 -6.70103e+02        00000 
 6.71941e+01 -6.71427e+02        00000 
 1.13928e+02 -6.73976e+02        00000 
 1.63465e+02 -6.77321e+02        00000 
 2.18287e+02 -6.80164e+02        00000 
-1.88187e+01 -1.49188e+01        00000 
-1.20186e+01 -9.05053e+00        00000 
-7.50571e+00 -6.20539e+00        00000 
-3.67315e+00 -4.82346e+00        00000 
-6.55469e-02 -4.39044e+00        00000 
 3.55117e+00 -4.77800e+00        00000 
 7.41956e+00 -6.12237e+00        00000 
 1.19523e+01 -8.95710e+00        00000 
 1.86901e+01 -1.48012e+01        00000 
-5.65046e+01 -4.90492e+01        00000 
-3.94345e+01 -4.21963e+01        00000 
-2.49990e+01 -3.73537e+01        00000 
-1.22323e+01 -3.45478e+01        00000 
-1.99324e-01 -3.36118e+01        00000 
 1.18543e+01 -3.44590e+01        00000 
 2.46729e+01 -3.71844e+01        00000 
 3.91628e+01 -4.19671e+01        00000 
 5.62134e+01 -4.87700e+01        00000 
-8.88701e+01 -9.65960e+01        00000 
-6.41983e+01 -9.06424e+01        00000 
-4.16533e+01 -8.62884e+01        00000 
-2.06083e+01 -8.36367e+01        00000 
-3.15582e-01 -8.27357e+01        00000 
 1.99786e+01 -8.35639e+01        00000 
 4.10484e+01 -8.61502e+01        00000 
 6.36860e+01 -9.04527e+01        00000 
 8.84411e+01 -9.63684e+01        00000 
-1.16966e+02 -1.58815e+02        00000 
-8.53660e+01 -1.53785e+02        00000 
-5.58823e+01 -1.50167e+02        00000 
-2.77828e+01 -1.47998e+02        00000 
-4.11303e-01 -1.47278e+02        00000 
 2.69522e+01 -1.47996e+02        00000 
 5.50534e+01 -1.50176e+02        00000 
 8.45891e+01 -1.53783e+02        00000 
 1.16209e+02 -1.58765e+02        00000 
-1.40516e+02 -2.34089e+02        00000 
-1.03020e+02 -2.29932e+02        00000 
-6.76590e+01 -2.26963e+02        00000 
-3.37050e+01 -2.25207e+02        00000 
-4.59367e-01 -2.24628e+02        00000 
 3.27792e+01 -2.25239e+02        00000 
 6.67166e+01 -2.27028e+02        00000 
 1.02077e+02 -2.29995e+02        00000 
 1.39536e+02 -2.34108e+02        00000 
-1.59467e+02 -3.20033e+02        00000 
-1.17241e+02 -3.16786e+02        00000 
-7.71327e+01 -3.14465e+02        00000 
-3.84338e+01 -3.13093e+02        00000 
-4.71000e-01 -3.12637e+02        00000 
 3.74873e+01 -3.13095e+02        00000 
 7.61536e+01 -3.14480e+02        00000 
 1.16228e+02 -3.16812e+02        00000 
 1.58374e+02 -3.20066e+02        00000 
-1.73818e+02 -4.14253e+02        00000 
-1.27900e+02 -4.11971e+02        00000 
-8.41353e+01 -4.10417e+02        00000 
-4.19009e+01 -4.09545e+02        00000 
-5.05815e-01 -4.09272e+02        00000 
 4.09245e+01 -4.09564e+02        00000 
 8.31701e+01 -4.10439e+02        00000 
 1.26922e+02 -4.11995e+02        00000 
 1.72834e+02 -4.14314e+02        00000 
-1.83671e+02 -5.14757e+02        00000 
-1.34807e+02 -5.13447e+02        00000 
-8.84120e+01 -5.12672e+02        00000 
-4.39282e+01 -5.12247e+02        00000 
-4.33622e-01 -5.12113e+02        00000 
 4.30904e+01 -5.12256e+02        00000 
 8.76098e+01 -5.12698e+02        00000 
 1.33998e+02 -5.13511e+02        00000 
 1.82857e+02 -5.14851e+02        00000 
-1.89170e+02 -6.21132e+02        00000 
-1.37906e+02 -6.20277e+02        00000 
-9.02608e+01 -6.19228e+02        00000 
-4.47604e+01 -6.18413e+02        00000 
-3.31621e-01 -6.18115e+02        00000 
 4.40297e+01 -6.18413e+02        00000 
 8.94688e+01 -6.19213e+02        00000 
 1.37160e+02 -6.20255e+02        00000 
 1.88494e+02 -6.21135e+02        00000 
 1.07364e-15 -1.52943e-15        00000 
-1.02707e+01 -7.80238e+00        00000 
-7.80897e+00 -5.48118e+00        00000 
 1.68963e-15  2.00981e-15        00000 
-6.30471e+00 -4.02278e+00        00000 
-5.11133e+00 -3.04012e+00        00000 
-2.49800e-16  1.24900e-16        00000 
-4.07793e+00 -2.35206e+00        00000 
-3.11298e+00 -1.86931e+00        00000 
-2.02331e-16 -1.88468e-16        00000 
-2.21004e+00 -1.53285e+00        00000 
-1.31950e+00 -1.31807e+00        00000 
       00000 -1.24900e-16        00000 
-4.56181e-01 -1.20940e+00        00000 
 4.03063e-01 -1.20294e+00        00000 
 1.99985e-16  6.78575e-16        00000 
 1.26668e+00 -1.29738e+00        00000 
 2.14874e+00 -1.49549e+00        00000 
 6.24500e-16 -8.74301e-16        00000 
 3.06571e+00 -1.81373e+00        00000 
 4.03669e+00 -2.29807e+00        00000 
 2.49800e-16 -7.49401e-16        00000 
 5.07670e+00 -2.98766e+00        00000 
 6.25971e+00 -3.97529e+00        00000 
 4.94535e-16  1.16371e-15        00000 
 7.75507e+00 -5.42747e+00        00000 
 1.01956e+01 -7.74294e+00        00000 
-3.86499e+01 -3.08190e+01        00000 
-5.19906e+01 -4.17319e+01        00000 
-4.36649e+01 -3.76297e+01        00000 
-2.57946e+01 -2.36901e+01        00000 
-3.61346e+01 -3.40404e+01        00000 
-2.94542e+01 -3.10673e+01        00000 
-1.61161e+01 -1.92240e+01        00000 
-2.34043e+01 -2.86847e+01        00000 
-1.78286e+01 -2.68685e+01        00000 
-7.84847e+00 -1.68345e+01        00000 
-1.25707e+01 -2.55407e+01        00000 
-7.53902e+00 -2.46738e+01        00000 
-1.40411e-01 -1.60635e+01        00000 
-2.61437e+00 -2.42271e+01        00000 
 2.27385e+00 -2.42043e+01        00000 
 7.59759e+00 -1.67741e+01        00000 
 7.21568e+00 -2.46069e+01        00000 
 1.22678e+01 -2.54374e+01        00000 
 1.59031e+01 -1.91101e+01        00000 
 1.75454e+01 -2.67281e+01        00000 
 2.31462e+01 -2.85265e+01        00000 
 2.56200e+01 -2.35130e+01        00000 
 2.92192e+01 -3.08782e+01        00000 
 3.59058e+01 -3.38337e+01        00000 
 3.84076e+01 -3.05916e+01        00000 
 4.34127e+01 -3.73932e+01        00000 
 5.16929e+01 -4.14699e+01        00000 
-7.32122e+01 -7.09450e+01        00000 
-8.72675e+01 -8.53030e+01        00000 
-7.52392e+01 -8.16920e+01        00000 
-5.22761e+01 -6.45342e+01        00000 
-6.38328e+01 -7.85429e+01        00000 
-5.30104e+01 -7.58351e+01        00000 
-3.36129e+01 -5.98475e+01        00000 
-4.26933e+01 -7.35567e+01        00000 
-3.28185e+01 -7.17326e+01        00000 
-1.65412e+01 -5.70231e+01        00000 
-2.32880e+01 -7.03603e+01        00000 
-1.39888e+01 -6.94397e+01        00000 
-2.45726e-01 -5.60471e+01        00000 
-4.84529e+00 -6.89644e+01        00000 
 4.26970e+00 -6.89418e+01        00000 
 1.60345e+01 -5.69264e+01        00000 
 1.34180e+01 -6.93668e+01        00000 
 2.27082e+01 -7.02537e+01        00000 
 3.31380e+01 -5.96756e+01        00000 
 3.22625e+01 -7.15973e+01        00000 
 4.21699e+01 -7.33811e+01        00000 
 5.18788e+01 -6.42905e+01        00000 
 5.25230e+01 -7.56241e+01        00000 
 6.33931e+01 -7.83082e+01        00000 
 7.28723e+01 -7.06328e+01        00000 
 7.48418e+01 -8.14345e+01        00000 
 8.69093e+01 -8.50240e+01        00000 
-1.03473e+02 -1.25950e+02        00000 
-1.18243e+02 -1.43684e+02        00000 
-1.02636e+02 -1.40578e+02        00000 
-7.52302e+01 -1.20462e+02        00000 
-8.76749e+01 -1.37903e+02        00000 
-7.32770e+01 -1.35625e+02        00000 
-4.90807e+01 -1.16475e+02        00000 
-5.93585e+01 -1.33715e+02        00000 
-4.58413e+01 -1.32186e+02        00000 
-2.43618e+01 -1.14058e+02        00000 
-3.26322e+01 -1.31046e+02        00000 
-1.96379e+01 -1.30283e+02        00000 
-3.71876e-01 -1.13246e+02        00000 
-6.79254e+00 -1.29893e+02        00000 
 6.01637e+00 -1.29895e+02        00000 
 2.36112e+01 -1.14039e+02        00000 
 1.88587e+01 -1.30277e+02        00000 
 3.18378e+01 -1.31037e+02        00000 
 4.83416e+01 -1.16434e+02        00000 
 4.50515e+01 -1.32178e+02        00000 
 5.85795e+01 -1.33703e+02        00000 
 7.45830e+01 -1.20372e+02        00000 
 7.25410e+01 -1.35586e+02        00000 
 8.69755e+01 -1.37846e+02        00000 
 1.02873e+02 -1.25788e+02        00000 
 1.01964e+02 -1.40484e+02        00000 
 1.17579e+02 -1.43561e+02        00000 
-1.29318e+02 -1.94977e+02        00000 
-1.44495e+02 -2.15619e+02        00000 
-1.25794e+02 -2.13036e+02        00000 
-9.46177e+01 -1.90380e+02        00000 
-1.07731e+02 -2.10807e+02        00000 
-9.02614e+01 -2.08915e+02        00000 
-6.20679e+01 -1.87098e+02        00000 
-7.32759e+01 -2.07342e+02        00000 
-5.66867e+01 -2.06097e+02        00000 
-3.09002e+01 -1.85124e+02        00000 
-4.03949e+01 -2.05172e+02        00000 
-2.43388e+01 -2.04553e+02        00000 
-4.55031e-01 -1.84476e+02        00000 
-8.40608e+00 -2.04246e+02        00000 
 7.48449e+00 -2.04255e+02        00000 
 2.99896e+01 -1.85141e+02        00000 
 2.34117e+01 -2.04575e+02        00000 
 3.94721e+01 -2.05205e+02        00000 
 6.11733e+01 -1.87119e+02        00000 
 5.57627e+01 -2.06141e+02        00000 
 7.23664e+01 -2.07387e+02        00000 
 9.37481e+01 -1.90407e+02        00000 
 8.93595e+01 -2.08959e+02        00000 
 1.06826e+02 -2.10849e+02        00000 
 1.28438e+02 -1.94958e+02        00000 
 1.24876e+02 -2.13051e+02        00000 
 1.43563e+02 -2.15608e+02        00000 
-1.50566e+02 -2.75891e+02        00000 
-1.65848e+02 -2.98815e+02        00000 
-1.44638e+02 -2.96770e+02        00000 
-1.10567e+02 -2.72185e+02        00000 
-1.24078e+02 -2.94993e+02        00000 
-1.04082e+02 -2.93489e+02        00000 
-7.26790e+01 -2.69516e+02        00000 
-8.45791e+01 -2.92237e+02        00000 
-6.54728e+01 -2.91245e+02        00000 
-3.62139e+01 -2.67933e+02        00000 
-4.66723e+01 -2.90505e+02        00000 
-2.81025e+01 -2.90016e+02        00000 
-4.68631e-01 -2.67412e+02        00000 
-9.66955e+00 -2.89774e+02        00000 
 8.72088e+00 -2.89784e+02        00000 
 3.52823e+01 -2.67948e+02        00000 
 2.71635e+01 -2.90035e+02        00000 
 4.57217e+01 -2.90528e+02        00000 
 7.17175e+01 -2.69547e+02        00000 
 6.45074e+01 -2.91274e+02        00000 
 8.35930e+01 -2.92279e+02        00000 
 1.09567e+02 -2.72217e+02        00000 
 1.03077e+02 -2.93531e+02        00000 
 1.23057e+02 -2.95041e+02        00000 
 1.49491e+02 -2.75922e+02        00000 
 1.43569e+02 -2.96813e+02        00000 
 1.64746e+02 -2.98866e+02        00000 
-1.67218e+02 -3.66255e+02        00000 
-1.82321e+02 -3.90890e+02        00000 
-1.59166e+02 -3.89377e+02        00000 
-1.23029e+02 -3.63464e+02        00000 
-1.36632e+02 -3.88088e+02        00000 
-1.14663e+02 -3.87003e+02        00000 
-8.09661e+01 -3.61515e+02        00000 
-9.32000e+01 -3.86125e+02        00000 
-7.21541e+01 -3.85440e+02        00000 
-4.03511e+01 -3.60388e+02        00000 
-5.14283e+01 -3.84940e+02        00000 
-3.09666e+01 -3.84615e+02        00000 
-4.96316e-01 -3.60013e+02        00000 
-1.06330e+01 -3.84453e+02        00000 
 9.63383e+00 -3.84452e+02        00000 
 3.93730e+01 -3.60375e+02        00000 
 2.99699e+01 -3.84609e+02        00000 
 5.04588e+01 -3.84937e+02        00000 
 7.99772e+01 -3.61515e+02        00000 
 7.11791e+01 -3.85433e+02        00000 
 9.22150e+01 -3.86124e+02        00000 
 1.22008e+02 -3.63465e+02        00000 
 1.13674e+02 -3.86996e+02        00000 
 1.35620e+02 -3.88079e+02        00000 
 1.66158e+02 -3.66252e+02        00000 
 1.58145e+02 -3.89383e+02        00000 
 1.81308e+02 -3.90923e+02        00000 
-1.79289e+02 -4.63815e+02        00000 
-1.94050e+02 -4.89691e+02        00000 
-1.69333e+02 -4.88695e+02        00000 
-1.31837e+02 -4.62014e+02        00000 
-1.45254e+02 -4.87901e+02        00000 
-1.21781e+02 -4.87286e+02        00000 
-8.66129e+01 -4.60854e+02        00000 
-9.88679e+01 -4.86808e+02        00000 
-7.64459e+01 -4.86451e+02        00000 
-4.30929e+01 -4.60233e+02        00000 
-5.44366e+01 -4.86190e+02        00000 
-3.27419e+01 -4.86026e+02        00000 
-4.71046e-01 -4.60053e+02        00000 
-1.11965e+01 -4.85945e+02        00000 
 1.02870e+01 -4.85948e+02        00000 
 4.21795e+01 -4.60271e+02        00000 
 3.18361e+01 -4.86038e+02        00000 
 5.35735e+01 -4.86216e+02        00000 
 8.57250e+01 -4.60918e+02        00000 
 7.56009e+01 -4.86476e+02        00000 
 9.80137e+01 -4.86851e+02        00000 
 1.30933e+02 -4.62101e+02        00000 
 1.20927e+02 -4.87347e+02        00000 
 1.44398e+02 -4.87985e+02        00000 
 1.78399e+02 -4.63936e+02        00000 
 1.68485e+02 -4.88797e+02        00000 
 1.93193e+02 -4.89804e+02        00000 
-1.87021e+02 -5.67055e+02        00000 
-2.01563e+02 -5.94127e+02        00000 
-1.75198e+02 -5.93631e+02        00000 
-1.36795e+02 -5.66182e+02        00000 
-1.49790e+02 -5.93244e+02        00000 
-1.25289e+02 -5.92881e+02        00000 
-8.95531e+01 -5.65581e+02        00000 
-1.01558e+02 -5.92518e+02        00000 
-7.84492e+01 -5.92192e+02        00000 
-4.44411e+01 -5.65184e+02        00000 
-5.58033e+01 -5.91921e+02        00000 
-3.34822e+01 -5.91737e+02        00000 
-3.81966e-01 -5.65054e+02        00000 
-1.13711e+01 -5.91643e+02        00000 
 1.06584e+01 -5.91655e+02        00000 
 4.36598e+01 -5.65223e+02        00000 
 3.27522e+01 -5.91764e+02        00000 
 5.50326e+01 -5.91955e+02        00000 
 8.87813e+01 -5.65606e+02        00000 
 7.76625e+01 -5.92216e+02        00000 
 1.00786e+02 -5.92525e+02        00000 
 1.36025e+02 -5.66189e+02        00000 
 1.24524e+02 -5.92870e+02        00000 
 1.49043e+02 -5.93238e+02        00000 
 1.86279e+02 -5.67069e+02        00000 
 1.74476e+02 -5.93618e+02        00000 
 2.00878e+02 -5.94144e+02        00000 
-1.49066e+01 -1.14317e+01        00000 
-2.59554e+01 -2.07281e+01        00000 
-9.62935e+00 -7.38750e+00        00000 
-1.68743e+01 -1.46585e+01        00000 
-5.54701e+00 -5.37539e+00        00000 
-1.01549e+01 -1.13488e+01        00000 
-1.85213e+00 -4.50716e+00        00000 
-4.29004e+00 -9.76093e+00        00000 
 1.73032e+00 -4.47939e+00        00000 
 1.29155e+00 -9.43343e+00        00000 
 5.43424e+00 -5.30650e+00        00000 
 6.98234e+00 -1.03125e+01        00000 
 9.56604e+00 -7.29633e+00        00000 
 1.32213e+01 -1.26415e+01        00000 
 1.48111e+01 -1.13319e+01        00000 
 2.08354e+01 -1.71137e+01        00000 
 2.57093e+01 -1.99638e+01        00000 
 3.24235e+01 -2.50193e+01        00000 
-4.76098e+01 -4.54080e+01        00000 
-5.99854e+01 -5.78035e+01        00000 
-3.19476e+01 -3.95116e+01        00000 
-4.16098e+01 -5.15160e+01        00000 
-1.84787e+01 -3.57061e+01        00000 
-2.55152e+01 -4.71923e+01        00000 
-6.17449e+00 -3.38530e+01        00000 
-1.08215e+01 -4.48182e+01        00000 
 5.77939e+00 -3.38110e+01        00000 
 3.29499e+00 -4.43143e+01        00000 
 1.81112e+01 -3.55802e+01        00000 
 1.76057e+01 -4.56597e+01        00000 
 3.16453e+01 -3.93084e+01        00000 
 3.29404e+01 -4.89117e+01        00000 
 4.73315e+01 -4.51503e+01        00000 
 5.01597e+01 -5.41506e+01        00000 
 6.57675e+01 -5.27428e+01        00000 
 6.98544e+01 -6.13341e+01        00000 
-7.62415e+01 -9.34272e+01        00000 
-8.94590e+01 -1.09330e+02        00000 
-5.26959e+01 -8.82559e+01        00000 
-6.35537e+01 -1.03906e+02        00000 
-3.09898e+01 -8.47403e+01        00000 
-3.96017e+01 -1.00127e+02        00000 
-1.04158e+01 -8.29673e+01        00000 
-1.69332e+01 -9.80137e+01        00000 
 9.77776e+00 -8.29332e+01        00000 
 5.17878e+00 -9.75671e+01        00000 
 3.03587e+01 -8.46413e+01        00000 
 2.74678e+01 -9.88031e+01        00000 
 5.21343e+01 -8.80885e+01        00000 
 5.07259e+01 -1.01708e+02        00000 
 7.57659e+01 -9.32216e+01        00000 
 7.56743e+01 -1.06260e+02        00000 
 1.01767e+02 -9.98303e+01        00000 
 1.02822e+02 -1.12476e+02        00000 
-1.00854e+02 -1.56120e+02        00000 
-1.14751e+02 -1.75250e+02        00000 
-7.04043e+01 -1.51794e+02        00000 
-8.21737e+01 -1.70709e+02        00000 
-4.17062e+01 -1.48898e+02        00000 
-5.15315e+01 -1.67602e+02        00000 
-1.40526e+01 -1.47458e+02        00000 
-2.21048e+01 -1.65879e+02        00000 
 1.32333e+01 -1.47454e+02        00000 
 6.77696e+00 -1.65529e+02        00000 
 4.08659e+01 -1.48897e+02        00000 
 3.58210e+01 -1.66563e+02        00000 
 6.95977e+01 -1.51807e+02        00000 
 6.58022e+01 -1.68989e+02        00000 
 1.00099e+02 -1.56100e+02        00000 
 9.73505e+01 -1.72797e+02        00000 
 1.33035e+02 -1.61711e+02        00000 
 1.31162e+02 -1.78051e+02        00000 
-1.21463e+02 -2.31871e+02        00000 