<?xml version="1.0" encoding="utf-8"?>
<VTKFile byte_order="LittleEndian" type="UnstructuredGrid" version="0.1">
   <UnstructuredGrid>
      <Piece NumberOfCells="1296" NumberOfPoints="685">
         <Points>
            <DataArray Name="Points" NumberOfComponents="3" format="ascii" type="Float32">
0.0000 0.0000 0.0000
0.0000 0.1111 0.0000
0.0000 0.2222 0.0000
0.0000 0.3333 0.0000
0.0000 0.4444 0.0000
0.0000 0.5556 0.0000
0.0000 0.6667 0.0000
0.0000 0.7778 0.0000
0.0000 0.8889 0.0000
0.0000 1.0000 0.0000
0.2222 0.0000 0.0000
0.2222 0.1111 0.0000
0.2222 0.2222 0.0000
0.2222 0.3333 0.0000
0.2222 0.4444 0.0000
0.2222 0.5556 0.0000
0.2222 0.6667 0.0000
0.2222 0.7778 0.0000
0.2222 0.8889 0.0000
0.2222 1.0000 0.0000
0.4444 0.0000 0.0000
0.4444 0.1111 0.0000
0.4444 0.2222 0.0000
0.4444 0.3333 0.0000
0.4444 0.4444 0.0000
0.4444 0.5556 0.0000
0.4444 0.6667 0.0000
0.4444 0.7778 0.0000
0.4444 0.8889 0.0000
0.4444 1.0000 0.0000
0.6667 0.0000 0.0000
0.6667 0.1111 0.0000
0.6667 0.2222 0.0000
0.6667 0.3333 0.0000
0.6667 0.4444 0.0000
0.6667 0.5556 0.0000
0.6667 0.6667 0.0000
0.6667 0.7778 0.0000
0.6667 0.8889 0.0000
0.6667 1.0000 0.0000
0.8889 0.0000 0.0000
0.8889 0.1111 0.0000
0.8889 0.2222 0.0000
0.8889 0.3333 0.0000
0.8889 0.4444 0.0000
0.8889 0.5556 0.0000
0.8889 0.6667 0.0000
0.8889 0.7778 0.0000
0.8889 0.8889 0.0000
0.8889 1.0000 0.0000
1.1111 0.0000 0.0000
1.1111 0.1111 0.0000
1.1111 0.2222 0.0000
1.1111 0.3333 0.0000
1.1111 0.4444 0.0000
1.1111 0.5556 0.0000
1.1111 0.6667 0.0000
1.1111 0.7778 0.0000
1.1111 0.8889 0.0000
1.1111 1.0000 0.0000
1.3333 0.0000 0.0000
1.3333 0.1111 0.0000
1.3333 0.2222 0.0000
1.3333 0.3333 0.0000
1.3333 0.4444 0.0000
1.3333 0.5556 0.0000
1.3333 0.6667 0.0000
1.3333 0.7778 0.0000
1.3333 0.8889 0.0000
1.3333 1.0000 0.0000
1.5556 0.0000 0.0000
1.5556 0.1111 0.0000
1.5556 0.2222 0.0000
1.5556 0.3333 0.0000
1.5556 0.4444 0.0000
1.5556 0.5556 0.0000
1.5556 0.6667 0.0000
1.5556 0.7778 0.0000
1.5556 0.8889 0.0000
1.5556 1.0000 0.0000
1.7778 0.0000 0.0000
1.7778 0.1111 0.0000
1.7778 0.2222 0.0000
1.7778 0.3333 0.0000
1.7778 0.4444 0.0000
1.7778 0.5556 0.0000
1.7778 0.6667 0.0000
1.7778 0.7778 0.0000
1.7778 0.8889 0.0000
1.7778 1.0000 0.0000
2.0000 0.0000 0.0000
2.0000 0.1111 0.0000
2.0000 0.2222 0.0000
2.0000 0.3333 0.0000
2.0000 0.4444 0.0000
2.0000 0.5556 0.0000
2.0000 0.6667 0.0000
2.0000 0.7778 0.0000
2.0000 0.8889 0.0000
2.0000 1.0000 0.0000
0.1111 0.0556 0.0000
0.1111 0.1667 0.0000
0.1111 0.2778 0.0000
0.1111 0.3889 0.0000
0.1111 0.5000 0.0000
0.1111 0.6111 0.0000
0.1111 0.7222 0.0000
0.1111 0.8333 0.0000
0.1111 0.9444 0.0000
0.3333 0.0556 0.0000
0.3333 0.1667 0.0000
0.3333 0.2778 0.0000
0.3333 0.3889 0.0000
0.3333 0.5000 0.0000
0.3333 0.6111 0.0000
0.3333 0.7222 0.0000
0.3333 0.8333 0.0000
0.3333 0.9444 0.0000
0.5556 0.0556 0.0000
0.5556 0.1667 0.0000
0.5556 0.2778 0.0000
0.5556 0.3889 0.0000
0.5556 0.5000 0.0000
0.5556 0.6111 0.0000
0.5556 0.7222 0.0000
0.5556 0.8333 0.0000
0.5556 0.9444 0.0000
0.7778 0.0556 0.0000
0.7778 0.1667 0.0000
0.7778 0.2778 0.0000
0.7778 0.3889 0.0000
0.7778 0.5000 0.0000
0.7778 0.6111 0.0000
0.7778 0.7222 0.0000
0.7778 0.8333 0.0000
0.7778 0.9444 0.0000
1.0000 0.0556 0.0000
1.0000 0.1667 0.0000
1.0000 0.2778 0.0000
1.0000 0.3889 0.0000
1.0000 0.5000 0.0000
1.0000 0.6111 0.0000
1.0000 0.7222 0.0000
1.0000 0.8333 0.0000
1.0000 0.9444 0.0000
1.2222 0.0556 0.0000
1.2222 0.1667 0.0000
1.2222 0.2778 0.0000
1.2222 0.3889 0.0000
1.2222 0.5000 0.0000
1.2222 0.6111 0.0000
1.2222 0.7222 0.0000
1.2222 0.8333 0.0000
1.2222 0.9444 0.0000
1.4444 0.0556 0.0000
1.4444 0.1667 0.0000
1.4444 0.2778 0.0000
1.4444 0.3889 0.0000
1.4444 0.5000 0.0000
1.4444 0.6111 0.0000
1.4444 0.7222 0.0000
1.4444 0.8333 0.0000
1.4444 0.9444 0.0000
1.6667 0.0556 0.0000
1.6667 0.1667 0.0000
1.6667 0.2778 0.0000
1.6667 0.3889 0.0000
1.6667 0.5000 0.0000
1.6667 0.6111 0.0000
1.6667 0.7222 0.0000
1.6667 0.8333 0.0000
1.6667 0.9444 0.0000
1.8889 0.0556 0.0000
1.8889 0.1667 0.0000
1.8889 0.2778 0.0000
1.8889 0.3889 0.0000
1.8889 0.5000 0.0000
1.8889 0.6111 0.0000
1.8889 0.7222 0.0000
1.8889 0.8333 0.0000
1.8889 0.9444 0.0000
0.0000 0.0556 0.0000
0.0556 0.0278 0.0000
0.0556 0.0833 0.0000
0.0000 0.1667 0.0000
0.0556 0.1389 0.0000
0.0556 0.1944 0.0000
0.0000 0.2778 0.0000
0.0556 0.2500 0.0000
0.0556 0.3056 0.0000
0.0000 0.3889 0.0000
0.0556 0.3611 0.0000
0.0556 0.4167 0.0000
0.0000 0.5000 0.0000
0.0556 0.4722 0.0000
0.0556 0.5278 0.0000
0.0000 0.6111 0.0000
0.0556 0.5833 0.0000
0.0556 0.6389 0.0000
0.0000 0.7222 0.0000
0.0556 0.6944 0.0000
0.0556 0.7500 0.0000
0.0000 0.8333 0.0000
0.0556 0.8056 0.0000
0.0556 0.8611 0.0000
0.0000 0.9444 0.0000
0.0556 0.9167 0.0000
0.0556 0.9722 0.0000
0.2222 0.0556 0.0000
0.2778 0.0278 0.0000
0.2778 0.0833 0.0000
0.2222 0.1667 0.0000
0.2778 0.1389 0.0000
0.2778 0.1944 0.0000
0.2222 0.2778 0.0000
0.2778 0.2500 0.0000
0.2778 0.3056 0.0000
0.2222 0.3889 0.0000
0.2778 0.3611 0.0000
0.2778 0.4167 0.0000
0.2222 0.5000 0.0000
0.2778 0.4722 0.0000
0.2778 0.5278 0.0000
0.2222 0.6111 0.0000
0.2778 0.5833 0.0000
0.2778 0.6389 0.0000
0.2222 0.7222 0.0000
0.2778 0.6944 0.0000
0.2778 0.7500 0.0000
0.2222 0.8333 0.0000
0.2778 0.8056 0.0000
0.2778 0.8611 0.0000
0.2222 0.9444 0.0000
0.2778 0.9167 0.0000
0.2778 0.9722 0.0000
0.4444 0.0556 0.0000
0.5000 0.0278 0.0000
0.5000 0.0833 0.0000
0.4444 0.1667 0.0000
0.5000 0.1389 0.0000
0.5000 0.1944 0.0000
0.4444 0.2778 0.0000
0.5000 0.2500 0.0000
0.5000 0.3056 0.0000
0.4444 0.3889 0.0000
0.5000 0.3611 0.0000
0.5000 0.4167 0.0000
0.4444 0.5000 0.0000
0.5000 0.4722 0.0000
0.5000 0.5278 0.0000
0.4444 0.6111 0.0000
0.5000 0.5833 0.0000
0.5000 0.6389 0.0000
0.4444 0.7222 0.0000
0.5000 0.6944 0.0000
0.5000 0.7500 0.0000
0.4444 0.8333 0.0000
0.5000 0.8056 0.0000
0.5000 0.8611 0.0000
0.4444 0.9444 0.0000
0.5000 0.9167 0.0000
0.5000 0.9722 0.0000
0.6667 0.0556 0.0000
0.7222 0.0278 0.0000
0.7222 0.0833 0.0000
0.6667 0.1667 0.0000
0.7222 0.1389 0.0000
0.7222 0.1944 0.0000
0.6667 0.2778 0.0000
0.7222 0.2500 0.0000
0.7222 0.3056 0.0000
0.6667 0.3889 0.0000
0.7222 0.3611 0.0000
0.7222 0.4167 0.0000
0.6667 0.5000 0.0000
0.7222 0.4722 0.0000
0.7222 0.5278 0.0000
0.6667 0.6111 0.0000
0.7222 0.5833 0.0000
0.7222 0.6389 0.0000
0.6667 0.7222 0.0000
0.7222 0.6944 0.0000
0.7222 0.7500 0.0000
0.6667 0.8333 0.0000
0.7222 0.8056 0.0000
0.7222 0.8611 0.0000
0.6667 0.9444 0.0000
0.7222 0.9167 0.0000
0.7222 0.9722 0.0000
0.8889 0.0556 0.0000
0.9444 0.0278 0.0000
0.9444 0.0833 0.0000
0.8889 0.1667 0.0000
0.9444 0.1389 0.0000
0.9444 0.1944 0.0000
0.8889 0.2778 0.0000
0.9444 0.2500 0.0000
0.9444 0.3056 0.0000
0.8889 0.3889 0.0000
0.9444 0.3611 0.0000
0.9444 0.4167 0.0000
0.8889 0.5000 0.0000
0.9444 0.4722 0.0000
0.9444 0.5278 0.0000
0.8889 0.6111 0.0000
0.9444 0.5833 0.0000
0.9444 0.6389 0.0000
0.8889 0.7222 0.0000
0.9444 0.6944 0.0000
0.9444 0.7500 0.0000
0.8889 0.8333 0.0000
0.9444 0.8056 0.0000
0.9444 0.8611 0.0000
0.8889 0.9444 0.0000
0.9444 0.9167 0.0000
0.9444 0.9722 0.0000
1.1111 0.0556 0.0000
1.1667 0.0278 0.0000
1.1667 0.0833 0.0000
1.1111 0.1667 0.0000
1.1667 0.1389 0.0000
1.1667 0.1944 0.0000
1.1111 0.2778 0.0000
1.1667 0.2500 0.0000
1.1667 0.3056 0.0000
1.1111 0.3889 0.0000
1.1667 0.3611 0.0000
1.1667 0.4167 0.0000
1.1111 0.5000 0.0000
1.1667 0.4722 0.0000
1.1667 0.5278 0.0000
1.1111 0.6111 0.0000
1.1667 0.5833 0.0000
1.1667 0.6389 0.0000
1.1111 0.7222 0.0000
1.1667 0.6944 0.0000
1.1667 0.7500 0.0000
1.1111 0.8333 0.0000
1.1667 0.8056 0.0000
1.1667 0.8611 0.0000
1.1111 0.9444 0.0000
1.1667 0.9167 0.0000
1.1667 0.9722 0.0000
1.3333 0.0556 0.0000
1.3889 0.0278 0.0000
1.3889 0.0833 0.0000
1.3333 0.1667 0.0000
1.3889 0.1389 0.0000
1.3889 0.1944 0.0000
1.3333 0.2778 0.0000
1.3889 0.2500 0.0000
1.3889 0.3056 0.0000
1.3333 0.3889 0.0000
1.3889 0.3611 0.0000
1.3889 0.4167 0.0000
1.3333 0.5000 0.0000
1.3889 0.4722 0.0000
1.3889 0.5278 0.0000
1.3333 0.6111 0.0000
1.3889 0.5833 0.0000
1.3889 0.6389 0.0000
1.3333 0.7222 0.0000
1.3889 0.6944 0.0000
1.3889 0.7500 0.0000
1.3333 0.8333 0.0000
1.3889 0.8056 0.0000
1.3889 0.8611 0.0000
1.3333 0.9444 0.0000
1.3889 0.9167 0.0000
1.3889 0.9722 0.0000
1.5556 0.0556 0.0000
1.6111 0.0278 0.0000
1.6111 0.0833 0.0000
1.5556 0.1667 0.0000
1.6111 0.1389 0.0000
1.6111 0.1944 0.0000
1.5556 0.2778 0.0000
1.6111 0.2500 0.0000
1.6111 0.3056 0.0000
1.5556 0.3889 0.0000
1.6111 0.3611 0.0000
1.6111 0.4167 0.0000
1.5556 0.5000 0.0000
1.6111 0.4722 0.0000
1.6111 0.5278 0.0000
1.5556 0.6111 0.0000
1.6111 0.5833 0.0000
1.6111 0.6389 0.0000
1.5556 0.7222 0.0000
1.6111 0.6944 0.0000
1.6111 0.7500 0.0000
1.5556 0.8333 0.0000
1.6111 0.8056 0.0000
1.6111 0.8611 0.0000
1.5556 0.9444 0.0000
1.6111 0.9167 0.0000
1.6111 0.9722 0.0000
1.7778 0.0556 0.0000
1.8333 0.0278 0.0000
1.8333 0.0833 0.0000
1.7778 0.1667 0.0000
1.8333 0.1389 0.0000
1.8333 0.1944 0.0000
1.7778 0.2778 0.0000
1.8333 0.2500 0.0000
1.8333 0.3056 0.0000
1.7778 0.3889 0.0000
1.8333 0.3611 0.0000
1.8333 0.4167 0.0000
1.7778 0.5000 0.0000
1.8333 0.4722 0.0000
1.8333 0.5278 0.0000
1.7778 0.6111 0.0000
1.8333 0.5833 0.0000
1.8333 0.6389 0.0000
1.7778 0.7222 0.0000
1.8333 0.6944 0.0000
1.8333 0.7500 0.0000
1.7778 0.8333 0.0000
1.8333 0.8056 0.0000
1.8333 0.8611 0.0000
1.7778 0.9444 0.0000
1.8333 0.9167 0.0000
1.8333 0.9722 0.0000
0.1111 0.1111 0.0000
0.1667 0.0833 0.0000
0.1111 0.2222 0.0000
0.1667 0.1944 0.0000
0.1111 0.3333 0.0000
0.1667 0.3056 0.0000
0.1111 0.4444 0.0000
0.1667 0.4167 0.0000
0.1111 0.5556 0.0000
0.1667 0.5278 0.0000
0.1111 0.6667 0.0000
0.1667 0.6389 0.0000
0.1111 0.7778 0.0000
0.1667 0.7500 0.0000
0.1111 0.8889 0.0000
0.1667 0.8611 0.0000
0.1111 1.0000 0.0000
0.1667 0.9722 0.0000
0.3333 0.1111 0.0000
0.3889 0.0833 0.0000
0.3333 0.2222 0.0000
0.3889 0.1944 0.0000
0.3333 0.3333 0.0000
0.3889 0.3056 0.0000
0.3333 0.4444 0.0000
0.3889 0.4167 0.0000
0.3333 0.5556 0.0000
0.3889 0.5278 0.0000
0.3333 0.6667 0.0000
0.3889 0.6389 0.0000
0.3333 0.7778 0.0000
0.3889 0.7500 0.0000
0.3333 0.8889 0.0000
0.3889 0.8611 0.0000
0.3333 1.0000 0.0000
0.3889 0.9722 0.0000
0.5556 0.1111 0.0000
[...]
         <PointData>
            <DataArray Name="fValues" NumberOfComponents="3" format="ascii" type="Float64">
-1.22377e-15 -3.05941e-15        00000 
-1.68370e-15  3.30136e-17        00000 
 4.36694e-16  1.09979e-16        00000 
-3.94539e-16 -2.63026e-16        00000 
-2.60574e-16 -2.14029e-16        00000 
 1.97270e-16  1.31513e-16        00000 
-3.25937e-16 -5.61107e-16        00000 
 9.85456e-16 -4.59879e-16        00000 
-7.92517e-16 -5.28345e-16        00000 
-1.22377e-15 -1.22377e-15        00000 
-4.98817e+01 -3.79355e+01        00000 
-3.39397e+01 -2.91716e+01        00000 
-2.21253e+01 -2.30041e+01        00000 
-1.26137e+01 -1.94330e+01        00000 
-4.10802e+00 -1.78130e+01        00000 
 4.10919e+00 -1.78123e+01        00000 
 1.26152e+01 -1.94318e+01        00000 
 2.21271e+01 -2.30026e+01        00000 
 3.39406e+01 -2.91704e+01        00000 
 4.98822e+01 -3.79342e+01        00000 
-9.07875e+01 -8.06114e+01        00000 
-6.68140e+01 -7.29975e+01        00000 
-4.55543e+01 -6.70679e+01        00000 
-2.64537e+01 -6.30958e+01        00000 
-8.67317e+00 -6.11255e+01        00000 
 8.67239e+00 -6.11252e+01        00000 
 2.64525e+01 -6.30948e+01        00000 
 4.55538e+01 -6.70661e+01        00000 
 6.68146e+01 -7.29946e+01        00000 
 9.07888e+01 -8.06081e+01        00000 
-1.26898e+02 -1.39515e+02        00000 
-9.51030e+01 -1.32964e+02        00000 
-6.59598e+01 -1.27905e+02        00000 
-3.87703e+01 -1.24490e+02        00000 
-1.27880e+01 -1.22770e+02        00000 
 1.27848e+01 -1.22770e+02        00000 
 3.87661e+01 -1.24490e+02        00000 
 6.59556e+01 -1.27905e+02        00000 
 9.50994e+01 -1.32963e+02        00000 
 1.26895e+02 -1.39513e+02        00000 
-1.57646e+02 -2.13244e+02        00000 
-1.19047e+02 -2.07776e+02        00000 
-8.31193e+01 -2.03577e+02        00000 
-4.91022e+01 -2.00760e+02        00000 
-1.62407e+01 -1.99347e+02        00000 
 1.62335e+01 -1.99347e+02        00000 
 4.90950e+01 -2.00759e+02        00000 
 8.31113e+01 -2.03576e+02        00000 
 1.19038e+02 -2.07774e+02        00000 
 1.57634e+02 -2.13241e+02        00000 
-1.82840e+02 -2.99420e+02        00000 
-1.38647e+02 -2.95043e+02        00000 
-9.71253e+01 -2.91691e+02        00000 
-5.75104e+01 -2.89453e+02        00000 
-1.90454e+01 -2.88336e+02        00000 
 1.90349e+01 -2.88335e+02        00000 
 5.74992e+01 -2.89451e+02        00000 
 9.71133e+01 -2.91687e+02        00000 
 1.38633e+02 -2.95037e+02        00000 
 1.82825e+02 -2.99413e+02        00000 
-2.02461e+02 -3.95534e+02        00000 
-1.53901e+02 -3.92244e+02        00000 
-1.07987e+02 -3.89753e+02        00000 
-6.40015e+01 -3.88117e+02        00000 
-2.12041e+01 -3.87312e+02        00000 
 2.11900e+01 -3.87311e+02        00000 
 6.39863e+01 -3.88115e+02        00000 
 1.07971e+02 -3.89749e+02        00000 
 1.53884e+02 -3.92240e+02        00000 
 2.02446e+02 -3.95529e+02        00000 
-2.16649e+02 -4.99102e+02        00000 
-1.64822e+02 -4.96874e+02        00000 
-1.15593e+02 -4.95296e+02        00000 
-6.84515e+01 -4.94337e+02        00000 
-2.26670e+01 -4.93886e+02        00000 
 2.26492e+01 -4.93885e+02        00000 
 6.84339e+01 -4.94334e+02        00000 
 1.15576e+02 -4.95293e+02        00000 
 1.64805e+02 -4.96871e+02        00000 
 2.16632e+02 -4.99099e+02        00000 
-2.26077e+02 -6.08112e+02        00000 
-1.71346e+02 -6.06907e+02        00000 
-1.19676e+02 -6.06182e+02        00000 
-7.07073e+01 -6.05668e+02        00000 
-2.33926e+01 -6.05383e+02        00000 
 2.33723e+01 -6.05382e+02        00000 
 7.06876e+01 -6.05666e+02        00000 
 1.19657e+02 -6.06179e+02        00000 
 1.71329e+02 -6.06904e+02        00000 
 2.26061e+02 -6.08110e+02        00000 
-2.31887e+02 -7.26620e+02        00000 
-1.74063e+02 -7.23799e+02        00000 
-1.21563e+02 -7.20440e+02        00000 
-7.19063e+01 -7.17861e+02        00000 
-2.38077e+01 -7.16486e+02        00000 
 2.37863e+01 -7.16485e+02        00000 
 7.18860e+01 -7.17861e+02        00000 
 1.21545e+02 -7.20441e+02        00000 
 1.74048e+02 -7.23801e+02        00000 
 2.31872e+02 -7.26622e+02        00000 
-2.01859e+01 -1.61475e+01        00000 
-1.28834e+01 -9.85302e+00        00000 
-8.01417e+00 -6.80070e+00        00000 
-3.87665e+00 -5.34446e+00        00000 
 5.44499e-04 -4.90846e+00        00000 
 3.87757e+00 -5.34413e+00        00000 
 8.01548e+00 -6.80005e+00        00000 
 1.28842e+01 -9.85240e+00        00000 
 2.01864e+01 -1.61469e+01        00000 
-6.05682e+01 -5.30144e+01        00000 
-4.22018e+01 -4.57030e+01        00000 
-2.66539e+01 -4.05462e+01        00000 
-1.29158e+01 -3.75875e+01        00000 
 1.99832e-04 -3.66304e+01        00000 
 1.29164e+01 -3.75867e+01        00000 
 2.66550e+01 -4.05446e+01        00000 
 4.22030e+01 -4.57009e+01        00000 
 6.05691e+01 -5.30123e+01        00000 
-9.51263e+01 -1.04361e+02        00000 
-6.85431e+01 -9.80280e+01        00000 
-4.43070e+01 -9.34077e+01        00000 
-2.17288e+01 -9.06110e+01        00000 
-1.11852e-03 -8.96765e+01        00000 
 2.17267e+01 -9.06108e+01        00000 
 4.43043e+01 -9.34075e+01        00000 
 6.85412e+01 -9.80271e+01        00000 
 9.51260e+01 -1.04359e+02        00000 
-1.24906e+02 -1.71510e+02        00000 
-9.09913e+01 -1.66158e+02        00000 
-5.93649e+01 -1.62283e+02        00000 
-2.92901e+01 -1.59942e+02        00000 
-2.69387e-03 -1.59159e+02        00000 
 2.92850e+01 -1.59942e+02        00000 
 5.93593e+01 -1.62283e+02        00000 
 9.09851e+01 -1.66159e+02        00000 
 1.24899e+02 -1.71509e+02        00000 
-1.49779e+02 -2.52344e+02        00000 
-1.09666e+02 -2.47967e+02        00000 
-7.18376e+01 -2.44813e+02        00000 
-3.55374e+01 -2.42917e+02        00000 
-4.33849e-03 -2.42284e+02        00000 
 3.55289e+01 -2.42915e+02        00000 
 7.18288e+01 -2.44811e+02        00000 
 1.09656e+02 -2.47965e+02        00000 
 1.49766e+02 -2.52340e+02        00000 
-1.69696e+02 -3.44377e+02        00000 
-1.24599e+02 -3.40976e+02        00000 
-8.17836e+01 -3.38540e+02        00000 
-4.05060e+01 -3.37087e+02        00000 
-6.08413e-03 -3.36605e+02        00000 
 4.04933e+01 -3.37086e+02        00000 
 8.17695e+01 -3.38537e+02        00000 
 1.24584e+02 -3.40971e+02        00000 
 1.69680e+02 -3.44371e+02        00000 
-1.84687e+02 -4.45082e+02        00000 
-1.35769e+02 -4.42666e+02        00000 
-8.91498e+01 -4.40996e+02        00000 
-4.41552e+01 -4.40034e+02        00000 
-7.94781e-03 -4.39721e+02        00000 
 4.41389e+01 -4.40032e+02        00000 
 8.91327e+01 -4.40992e+02        00000 
 1.35752e+02 -4.42662e+02        00000 
 1.84670e+02 -4.45079e+02        00000 
-1.94932e+02 -5.52054e+02        00000 
-1.43043e+02 -5.50651e+02        00000 
-9.37174e+01 -5.49806e+02        00000 
-4.63510e+01 -5.49345e+02        00000 
-9.50189e-03 -5.49196e+02        00000 
 4.63319e+01 -5.49344e+02        00000 
 9.36993e+01 -5.49804e+02        00000 
 1.43026e+02 -5.50648e+02        00000 
 1.94915e+02 -5.52051e+02        00000 
-2.00610e+02 -6.64580e+02        00000 
-1.46264e+02 -6.63697e+02        00000 
-9.56278e+01 -6.62627e+02        00000 
-4.72725e+01 -6.61802e+02        00000 
-1.06029e-02 -6.61497e+02        00000 
 4.72516e+01 -6.61802e+02        00000 
 9.56084e+01 -6.62626e+02        00000 
 1.46247e+02 -6.63696e+02        00000 
 2.00594e+02 -6.64579e+02        00000 
 2.39339e-15  1.03763e-15        00000 
-1.10326e+01 -8.43187e+00        00000 
-8.37479e+00 -5.93812e+00        00000 
 2.92482e-15 -7.67730e-16        00000 
-6.75512e+00 -4.37650e+00        00000 
-5.47500e+00 -3.31799e+00        00000 
-4.99600e-16  1.24900e-16        00000 
-4.35235e+00 -2.57838e+00        00000 
-3.31798e+00 -2.06117e+00        00000 
-2.06371e-16  1.60572e-16        00000 
-2.33778e+00 -1.71017e+00        00000 
-1.39046e+00 -1.49187e+00        00000 
 3.12250e-17 -1.24900e-16        00000 
-4.61273e-01 -1.38728e+00        00000 
 4.61964e-01 -1.38723e+00        00000 
 4.29023e-16 -5.30983e-16        00000 
 1.39109e+00 -1.49193e+00        00000 
 2.33827e+00 -1.70999e+00        00000 
 2.49800e-16 -1.24900e-16        00000 
 3.31872e+00 -2.06086e+00        00000 
 4.35298e+00 -2.57818e+00        00000 
 1.99840e-15 -2.49800e-16        00000 
 5.47547e+00 -3.31785e+00        00000 
 6.75547e+00 -4.37625e+00        00000 
-3.77722e-16  4.53149e-15        00000 
 8.37506e+00 -5.93785e+00        00000 
 1.10328e+01 -8.43159e+00        00000 
-4.14405e+01 -3.33695e+01        00000 
-5.57529e+01 -4.51248e+01        00000 
-4.68032e+01 -4.07361e+01        00000 
-2.76203e+01 -2.57178e+01        00000 
-3.87078e+01 -3.68968e+01        00000 
-3.15010e+01 -3.37101e+01        00000 
-1.71841e+01 -2.09402e+01        00000 
-2.49882e+01 -3.11693e+01        00000 
-1.89811e+01 -2.92255e+01        00000 
-8.28674e+00 -1.84078e+01        00000 
-1.33283e+01 -2.78230e+01        00000 
-7.90878e+00 -2.69149e+01        00000 
 5.83253e-04 -1.76177e+01        00000 
-2.62173e+00 -2.64688e+01        00000 
 2.62258e+00 -2.64685e+01        00000 
 8.28803e+00 -1.84069e+01        00000 
 7.90982e+00 -2.69141e+01        00000 
 1.33296e+01 -2.78218e+01        00000 
 1.71858e+01 -2.09389e+01        00000 
 1.89827e+01 -2.92241e+01        00000 
 2.49898e+01 -3.11677e+01        00000 
 2.76215e+01 -2.57163e+01        00000 
 3.15024e+01 -3.37083e+01        00000 
 3.87090e+01 -3.68953e+01        00000 
 4.14412e+01 -3.33682e+01        00000 
 4.68042e+01 -4.07345e+01        00000 
 5.57536e+01 -4.51232e+01        00000 
-7.84379e+01 -7.66249e+01        00000 
-9.35121e+01 -9.21173e+01        00000 
-8.05258e+01 -8.82686e+01        00000 
-5.58712e+01 -6.97986e+01        00000 
-6.82335e+01 -8.49183e+01        00000 
-5.65777e+01 -8.20382e+01        00000 
-3.57830e+01 -6.48305e+01        00000 
-4.54870e+01 -7.96288e+01        00000 
-3.48743e+01 -7.76977e+01        00000 
-1.74542e+01 -6.18623e+01        00000 
-2.46394e+01 -7.62495e+01        00000 
-1.46755e+01 -7.52850e+01        00000 
-4.77070e-04 -6.08802e+01        00000 
-4.87451e+00 -7.48032e+01        00000 
 4.87274e+00 -7.48030e+01        00000 
 1.74533e+01 -6.18618e+01        00000 
 1.46740e+01 -7.52846e+01        00000 
 2.46377e+01 -7.62489e+01        00000 
 3.57820e+01 -6.48293e+01        00000 
 3.48724e+01 -7.76972e+01        00000 
 4.54852e+01 -7.96279e+01        00000 
 5.58711e+01 -6.97962e+01        00000 
 5.65764e+01 -8.20367e+01        00000 
 6.82329e+01 -8.49163e+01        00000 
 7.84388e+01 -7.66216e+01        00000 
 8.05261e+01 -8.82662e+01        00000 
 9.35131e+01 -9.21145e+01        00000 
-1.10623e+02 -1.36075e+02        00000 
-1.26401e+02 -1.55177e+02        00000 
-1.09618e+02 -1.51884e+02        00000 
-8.02433e+01 -1.30234e+02        00000 
-9.35382e+01 -1.49034e+02        00000 
-7.80758e+01 -1.46595e+02        00000 
-5.21660e+01 -1.25988e+02        00000 
-6.31430e+01 -1.44559e+02        00000 
-4.86489e+01 -1.42925e+02        00000 
-2.56771e+01 -1.23416e+02        00000 
-3.45001e+01 -1.41696e+02        00000 
-2.06005e+01 -1.40874e+02        00000 
-1.82934e-03 -1.22555e+02        00000 
-6.85145e+00 -1.40463e+02        00000 
 6.84713e+00 -1.40463e+02        00000 
 2.56734e+01 -1.23416e+02        00000 
 2.05962e+01 -1.40874e+02        00000 
 3.44955e+01 -1.41696e+02        00000 
 5.21616e+01 -1.25988e+02        00000 
 4.86441e+01 -1.42925e+02        00000 
 6.31379e+01 -1.44559e+02        00000 
 8.02393e+01 -1.30234e+02        00000 
 7.80709e+01 -1.46595e+02        00000 
 9.35331e+01 -1.49034e+02        00000 
 1.10619e+02 -1.36074e+02        00000 
 1.09613e+02 -1.51884e+02        00000 
 1.26396e+02 -1.55176e+02        00000 
-1.37962e+02 -2.10370e+02        00000 
-1.54137e+02 -2.32503e+02        00000 
-1.34101e+02 -2.29779e+02        00000 
-1.00798e+02 -2.05506e+02        00000 
-1.14774e+02 -2.27426e+02        00000 
-9.60663e+01 -2.25418e+02        00000 
-6.59187e+01 -2.01994e+02        00000 
-7.78820e+01 -2.23746e+02        00000 
-6.01279e+01 -2.22409e+02        00000 
-3.25747e+01 -1.99877e+02        00000 
-4.27091e+01 -2.21405e+02        00000 
-2.55310e+01 -2.20735e+02        00000 
-3.66386e-03 -1.99170e+02        00000 
-8.49683e+00 -2.20400e+02        00000 
 8.48881e+00 -2.20400e+02        00000 
 3.25677e+01 -1.99877e+02        00000 
 2.55230e+01 -2.20735e+02        00000 
 4.27016e+01 -2.21404e+02        00000 
 6.59114e+01 -2.01993e+02        00000 
 6.01200e+01 -2.22407e+02        00000 
 7.78738e+01 -2.23744e+02        00000 
 1.00789e+02 -2.05505e+02        00000 
 9.60571e+01 -2.25416e+02        00000 
 1.14764e+02 -2.27424e+02        00000 
 1.37951e+02 -2.10368e+02        00000 
 1.34089e+02 -2.29776e+02        00000 
 1.54125e+02 -2.32499e+02        00000 
-1.60357e+02 -2.97119e+02        00000 
-1.76614e+02 -3.21654e+02        00000 
-1.53935e+02 -3.19502e+02        00000 
-1.17601e+02 -2.93229e+02        00000 
-1.31965e+02 -3.17646e+02        00000 
-1.10612e+02 -3.16064e+02        00000 
-7.71266e+01 -2.90432e+02        00000 
-8.97821e+01 -3.14752e+02        00000 
-6.93828e+01 -3.13705e+02        00000 
-3.81817e+01 -2.88755e+02        00000 
-4.93195e+01 -3.12921e+02        00000 
-2.94972e+01 -3.12400e+02        00000 
-5.26664e-03 -2.88196e+02        00000 
-9.81999e+00 -3.12140e+02        00000 
 9.80873e+00 -3.12139e+02        00000 
 3.81711e+01 -2.88753e+02        00000 
 2.94858e+01 -3.12399e+02        00000 
 4.93076e+01 -3.12920e+02        00000 
 7.71151e+01 -2.90429e+02        00000 
 6.93702e+01 -3.13702e+02        00000 
 8.97689e+01 -3.14748e+02        00000 
 1.17588e+02 -2.93225e+02        00000 
 1.10598e+02 -3.16060e+02        00000 
 1.31951e+02 -3.17640e+02        00000 
 1.60342e+02 -2.97113e+02        00000 
 1.53920e+02 -3.19497e+02        00000 
 1.76599e+02 -3.21648e+02        00000 
-1.77801e+02 -3.93802e+02        00000 
-1.93844e+02 -4.20112e+02        00000 
-1.69128e+02 -4.18528e+02        00000 
-1.30659e+02 -3.90891e+02        00000 
-1.45108e+02 -4.17170e+02        00000 
-1.21702e+02 -4.16027e+02        00000 
-8.57987e+01 -3.88829e+02        00000 
-9.88253e+01 -4.15090e+02        00000 
-7.63923e+01 -4.14353e+02        00000 
-4.25026e+01 -3.87613e+02        00000 
-5.43113e+01 -4.13808e+02        00000 
-3.24863e+01 -4.13448e+02        00000 
-7.12855e-03 -3.87212e+02        00000 
-1.08163e+01 -4.13270e+02        00000 
 1.08014e+01 -4.13269e+02        00000 
 4.24878e+01 -3.87611e+02        00000 
 3.24710e+01 -4.13447e+02        00000 
 5.42958e+01 -4.13805e+02        00000 
 8.57824e+01 -3.88826e+02        00000 
 7.63761e+01 -4.14350e+02        00000 
 9.88083e+01 -4.15087e+02        00000 
 1.30642e+02 -3.90887e+02        00000 
 1.21684e+02 -4.16023e+02        00000 
 1.45091e+02 -4.17166e+02        00000 
 1.77785e+02 -3.93798e+02        00000 
 1.69111e+02 -4.18524e+02        00000 
 1.93829e+02 -4.20108e+02        00000 
-1.90381e+02 -4.97916e+02        00000 
-2.06007e+02 -5.25422e+02        00000 
-1.79752e+02 -5.24381e+02        00000 
-1.39911e+02 -4.96001e+02        00000 
-1.54161e+02 -5.23534e+02        00000 
-1.29206e+02 -5.22862e+02        00000 
-9.18019e+01 -4.94747e+02        00000 
-1.04839e+02 -5.22341e+02        00000 
-8.09838e+01 -5.21948e+02        00000 
-4.54428e+01 -4.94053e+02        00000 
-5.75432e+01 -5.21666e+02        00000 
-3.44064e+01 -5.21483e+02        00000 
-8.86969e-03 -4.93831e+02        00000 
-1.14543e+01 -5.21393e+02        00000 
 1.14358e+01 -5.21393e+02        00000 
 4.54251e+01 -4.94051e+02        00000 
 3.43878e+01 -5.21482e+02        00000 
 5.75250e+01 -5.21664e+02        00000 
 9.17846e+01 -4.94744e+02        00000 
 8.09660e+01 -5.21946e+02        00000 
 1.04822e+02 -5.22339e+02        00000 
 1.39894e+02 -4.95998e+02        00000 
 1.29189e+02 -5.22860e+02        00000 
 1.54144e+02 -5.23531e+02        00000 
 1.90364e+02 -4.97913e+02        00000 
 1.79735e+02 -5.24379e+02        00000 
 2.05990e+02 -5.25419e+02        00000 
-1.98392e+02 -6.07415e+02        00000 
-2.13752e+02 -6.36039e+02        00000 
-1.85838e+02 -6.35520e+02        00000 
-1.45117e+02 -6.06512e+02        00000 
-1.58893e+02 -6.35122e+02        00000 
-1.32880e+02 -6.34750e+02        00000 
-9.49159e+01 -6.05901e+02        00000 
-1.07663e+02 -6.34393e+02        00000 
-8.30874e+01 -6.34067e+02        00000 
-4.69123e+01 -6.05493e+02        00000 
-5.90046e+01 -6.33796e+02        00000 
-3.52691e+01 -6.33603e+02        00000 
-1.01191e-02 -6.05345e+02        00000 
-1.17405e+01 -6.33501e+02        00000 
 1.17197e+01 -6.33501e+02        00000 
 4.68924e+01 -6.05491e+02        00000 
 3.52484e+01 -6.33602e+02        00000 
 5.89844e+01 -6.33795e+02        00000 
 9.48969e+01 -6.05898e+02        00000 
 8.30677e+01 -6.34065e+02        00000 
 1.07644e+02 -6.34391e+02        00000 
 1.45099e+02 -6.06509e+02        00000 
 1.32862e+02 -6.34748e+02        00000 
 1.58877e+02 -6.35120e+02        00000 
 1.98376e+02 -6.07412e+02        00000 
 1.85822e+02 -6.35518e+02        00000 
 2.13736e+02 -6.36038e+02        00000 
-1.59750e+01 -1.24088e+01        00000 
-2.78245e+01 -2.24622e+01        00000 
-1.03071e+01 -8.06361e+00        00000 
-1.80733e+01 -1.59654e+01        00000 
-5.89242e+00 -5.92267e+00        00000 
-1.08147e+01 -1.24272e+01        00000 
-1.92335e+00 -5.01540e+00        00000 
-4.50136e+00 -1.07445e+01        00000 
 1.92448e+00 -5.01522e+00        00000 
 1.49316e+00 -1.04292e+01        00000 
 5.89358e+00 -5.92212e+00        00000 
 7.58932e+00 -1.13949e+01        00000 
 1.03084e+01 -8.06302e+00        00000 
 1.42683e+01 -1.39122e+01        00000 
 1.59755e+01 -1.24082e+01        00000 
 2.24548e+01 -1.87441e+01        00000 
 2.78397e+01 -2.17263e+01        00000 
 3.50269e+01 -2.72753e+01        00000 
-5.10010e+01 -4.91220e+01        00000 
-6.42620e+01 -6.24582e+01        00000 
-3.41311e+01 -4.28393e+01        00000 
-4.44713e+01 -5.57694e+01        00000 
-1.96258e+01 -3.88048e+01        00000 
-2.71350e+01 -5.11891e+01        00000 
-6.40856e+00 -3.68682e+01        00000 
-1.13616e+01 -4.87028e+01        00000 
 6.40902e+00 -3.68678e+01        00000 
 3.76962e+00 -4.82121e+01        00000 
 1.96266e+01 -3.88037e+01        00000 
 1.91126e+01 -4.96900e+01        00000 
 3.41323e+01 -4.28374e+01        00000 
 3.55472e+01 -5.32101e+01        00000 
 5.10021e+01 -4.91199e+01        00000 
 5.40212e+01 -5.88551e+01        00000 
 7.08822e+01 -5.72692e+01        00000 
 7.52222e+01 -6.65731e+01        00000 
-8.15040e+01 -1.00992e+02        00000 
-9.56444e+01 -1.18148e+02        00000 
-5.61711e+01 -9.54947e+01        00000 
-6.77731e+01 -1.12390e+02        00000 
-3.28593e+01 -9.17776e+01        00000 
-4.20539e+01 -1.08379e+02        00000 
-1.08116e+01 -8.99103e+01        00000 
-1.77632e+01 -1.06136e+02        00000 
 1.08094e+01 -8.99102e+01        00000 
 5.90191e+00 -1.05685e+02        00000 
 3.28568e+01 -9.17776e+01        00000 
 2.97759e+01 -1.07034e+02        00000 
 5.61687e+01 -9.54941e+01        00000 
 5.46839e+01 -1.10165e+02        00000 
 8.15029e+01 -1.00991e+02        00000 
 8.13958e+01 -1.15048e+02        00000 
 1.09489e+02 -1.08075e+02        00000 
 1.10586e+02 -1.21720e+02        00000 
-1.07618e+02 -1.68657e+02        00000 
-1.22439e+02 -1.89197e+02        00000 
-7.49374e+01 -1.64031e+02        00000 
-8.75038e+01 -1.84373e+02        00000 
-4.41807e+01 -1.60919e+02        00000 
-5.46695e+01 -1.81036e+02        00000 
-1.45969e+01 -1.59355e+02        00000 
-2.31878e+01 -1.79177e+02        00000 
 1.45917e+01 -1.59355e+02        00000 
 7.70882e+00 -1.78804e+02        00000 
 4.41752e+01 -1.60919e+02        00000 
 3.88008e+01 -1.79921e+02        00000 
 7.49315e+01 -1.64032e+02        00000 
 7.08636e+01 -1.82520e+02        00000 
 1.07611e+02 -1.68657e+02        00000 
 1.04655e+02 -1.86594e+02        00000 
 1.42953e+02 -1.74667e+02        00000 
 1.40914e+02 -1.92204e+02        00000 
-1.29390e+02 -2.50009e+02        00000 