<?xml version="1.0" encoding="utf-8"?>
<VTKFile byte_order="LittleEndian" type="UnstructuredGrid" version="0.1">
   <UnstructuredGrid>
      <Piece NumberOfCells="1296" NumberOfPoints="685">
         <Points>
            <DataArray Name="Points" NumberOfComponents="3" format="ascii" type="Float32">
0.0000 0.0000 0.0000
0.0000 0.1111 0.0000
0.0000 0.2222 0.0000
0.0000 0.3333 0.0000
0.0000 0.4444 0.0000
0.0000 0.5556 0.0000
0.0000 0.6667 0.0000
0.0000 0.7778 0.0000
0.0000 0.8889 0.0000
0.0000 1.0000 0.0000
0.2222 0.0000 0.0000
0.2222 0.1111 0.0000
0.2222 0.2222 0.0000
0.2222 0.3333 0.0000
0.2222 0.4444 0.0000
0.2222 0.5556 0.0000
0.2222 0.6667 0.0000
0.2222 0.7778 0.0000
0.2222 0.8889 0.0000
0.2222 1.0000 0.0000
0.4444 0.0000 0.0000
0.4444 0.1111 0.0000
0.4444 0.2222 0.0000
0.4444 0.3333 0.0000
0.4444 0.4444 0.0000
0.4444 0.5556 0.0000
0.4444 0.6667 0.0000
0.4444 0.7778 0.0000
0.4444 0.8889 0.0000
0.4444 1.0000 0.0000
0.6667 0.0000 0.0000
0.6667 0.1111 0.0000
0.6667 0.2222 0.0000
0.6667 0.3333 0.0000
0.6667 0.4444 0.0000
0.6667 0.5556 0.0000
0.6667 0.6667 0.0000
0.6667 0.7778 0.0000
0.6667 0.8889 0.0000
0.6667 1.0000 0.0000
0.8889 0.0000 0.0000
0.8889 0.1111 0.0000
0.8889 0.2222 0.0000
0.8889 0.3333 0.0000
0.8889 0.4444 0.0000
0.8889 0.5556 0.0000
0.8889 0.6667 0.0000
0.8889 0.7778 0.0000
0.8889 0.8889 0.0000
0.8889 1.0000 0.0000
1.1111 0.0000 0.0000
1.1111 0.1111 0.0000
1.1111 0.2222 0.0000
1.1111 0.3333 0.0000
1.1111 0.4444 0.0000
1.1111 0.5556 0.0000
1.1111 0.6667 0.0000
1.1111 0.7778 0.0000
1.1111 0.8889 0.0000
1.1111 1.0000 0.0000
1.3333 0.0000 0.0000
1.3333 0.1111 0.0000
1.3333 0.2222 0.0000
1.3333 0.3333 0.0000
1.3333 0.4444 0.0000
1.3333 0.5556 0.0000
1.3333 0.6667 0.0000
1.3333 0.7778 0.0000
1.3333 0.8889 0.0000
1.3333 1.0000 0.0000
1.5556 0.0000 0.0000
1.5556 0.1111 0.0000
1.5556 0.2222 0.0000
1.5556 0.3333 0.0000
1.5556 0.4444 0.0000
1.5556 0.5556 0.0000
1.5556 0.6667 0.0000
1.5556 0.7778 0.0000
1.5556 0.8889 0.0000
1.5556 1.0000 0.0000
1.7778 0.0000 0.0000
1.7778 0.1111 0.0000
1.7778 0.2222 0.0000
1.7778 0.3333 0.0000
1.7778 0.4444 0.0000
1.7778 0.5556 0.0000
1.7778 0.6667 0.0000
1.7778 0.7778 0.0000
1.7778 0.8889 0.0000
1.7778 1.0000 0.0000
2.0000 0.0000 0.0000
2.0000 0.1111 0.0000
2.0000 0.2222 0.0000
2.0000 0.3333 0.0000
2.0000 0.4444 0.0000
2.0000 0.5556 0.0000
2.0000 0.6667 0.0000
2.0000 0.7778 0.0000
2.0000 0.8889 0.0000
2.0000 1.0000 0.0000
0.1111 0.0556 0.0000
0.1111 0.1667 0.0000
0.1111 0.2778 0.0000
0.1111 0.3889 0.0000
0.1111 0.5000 0.0000
0.1111 0.6111 0.0000
0.1111 0.7222 0.0000
0.1111 0.8333 0.0000
0.1111 0.9444 0.0000
0.3333 0.0556 0.0000
0.3333 0.1667 0.0000
0.3333 0.2778 0.0000
0.3333 0.3889 0.0000
0.3333 0.5000 0.0000
0.3333 0.6111 0.0000
0.3333 0.7222 0.0000
0.3333 0.8333 0.0000
0.3333 0.9444 0.0000
0.5556 0.0556 0.0000
0.5556 0.1667 0.0000
0.5556 0.2778 0.0000
0.5556 0.3889 0.0000
0.5556 0.5000 0.0000
0.5556 0.6111 0.0000
0.5556 0.7222 0.0000
0.5556 0.8333 0.0000
0.5556 0.9444 0.0000
0.7778 0.0556 0.0000
0.7778 0.1667 0.0000
0.7778 0.2778 0.0000
0.7778 0.3889 0.0000
0.7778 0.5000 0.0000
0.7778 0.6111 0.0000
0.7778 0.7222 0.0000
0.7778 0.8333 0.0000
0.7778 0.9444 0.0000
1.0000 0.0556 0.0000
1.0000 0.1667 0.0000
1.0000 0.2778 0.0000
1.0000 0.3889 0.0000
1.0000 0.5000 0.0000
1.0000 0.6111 0.0000
1.0000 0.7222 0.0000
1.0000 0.8333 0.0000
1.0000 0.9444 0.0000
1.2222 0.0556 0.0000
1.2222 0.1667 0.0000
1.2222 0.2778 0.0000
1.2222 0.3889 0.0000
1.2222 0.5000 0.0000
1.2222 0.6111 0.0000
1.2222 0.7222 0.0000
1.2222 0.8333 0.0000
1.2222 0.9444 0.0000
1.4444 0.0556 0.0000
1.4444 0.1667 0.0000
1.4444 0.2778 0.0000
1.4444 0.3889 0.0000
1.4444 0.5000 0.0000
1.4444 0.6111 0.0000
1.4444 0.7222 0.0000
1.4444 0.8333 0.0000
1.4444 0.9444 0.0000
1.6667 0.0556 0.0000
1.6667 0.1667 0.0000
1.6667 0.2778 0.0000
1.6667 0.3889 0.0000
1.6667 0.5000 0.0000
1.6667 0.6111 0.0000
1.6667 0.7222 0.0000
1.6667 0.8333 0.0000
1.6667 0.9444 0.0000
1.8889 0.0556 0.0000
1.8889 0.1667 0.0000
1.8889 0.2778 0.0000
1.8889 0.3889 0.0000
1.8889 0.5000 0.0000
1.8889 0.6111 0.0000
1.8889 0.7222 0.0000
1.8889 0.8333 0.0000
1.8889 0.9444 0.0000
0.0000 0.0556 0.0000
0.0556 0.0278 0.0000
0.0556 0.0833 0.0000
0.0000 0.1667 0.0000
0.0556 0.1389 0.0000
0.0556 0.1944 0.0000
0.0000 0.2778 0.0000
0.0556 0.2500 0.0000
0.0556 0.3056 0.0000
0.0000 0.3889 0.0000
0.0556 0.3611 0.0000
0.0556 0.4167 0.0000
0.0000 0.5000 0.0000
0.0556 0.4722 0.0000
0.0556 0.5278 0.0000
0.0000 0.6111 0.0000
0.0556 0.5833 0.0000
0.0556 0.6389 0.0000
0.0000 0.7222 0.0000
0.0556 0.6944 0.0000
0.0556 0.7500 0.0000
0.0000 0.8333 0.0000
0.0556 0.8056 0.0000
0.0556 0.8611 0.0000
0.0000 0.9444 0.0000
0.0556 0.9167 0.0000
0.0556 0.9722 0.0000
0.2222 0.0556 0.0000
0.2778 0.0278 0.0000
0.2778 0.0833 0.0000
0.2222 0.1667 0.0000
0.2778 0.1389 0.0000
0.2778 0.1944 0.0000
0.2222 0.2778 0.0000
0.2778 0.2500 0.0000
0.2778 0.3056 0.0000
0.2222 0.3889 0.0000
0.2778 0.3611 0.0000
0.2778 0.4167 0.0000
0.2222 0.5000 0.0000
0.2778 0.4722 0.0000
0.2778 0.5278 0.0000
0.2222 0.6111 0.0000
0.2778 0.5833 0.0000
0.2778 0.6389 0.0000
0.2222 0.7222 0.0000
0.2778 0.6944 0.0000
0.2778 0.7500 0.0000
0.2222 0.8333 0.0000
0.2778 0.8056 0.0000
0.2778 0.8611 0.0000
0.2222 0.9444 0.0000
0.2778 0.9167 0.0000
0.2778 0.9722 0.0000
0.4444 0.0556 0.0000
0.5000 0.0278 0.0000
0.5000 0.0833 0.0000
0.4444 0.1667 0.0000
0.5000 0.1389 0.0000
0.5000 0.1944 0.0000
0.4444 0.2778 0.0000
0.5000 0.2500 0.0000
0.5000 0.3056 0.0000
0.4444 0.3889 0.0000
0.5000 0.3611 0.0000
0.5000 0.4167 0.0000
0.4444 0.5000 0.0000
0.5000 0.4722 0.0000
0.5000 0.5278 0.0000
0.4444 0.6111 0.0000
0.5000 0.5833 0.0000
0.5000 0.6389 0.0000
0.4444 0.7222 0.0000
0.5000 0.6944 0.0000
0.5000 0.7500 0.0000
0.4444 0.8333 0.0000
0.5000 0.8056 0.0000
0.5000 0.8611 0.0000
0.4444 0.9444 0.0000
0.5000 0.9167 0.0000
0.5000 0.9722 0.0000
0.6667 0.0556 0.0000
0.7222 0.0278 0.0000
0.7222 0.0833 0.0000
0.6667 0.1667 0.0000
0.7222 0.1389 0.0000
0.7222 0.1944 0.0000
0.6667 0.2778 0.0000
0.7222 0.2500 0.0000
0.7222 0.3056 0.0000
0.6667 0.3889 0.0000
0.7222 0.3611 0.0000
0.7222 0.4167 0.0000
0.6667 0.5000 0.0000
0.7222 0.4722 0.0000
0.7222 0.5278 0.0000
0.6667 0.6111 0.0000
0.7222 0.5833 0.0000
0.7222 0.6389 0.0000
0.6667 0.7222 0.0000
0.7222 0.6944 0.0000
0.7222 0.7500 0.0000
0.6667 0.8333 0.0000
0.7222 0.8056 0.0000
0.7222 0.8611 0.0000
0.6667 0.9444 0.0000
0.7222 0.9167 0.0000
0.7222 0.9722 0.0000
0.8889 0.0556 0.0000
0.9444 0.0278 0.0000
0.9444 0.0833 0.0000
0.8889 0.1667 0.0000
0.9444 0.1389 0.0000
0.9444 0.1944 0.0000
0.8889 0.2778 0.0000
0.9444 0.2500 0.0000
0.9444 0.3056 0.0000
0.8889 0.3889 0.0000
0.9444 0.3611 0.0000
0.9444 0.4167 0.0000
0.8889 0.5000 0.0000
0.9444 0.4722 0.0000
0.9444 0.5278 0.0000
0.8889 0.6111 0.0000
0.9444 0.5833 0.0000
0.9444 0.6389 0.0000
0.8889 0.7222 0.0000
0.9444 0.6944 0.0000
0.9444 0.7500 0.0000
0.8889 0.8333 0.0000
0.9444 0.8056 0.0000
0.9444 0.8611 0.0000
0.8889 0.9444 0.0000
0.9444 0.9167 0.0000
0.9444 0.9722 0.0000
1.1111 0.0556 0.0000
1.1667 0.0278 0.0000
1.1667 0.0833 0.0000
1.1111 0.1667 0.0000
1.1667 0.1389 0.0000
1.1667 0.1944 0.0000
1.1111 0.2778 0.0000
1.1667 0.2500 0.0000
1.1667 0.3056 0.0000
1.1111 0.3889 0.0000
1.1667 0.3611 0.0000
1.1667 0.4167 0.0000
1.1111 0.5000 0.0000
1.1667 0.4722 0.0000
1.1667 0.5278 0.0000
1.1111 0.6111 0.0000
1.1667 0.5833 0.0000
1.1667 0.6389 0.0000
1.1111 0.7222 0.0000
1.1667 0.6944 0.0000
1.1667 0.7500 0.0000
1.1111 0.8333 0.0000
1.1667 0.8056 0.0000
1.1667 0.8611 0.0000
1.1111 0.9444 0.0000
1.1667 0.9167 0.0000
1.1667 0.9722 0.0000
1.3333 0.0556 0.0000
1.3889 0.0278 0.0000
1.3889 0.0833 0.0000
1.3333 0.1667 0.0000
1.3889 0.1389 0.0000
1.3889 0.1944 0.0000
1.3333 0.2778 0.0000
1.3889 0.2500 0.0000
1.3889 0.3056 0.0000
1.3333 0.3889 0.0000
1.3889 0.3611 0.0000
1.3889 0.4167 0.0000
1.3333 0.5000 0.0000
1.3889 0.4722 0.0000
1.3889 0.5278 0.0000
1.3333 0.6111 0.0000
1.3889 0.5833 0.0000
1.3889 0.6389 0.0000
1.3333 0.7222 0.0000
1.3889 0.6944 0.0000
1.3889 0.7500 0.0000
1.3333 0.8333 0.0000
1.3889 0.8056 0.0000
1.3889 0.8611 0.0000
1.3333 0.9444 0.0000
1.3889 0.9167 0.0000
1.3889 0.9722 0.0000
1.5556 0.0556 0.0000
1.6111 0.0278 0.0000
1.6111 0.0833 0.0000
1.5556 0.1667 0.0000
1.6111 0.1389 0.0000
1.6111 0.1944 0.0000
1.5556 0.2778 0.0000
1.6111 0.2500 0.0000
1.6111 0.3056 0.0000
1.5556 0.3889 0.0000
1.6111 0.3611 0.0000
1.6111 0.4167 0.0000
1.5556 0.5000 0.0000
1.6111 0.4722 0.0000
1.6111 0.5278 0.0000
1.5556 0.6111 0.0000
1.6111 0.5833 0.0000
1.6111 0.6389 0.0000
1.5556 0.7222 0.0000
1.6111 0.6944 0.0000
1.6111 0.7500 0.0000
1.5556 0.8333 0.0000
1.6111 0.8056 0.0000
1.6111 0.8611 0.0000
1.5556 0.9444 0.0000
1.6111 0.9167 0.0000
1.6111 0.9722 0.0000
1.7778 0.0556 0.0000
1.8333 0.0278 0.0000
1.8333 0.0833 0.0000
1.7778 0.1667 0.0000
1.8333 0.1389 0.0000
1.8333 0.1944 0.0000
1.7778 0.2778 0.0000
1.8333 0.2500 0.0000
1.8333 0.3056 0.0000
1.7778 0.3889 0.0000
1.8333 0.3611 0.0000
1.8333 0.4167 0.0000
1.7778 0.5000 0.0000
1.8333 0.4722 0.0000
1.8333 0.5278 0.0000
1.7778 0.6111 0.0000
1.8333 0.5833 0.0000
1.8333 0.6389 0.0000
1.7778 0.7222 0.0000
1.8333 0.6944 0.0000
1.8333 0.7500 0.0000
1.7778 0.8333 0.0000
1.8333 0.8056 0.0000
1.8333 0.8611 0.0000
1.7778 0.9444 0.0000
1.8333 0.9167 0.0000
1.8333 0.9722 0.0000
0.1111 0.1111 0.0000
0.1667 0.0833 0.0000
0.1111 0.2222 0.0000
0.1667 0.1944 0.0000
0.1111 0.3333 0.0000
0.1667 0.3056 0.0000
0.1111 0.4444 0.0000
0.1667 0.4167 0.0000
0.1111 0.5556 0.0000
0.1667 0.5278 0.0000
0.1111 0.6667 0.0000
0.1667 0.6389 0.0000
0.1111 0.7778 0.0000
0.1667 0.7500 0.0000
0.1111 0.8889 0.0000
0.1667 0.8611 0.0000
0.1111 1.0000 0.0000
0.1667 0.9722 0.0000
0.3333 0.1111 0.0000
0.3889 0.0833 0.0000
0.3333 0.2222 0.0000
0.3889 0.1944 0.0000
0.3333 0.3333 0.0000
0.3889 0.3056 0.0000
0.3333 0.4444 0.0000
0.3889 0.4167 0.0000
0.3333 0.5556 0.0000
0.3889 0.5278 0.0000
0.3333 0.6667 0.0000
0.3889 0.6389 0.0000
0.3333 0.7778 0.0000
0.3889 0.7500 0.0000
0.3333 0.8889 0.0000
0.3889 0.8611 0.0000
0.3333 1.0000 0.0000
0.3889 0.9722 0.0000
0.5556 0.1111 0.0000
[...]
         <PointData>
            <DataArray Name="fValues" NumberOfComponents="3" format="ascii" type="Float64">
 1.83565e-15 -9.17824e-16        00000 
-5.94246e-16 -8.25341e-18        00000 
 6.04758e-16  7.08323e-18        00000 
-6.57565e-17        00000        00000 
-9.18003e-17  4.68027e-17        00000 
 4.10978e-17  4.10978e-17        00000 
 5.46667e-17  7.73585e-18        00000 
 3.69546e-17  1.23182e-17        00000 
 5.94388e-16 -2.80683e-16        00000 
 3.05941e-16  3.05941e-16        00000 
-1.83070e+01 -1.02267e+01        00000 
-1.39193e+01 -6.54240e+00        00000 
-9.17325e+00 -3.68846e+00        00000 
-4.90570e+00 -2.37216e+00        00000 
-2.14986e+00 -1.83110e+00        00000 
-5.11847e-01 -1.95229e+00        00000 
 2.10943e+00 -2.86092e+00        00000 
 4.89363e+00 -4.15274e+00        00000 
 8.47728e+00 -6.16995e+00        00000 
 1.34024e+01 -8.87693e+00        00000 
-3.50679e+01 -2.15472e+01        00000 
-2.65396e+01 -1.89472e+01        00000 
-1.81385e+01 -1.71762e+01        00000 
-1.10605e+01 -1.54186e+01        00000 
-5.15531e+00 -1.41511e+01        00000 
 1.40886e+00 -1.40416e+01        00000 
 6.66646e+00 -1.52677e+01        00000 
 1.23197e+01 -1.70950e+01        00000 
 1.90589e+01 -1.95674e+01        00000 
 2.68540e+01 -2.27423e+01        00000 
-4.80117e+01 -4.31691e+01        00000 
-3.61779e+01 -4.07533e+01        00000 
-2.63579e+01 -3.84775e+01        00000 
-1.73646e+01 -3.64515e+01        00000 
-7.38051e+00 -3.48896e+01        00000 
 1.80214e+00 -3.37549e+01        00000 
 1.03927e+01 -3.40228e+01        00000 
 1.94773e+01 -3.56795e+01        00000 
 3.00324e+01 -3.79090e+01        00000 
 4.15317e+01 -4.08084e+01        00000 
-5.83865e+01 -7.03512e+01        00000 
-4.54654e+01 -6.77392e+01        00000 
-3.36826e+01 -6.59225e+01        00000 
-2.23525e+01 -6.46001e+01        00000 
-1.09010e+01 -6.31526e+01        00000 
 2.00528e+00 -6.23101e+01        00000 
 1.53719e+01 -6.24970e+01        00000 
 2.87233e+01 -6.40800e+01        00000 
 4.26539e+01 -6.65988e+01        00000 
 5.69897e+01 -6.99329e+01        00000 
-7.02005e+01 -1.00783e+02        00000 
-5.36682e+01 -9.86146e+01        00000 
-3.88161e+01 -9.69996e+01        00000 
-2.46660e+01 -9.57875e+01        00000 
-1.04181e+01 -9.61492e+01        00000 
 4.39970e+00 -9.68418e+01        00000 
 2.01341e+01 -9.76659e+01        00000 
 3.65563e+01 -9.89726e+01        00000 
 5.39275e+01 -1.00659e+02        00000 
 7.21588e+01 -1.03418e+02        00000 
-8.27192e+01 -1.39423e+02        00000 
-6.24100e+01 -1.37365e+02        00000 
-4.37020e+01 -1.36280e+02        00000 
-2.62820e+01 -1.36203e+02        00000 
-9.26573e+00 -1.36641e+02        00000 
 6.70988e+00 -1.37677e+02        00000 
 2.36273e+01 -1.38600e+02        00000 
 4.26880e+01 -1.39872e+02        00000 
 6.29363e+01 -1.41133e+02        00000 
 8.46380e+01 -1.43111e+02        00000 
-9.57080e+01 -1.88104e+02        00000 
-7.10669e+01 -1.85598e+02        00000 
-4.87630e+01 -1.83774e+02        00000 
-2.82068e+01 -1.83020e+02        00000 
-9.57677e+00 -1.83211e+02        00000 
 8.90640e+00 -1.84152e+02        00000 
 2.73613e+01 -1.85636e+02        00000 
 4.74956e+01 -1.87258e+02        00000 
 6.95843e+01 -1.88334e+02        00000 
 9.28324e+01 -1.89785e+02        00000 
-1.05917e+02 -2.41178e+02        00000 
-7.80380e+01 -2.39704e+02        00000 
-5.28035e+01 -2.39176e+02        00000 
-3.11926e+01 -2.38889e+02        00000 
-1.06674e+01 -2.39187e+02        00000 
 9.52942e+00 -2.39977e+02        00000 
 2.89675e+01 -2.40689e+02        00000 
 4.90449e+01 -2.41269e+02        00000 
 7.18925e+01 -2.41716e+02        00000 
 9.83829e+01 -2.41561e+02        00000 
-1.13598e+02 -3.07234e+02        00000 
-8.06198e+01 -3.04152e+02        00000 
-5.39162e+01 -3.00397e+02        00000 
-3.17336e+01 -2.97248e+02        00000 
-1.05183e+01 -2.95906e+02        00000 
 1.09179e+01 -2.95584e+02        00000 
 3.00604e+01 -2.96207e+02        00000 
 5.14941e+01 -2.98925e+02        00000 
 7.31010e+01 -3.02394e+02        00000 
 1.01526e+02 -3.06423e+02        00000 
-7.57905e+00 -4.08130e+00        00000 
-5.17850e+00 -1.20611e+00        00000 
-3.18057e+00  2.32953e-01        00000 
-1.38155e+00  2.22003e-01        00000 
-4.72487e-01 -9.94144e-02        00000 
 1.51441e-01  1.83207e-01        00000 
 1.57187e+00 -3.13069e-01        00000 
 2.94112e+00 -1.27827e+00        00000 
 5.12181e+00 -3.13474e+00        00000 
-2.39618e+01 -1.25759e+01        00000 
-1.76130e+01 -1.00767e+01        00000 
-1.06127e+01 -8.31537e+00        00000 
-5.46889e+00 -6.71174e+00        00000 
-1.41583e+00 -6.01412e+00        00000 
 2.28630e+00 -6.97593e+00        00000 
 6.37691e+00 -8.70375e+00        00000 
 1.10299e+01 -1.08328e+01        00000 
 1.66025e+01 -1.32778e+01        00000 
-3.67498e+01 -3.05545e+01        00000 
-2.67763e+01 -2.83295e+01        00000 
-1.82238e+01 -2.59682e+01        00000 
-1.02105e+01 -2.36932e+01        00000 
-2.06286e+00 -2.29817e+01        00000 
 5.32883e+00 -2.29825e+01        00000 
 1.21699e+01 -2.42332e+01        00000 
 2.00968e+01 -2.62748e+01        00000 
 2.91152e+01 -2.90314e+01        00000 
-4.67874e+01 -5.52545e+01        00000 
-3.53726e+01 -5.27563e+01        00000 
-2.52237e+01 -5.05634e+01        00000 
-1.47101e+01 -4.88076e+01        00000 
-3.76834e+00 -4.69029e+01        00000 
 7.25484e+00 -4.64415e+01        00000 
 1.84382e+01 -4.77141e+01        00000 
 2.99384e+01 -5.03084e+01        00000 
 4.27697e+01 -5.33433e+01        00000 
-5.69619e+01 -8.31801e+01        00000 
-4.28093e+01 -8.13698e+01        00000 
-2.97421e+01 -8.01183e+01        00000 
-1.76336e+01 -7.93621e+01        00000 
-4.34549e+00 -7.91585e+01        00000 
 1.03359e+01 -7.94220e+01        00000 
 2.51878e+01 -8.00011e+01        00000 
 4.05525e+01 -8.14444e+01        00000 
 5.64302e+01 -8.36307e+01        00000 
-6.70044e+01 -1.18068e+02        00000 
-4.92705e+01 -1.16042e+02        00000 
-3.34526e+01 -1.14995e+02        00000 
-1.73964e+01 -1.14855e+02        00000 
-2.21357e+00 -1.15717e+02        00000 
 1.37513e+01 -1.16684e+02        00000 
 3.09177e+01 -1.17543e+02        00000 
 4.90168e+01 -1.19047e+02        00000 
 6.86224e+01 -1.20961e+02        00000 
-7.76204e+01 -1.61550e+02        00000 
-5.62721e+01 -1.59544e+02        00000 
-3.63083e+01 -1.58643e+02        00000 
-1.82107e+01 -1.58662e+02        00000 
-5.66454e-01 -1.59130e+02        00000 
 1.65683e+01 -1.60433e+02        00000 
 3.52767e+01 -1.62005e+02        00000 
 5.59710e+01 -1.63339e+02        00000 
 7.76486e+01 -1.65166e+02        00000 
-8.80459e+01 -2.13362e+02        00000 
-6.29529e+01 -2.11693e+02        00000 
-4.01892e+01 -2.10947e+02        00000 
-2.00502e+01 -2.10499e+02        00000 
-3.86668e-01 -2.10743e+02        00000 
 1.89250e+01 -2.11639e+02        00000 
 3.81356e+01 -2.12874e+02        00000 
 5.93547e+01 -2.13765e+02        00000 
 8.33448e+01 -2.14472e+02        00000 
-9.44414e+01 -2.70309e+02        00000 
-6.57219e+01 -2.69552e+02        00000 
-4.17993e+01 -2.68679e+02        00000 
-2.07978e+01 -2.68204e+02        00000 
 9.95238e-02 -2.68169e+02        00000 
 1.98436e+01 -2.68921e+02        00000 
 3.93883e+01 -2.69666e+02        00000 
 6.08973e+01 -2.71262e+02        00000 
 8.54692e+01 -2.72024e+02        00000 
-9.35586e-16  1.31955e-16        00000 
-4.03981e+00 -2.47636e+00        00000 
-3.40601e+00 -1.31198e+00        00000 
 1.14821e-15  1.54945e-16        00000 
-2.75304e+00 -5.13463e-01        00000 
-2.30809e+00  1.13517e-01        00000 
-1.24900e-16  1.87350e-16        00000 
-1.87863e+00  3.79187e-01        00000 
-1.34418e+00  4.76110e-01        00000 
-1.09600e-16 -7.80045e-18        00000 
-9.85774e-01  3.67608e-01        00000 
-8.12515e-01  3.44865e-01        00000 
-9.36751e-17 -1.17094e-17        00000 
-5.85524e-01  7.17170e-02        00000 
-4.03360e-01  9.73687e-02        00000 
 3.77264e-17 -3.25143e-17        00000 
-2.33154e-01  2.31352e-01        00000 
 1.07797e-01  2.52907e-01        00000 
-3.12250e-17 -3.12250e-17        00000 
 3.28773e-01  3.50916e-01        00000 
 7.62678e-01  2.67991e-01        00000 
 2.49800e-16 -1.09288e-16        00000 
 1.00697e+00 -2.00521e-02        00000 
 1.33172e+00 -4.07812e-01        00000 
-7.60340e-16 -2.09874e-16        00000 
 1.82392e+00 -8.27733e-01        00000 
 2.62041e+00 -1.73216e+00        00000 
-1.61716e+01 -8.36132e+00        00000 
-2.15013e+01 -1.12599e+01        00000 
-1.89400e+01 -9.54167e+00        00000 
-1.17535e+01 -5.07071e+00        00000 
-1.61566e+01 -7.86199e+00        00000 
-1.32455e+01 -6.64816e+00        00000 
-6.80068e+00 -2.84176e+00        00000 
-9.99792e+00 -5.67057e+00        00000 
-7.38556e+00 -4.90095e+00        00000 
-3.24999e+00 -1.84418e+00        00000 
-5.16139e+00 -4.38682e+00        00000 
-3.35571e+00 -3.90241e+00        00000 
-1.27431e+00 -1.74990e+00        00000 
-1.91257e+00 -3.78492e+00        00000 
-7.33477e-01 -3.80047e+00        00000 
 5.78092e-01 -2.38091e+00        00000 
 6.42616e-01 -4.18142e+00        00000 
 2.21274e+00 -4.85547e+00        00000 
 3.37629e+00 -3.49309e+00        00000 
 3.92943e+00 -5.47841e+00        00000 
 5.72226e+00 -6.37157e+00        00000 
 6.48881e+00 -5.12854e+00        00000 
 7.67546e+00 -7.14518e+00        00000 
 9.93794e+00 -8.39137e+00        00000 
 1.08487e+01 -7.33119e+00        00000 
 1.23880e+01 -9.58830e+00        00000 
 1.52289e+01 -1.08481e+01        00000 
-3.07965e+01 -2.01639e+01        00000 
-3.63469e+01 -2.58923e+01        00000 
-3.15110e+01 -2.45105e+01        00000 
-2.25598e+01 -1.81033e+01        00000 
-2.69176e+01 -2.33579e+01        00000 
-2.22425e+01 -2.23721e+01        00000 
-1.46633e+01 -1.60702e+01        00000 
-1.83613e+01 -2.12540e+01        00000 
-1.44791e+01 -2.03488e+01        00000 
-8.11998e+00 -1.44200e+01        00000 
-1.09271e+01 -1.92436e+01        00000 
-7.59842e+00 -1.86261e+01        00000 
-1.90154e+00 -1.38900e+01        00000 
-3.66072e+00 -1.82417e+01        00000 
-2.11825e-01 -1.83115e+01        00000 
 3.89299e+00 -1.45056e+01        00000 
 3.20920e+00 -1.83953e+01        00000 
 5.97176e+00 -1.89082e+01        00000 
 9.23116e+00 -1.61098e+01        00000 
 9.11284e+00 -1.95157e+01        00000 
 1.22399e+01 -2.03802e+01        00000 
 1.54772e+01 -1.82908e+01        00000 
 1.60573e+01 -2.14253e+01        00000 
 1.96302e+01 -2.27245e+01        00000 
 2.27787e+01 -2.09934e+01        00000 
 2.38814e+01 -2.41812e+01        00000 
 2.79126e+01 -2.58674e+01        00000 
-4.20540e+01 -4.20585e+01        00000 
-4.75609e+01 -4.91514e+01        00000 
-4.15653e+01 -4.79370e+01        00000 
-3.10151e+01 -3.96469e+01        00000 
-3.57814e+01 -4.66185e+01        00000 
-3.08592e+01 -4.53308e+01        00000 
-2.18814e+01 -3.73645e+01        00000 
-2.60891e+01 -4.41383e+01        00000 
-2.10979e+01 -4.32363e+01        00000 
-1.25097e+01 -3.57115e+01        00000 
-1.59624e+01 -4.24290e+01        00000 
-1.09002e+01 -4.15672e+01        00000 
-2.75414e+00 -3.42048e+01        00000 
-5.74241e+00 -4.05346e+01        00000 
-8.35078e-01 -3.99231e+01        00000 
 6.05940e+00 -3.36617e+01        00000 
 4.13466e+00 -3.95842e+01        00000 
 9.09330e+00 -3.97500e+01        00000 
 1.47497e+01 -3.46512e+01        00000 
 1.40557e+01 -4.01524e+01        00000 
 1.89971e+01 -4.11833e+01        00000 
 2.46532e+01 -3.66800e+01        00000 
 2.43163e+01 -4.23091e+01        00000 
 2.99093e+01 -4.38028e+01        00000 
 3.55859e+01 -3.94110e+01        00000 
 3.59962e+01 -4.51388e+01        00000 
 4.24176e+01 -4.70998e+01        00000 
-5.17780e+01 -6.90633e+01        00000 
-5.78455e+01 -7.65913e+01        00000 
-5.10206e+01 -7.53353e+01        00000 
-3.93778e+01 -6.65888e+01        00000 
-4.42805e+01 -7.41094e+01        00000 
-3.79192e+01 -7.33064e+01        00000 
-2.77379e+01 -6.51277e+01        00000 
-3.18379e+01 -7.27867e+01        00000 
-2.59220e+01 -7.22203e+01        00000 
-1.66894e+01 -6.37930e+01        00000 
-2.02677e+01 -7.16902e+01        00000 
-1.41973e+01 -7.13050e+01        00000 
-4.56768e+00 -6.25570e+01        00000 
-7.95187e+00 -7.08072e+01        00000 
-1.16884e+00 -7.06104e+01        00000 
 8.72018e+00 -6.22582e+01        00000 
 5.90409e+00 -7.06045e+01        00000 
 1.29778e+01 -7.06501e+01        00000 
 2.19636e+01 -6.30887e+01        00000 
 2.01436e+01 -7.09597e+01        00000 
 2.72953e+01 -7.16368e+01        00000 
 3.56172e+01 -6.53100e+01        00000 
 3.47512e+01 -7.24407e+01        00000 
 4.20272e+01 -7.35586e+01        00000 
 4.97415e+01 -6.82256e+01        00000 
 4.94542e+01 -7.50716e+01        00000 
 5.69030e+01 -7.65436e+01        00000 
-6.20754e+01 -9.97675e+01        00000 
-6.88587e+01 -1.09425e+02        00000 
-6.01746e+01 -1.08110e+02        00000 
-4.60553e+01 -9.78903e+01        00000 
-5.15715e+01 -1.07133e+02        00000 
-4.39567e+01 -1.06224e+02        00000 
-3.19238e+01 -9.64352e+01        00000 
-3.65530e+01 -1.05527e+02        00000 
-2.91183e+01 -1.05030e+02        00000 
-1.76870e+01 -9.60883e+01        00000 
-2.14521e+01 -1.04911e+02        00000 
-1.40494e+01 -1.05105e+02        00000 
-3.26623e+00 -9.65191e+01        00000 
-6.58347e+00 -1.05402e+02        00000 
 9.36277e-01 -1.06005e+02        00000 
 1.20907e+01 -9.74291e+01        00000 
 8.83325e+00 -1.06559e+02        00000 
 1.68814e+01 -1.07053e+02        00000 
 2.82664e+01 -9.83993e+01        00000 
 2.51867e+01 -1.07607e+02        00000 
 3.38492e+01 -1.08101e+02        00000 
 4.51064e+01 -9.97050e+01        00000 
 4.26686e+01 -1.08840e+02        00000 
 5.17659e+01 -1.09683e+02        00000 
 6.29991e+01 -1.01875e+02        00000 
 6.10853e+01 -1.10828e+02        00000 
 7.07324e+01 -1.11886e+02        00000 
-7.20736e+01 -1.38335e+02        00000 
-8.01384e+01 -1.50188e+02        00000 
-6.95237e+01 -1.49099e+02        00000 
-5.28846e+01 -1.36576e+02        00000 
-5.94667e+01 -1.48215e+02        00000 
-4.95531e+01 -1.47589e+02        00000 
-3.47492e+01 -1.36137e+02        00000 
-4.01383e+01 -1.47315e+02        00000 
-3.09872e+01 -1.47183e+02        00000 
-1.76668e+01 -1.36486e+02        00000 
-2.22225e+01 -1.47388e+02        00000 
-1.36967e+01 -1.47553e+02        00000 
-1.30248e+00 -1.37242e+02        00000 
-5.10292e+00 -1.47863e+02        00000 
 3.13892e+00 -1.48240e+02        00000 
 1.49116e+01 -1.38237e+02        00000 
 1.13718e+01 -1.48915e+02        00000 
 1.99280e+01 -1.49661e+02        00000 
 3.29674e+01 -1.39150e+02        00000 
 2.91657e+01 -1.50218e+02        00000 
 3.91944e+01 -1.50801e+02        00000 
 5.29225e+01 -1.40318e+02        00000 
 4.94491e+01 -1.51456e+02        00000 
 5.96968e+01 -1.52129e+02        00000 
 7.36876e+01 -1.41968e+02        00000 
 7.02046e+01 -1.53203e+02        00000 
 8.13925e+01 -1.53783e+02        00000 
-8.29759e+01 -1.86524e+02        00000 
-9.19350e+01 -2.00406e+02        00000 
-7.91415e+01 -1.99513e+02        00000 
-5.97222e+01 -1.84564e+02        00000 
-6.72835e+01 -1.98342e+02        00000 
-5.55340e+01 -1.97654e+02        00000 
-3.81401e+01 -1.83237e+02        00000 
-4.45444e+01 -1.97204e+02        00000 
-3.40804e+01 -1.96848e+02        00000 
-1.88342e+01 -1.83102e+02        00000 
-2.41077e+01 -1.96527e+02        00000 
-1.44450e+01 -1.96477e+02        00000 
-4.55217e-01 -1.83492e+02        00000 
-5.04201e+00 -1.96634e+02        00000 
 4.58507e+00 -1.96976e+02        00000 
 1.81214e+01 -1.84850e+02        00000 
 1.40583e+01 -1.97535e+02        00000 
 2.33138e+01 -1.98152e+02        00000 
 3.70580e+01 -1.86542e+02        00000 
 3.29391e+01 -1.98998e+02        00000 
 4.27768e+01 -1.99822e+02        00000 
 5.82822e+01 -1.87819e+02        00000 
 5.33790e+01 -2.00283e+02        00000 
 6.47825e+01 -2.00660e+02        00000 
 8.11064e+01 -1.88868e+02        00000 
 7.65547e+01 -2.01242e+02        00000 
 8.84136e+01 -2.01745e+02        00000 
-9.17961e+01 -2.40296e+02        00000 
-1.00729e+02 -2.55115e+02        00000 
-8.60054e+01 -2.54607e+02        00000 
-6.49641e+01 -2.39406e+02        00000 
-7.20413e+01 -2.54052e+02        00000 
-5.89791e+01 -2.53768e+02        00000 
-4.15173e+01 -2.39013e+02        00000 
-4.72195e+01 -2.53647e+02        00000 
-3.63212e+01 -2.53564e+02        00000 
-2.08764e+01 -2.38889e+02        00000 
-2.57965e+01 -2.53642e+02        00000 
-1.56428e+01 -2.53677e+02        00000 
-4.56278e-01 -2.39506e+02        00000 
-5.21209e+00 -2.53845e+02        00000 
 4.99082e+00 -2.54123e+02        00000 
 1.91733e+01 -2.40157e+02        00000 
 1.47217e+01 -2.54509e+02        00000 
 2.43896e+01 -2.54854e+02        00000 
 3.89233e+01 -2.40873e+02        00000 
 3.41696e+01 -2.55130e+02        00000 
 4.44462e+01 -2.55415e+02        00000 
 6.00700e+01 -2.41416e+02        00000 
 5.49431e+01 -2.55891e+02        00000 
 6.61749e+01 -2.56278e+02        00000 
 8.49841e+01 -2.41582e+02        00000 
 7.86608e+01 -2.56273e+02        00000 
 9.23223e+01 -2.56564e+02        00000 
-6.60224e+00 -2.65681e+00        00000 
-1.10839e+01 -5.40932e+00        00000 
-4.30369e+00 -4.58193e-01        00000 
-7.74852e+00 -2.37361e+00        00000 
-2.20933e+00  1.14985e-01        00000 
-4.20416e+00 -1.02551e+00        00000 
-1.00217e+00 -1.39322e-01        00000 
-1.98365e+00 -7.09056e-01        00000 
-4.90998e-01 -7.37697e-02        00000 
-7.47994e-01 -6.79451e-01        00000 
 7.38438e-01  8.11285e-02        00000 
 8.01855e-01 -1.11650e+00        00000 
 2.30260e+00 -6.60603e-01        00000 
 2.92811e+00 -1.95491e+00        00000 
 3.85811e+00 -1.96607e+00        00000 
 5.22579e+00 -3.39369e+00        00000 
 7.05593e+00 -4.53331e+00        00000 
 9.09357e+00 -5.89560e+00        00000 
-2.08847e+01 -1.12681e+01        00000 
-2.56088e+01 -1.53321e+01        00000 
-1.39356e+01 -9.19955e+00        00000 
-1.80337e+01 -1.32675e+01        00000 
-7.78137e+00 -7.55036e+00        00000 
-1.10397e+01 -1.14191e+01        00000 
-3.24073e+00 -6.31086e+00        00000 
-5.38268e+00 -9.77244e+00        00000 
 4.81564e-01 -6.36287e+00        00000 
-2.89426e-01 -9.17703e+00        00000 
 4.14132e+00 -7.84605e+00        00000 
 4.24316e+00 -1.07144e+01        00000 
 8.59428e+00 -9.74923e+00        00000 
 9.07084e+00 -1.25656e+01        00000 
 1.36896e+01 -1.20988e+01        00000 
 1.47100e+01 -1.49728e+01        00000 
 1.98882e+01 -1.48498e+01        00000 
 2.14185e+01 -1.77774e+01        00000 
-3.16124e+01 -2.94158e+01        00000 
-3.66286e+01 -3.56490e+01        00000 
-2.23054e+01 -2.72788e+01        00000 
-2.66026e+01 -3.36103e+01        00000 
-1.42723e+01 -2.48378e+01        00000 
-1.81456e+01 -3.13120e+01        00000 
-6.24642e+00 -2.33784e+01        00000 
-9.14883e+00 -2.96132e+01        00000 
 1.69816e+00 -2.30427e+01        00000 
-3.41469e-01 -2.86431e+01        00000 
 8.48832e+00 -2.37111e+01        00000 
 7.48909e+00 -2.84611e+01        00000 
 1.58908e+01 -2.53471e+01        00000 
 1.53685e+01 -2.98965e+01        00000 
 2.45399e+01 -2.77199e+01        00000 
 2.48050e+01 -3.18956e+01        00000 
 3.34012e+01 -3.05171e+01        00000 
 3.47725e+01 -3.49009e+01        00000 
-4.09274e+01 -5.40671e+01        00000 
-4.61502e+01 -6.16190e+01        00000 
-3.05251e+01 -5.16608e+01        00000 
-3.48051e+01 -5.91201e+01        00000 
-1.98628e+01 -4.96691e+01        00000 
-2.38779e+01 -5.74672e+01        00000 
-9.32871e+00 -4.77237e+01        00000 
-1.31059e+01 -5.56794e+01        00000 
 1.57790e+00 -4.64933e+01        00000 
-1.36241e+00 -5.41933e+01        00000 
 1.28554e+01 -4.68396e+01        00000 
 1.10726e+01 -5.41738e+01        00000 
 2.40427e+01 -4.88803e+01        00000 
 2.32771e+01 -5.57601e+01        00000 
 3.62023e+01 -5.17193e+01        00000 
 3.62270e+01 -5.83459e+01        00000 
 4.99780e+01 -5.47921e+01        00000 
 4.99634e+01 -6.15188e+01        00000 
-4.97476e+01 -8.21203e+01        00000 