<?xml version="1.0" encoding="utf-8"?>
<VTKFile byte_order="LittleEndian" type="UnstructuredGrid" version="0.1">
   <UnstructuredGrid>
      <Piece NumberOfCells="1296" NumberOfPoints="685">
         <Points>
            <DataArray Name="Points" NumberOfComponents="3" format="ascii" type="Float32">
0.0000 0.0000 0.0000
0.0000 0.1111 0.0000
0.0000 0.2222 0.0000
0.0000 0.3333 0.0000
0.0000 0.4444 0.0000
0.0000 0.5556 0.0000
0.0000 0.6667 0.0000
0.0000 0.7778 0.0000
0.0000 0.8889 0.0000
0.0000 1.0000 0.0000
0.2222 0.0000 0.0000
0.2222 0.1111 0.0000
0.2222 0.2222 0.0000
0.2222 0.3333 0.0000
0.2222 0.4444 0.0000
0.2222 0.5556 0.0000
0.2222 0.6667 0.0000
0.2222 0.7778 0.0000
0.2222 0.8889 0.0000
0.2222 1.0000 0.0000
0.4444 0.0000 0.0000
0.4444 0.1111 0.0000
0.4444 0.2222 0.0000
0.4444 0.3333 0.0000
0.4444 0.4444 0.0000
0.4444 0.5556 0.0000
0.4444 0.6667 0.0000
0.4444 0.7778 0.0000
0.4444 0.8889 0.0000
0.4444 1.0000 0.0000
0.6667 0.0000 0.0000
0.6667 0.1111 0.0000
0.6667 0.2222 0.0000
0.6667 0.3333 0.0000
0.6667 0.4444 0.0000
0.6667 0.5556 0.0000
0.6667 0.6667 0.0000
0.6667 0.7778 0.0000
0.6667 0.8889 0.0000
0.6667 1.0000 0.0000
0.8889 0.0000 0.0000
0.8889 0.1111 0.0000
0.8889 0.2222 0.0000
0.8889 0.3333 0.0000
0.8889 0.4444 0.0000
0.8889 0.5556 0.0000
0.8889 0.6667 0.0000
0.8889 0.7778 0.0000
0.8889 0.8889 0.0000
0.8889 1.0000 0.0000
1.1111 0.0000 0.0000
1.1111 0.1111 0.0000
1.1111 0.2222 0.0000
1.1111 0.3333 0.0000
1.1111 0.4444 0.0000
1.1111 0.5556 0.0000
1.1111 0.6667 0.0000
1.1111 0.7778 0.0000
1.1111 0.8889 0.0000
1.1111 1.0000 0.0000
1.3333 0.0000 0.0000
1.3333 0.1111 0.0000
1.3333 0.2222 0.0000
1.3333 0.3333 0.0000
1.3333 0.4444 0.0000
1.3333 0.5556 0.0000
1.3333 0.6667 0.0000
1.3333 0.7778 0.0000
1.3333 0.8889 0.0000
1.3333 1.0000 0.0000
1.5556 0.0000 0.0000
1.5556 0.1111 0.0000
1.5556 0.2222 0.0000
1.5556 0.3333 0.0000
1.5556 0.4444 0.0000
1.5556 0.5556 0.0000
1.5556 0.6667 0.0000
1.5556 0.7778 0.0000
1.5556 0.8889 0.0000
1.5556 1.0000 0.0000
1.7778 0.0000 0.0000
1.7778 0.1111 0.0000
1.7778 0.2222 0.0000
1.7778 0.3333 0.0000
1.7778 0.4444 0.0000
1.7778 0.5556 0.0000
1.7778 0.6667 0.0000
1.7778 0.7778 0.0000
1.7778 0.8889 0.0000
1.7778 1.0000 0.0000
2.0000 0.0000 0.0000
2.0000 0.1111 0.0000
2.0000 0.2222 0.0000
2.0000 0.3333 0.0000
2.0000 0.4444 0.0000
2.0000 0.5556 0.0000
2.0000 0.6667 0.0000
2.0000 0.7778 0.0000
2.0000 0.8889 0.0000
2.0000 1.0000 0.0000
0.1111 0.0556 0.0000
0.1111 0.1667 0.0000
0.1111 0.2778 0.0000
0.1111 0.3889 0.0000
0.1111 0.5000 0.0000
0.1111 0.6111 0.0000
0.1111 0.7222 0.0000
0.1111 0.8333 0.0000
0.1111 0.9444 0.0000
0.3333 0.0556 0.0000
0.3333 0.1667 0.0000
0.3333 0.2778 0.0000
0.3333 0.3889 0.0000
0.3333 0.5000 0.0000
0.3333 0.6111 0.0000
0.3333 0.7222 0.0000
0.3333 0.8333 0.0000
0.3333 0.9444 0.0000
0.5556 0.0556 0.0000
0.5556 0.1667 0.0000
0.5556 0.2778 0.0000
0.5556 0.3889 0.0000
0.5556 0.5000 0.0000
0.5556 0.6111 0.0000
0.5556 0.7222 0.0000
0.5556 0.8333 0.0000
0.5556 0.9444 0.0000
0.7778 0.0556 0.0000
0.7778 0.1667 0.0000
0.7778 0.2778 0.0000
0.7778 0.3889 0.0000
0.7778 0.5000 0.0000
0.7778 0.6111 0.0000
0.7778 0.7222 0.0000
0.7778 0.8333 0.0000
0.7778 0.9444 0.0000
1.0000 0.0556 0.0000
1.0000 0.1667 0.0000
1.0000 0.2778 0.0000
1.0000 0.3889 0.0000
1.0000 0.5000 0.0000
1.0000 0.6111 0.0000
1.0000 0.7222 0.0000
1.0000 0.8333 0.0000
1.0000 0.9444 0.0000
1.2222 0.0556 0.0000
1.2222 0.1667 0.0000
1.2222 0.2778 0.0000
1.2222 0.3889 0.0000
1.2222 0.5000 0.0000
1.2222 0.6111 0.0000
1.2222 0.7222 0.0000
1.2222 0.8333 0.0000
1.2222 0.9444 0.0000
1.4444 0.0556 0.0000
1.4444 0.1667 0.0000
1.4444 0.2778 0.0000
1.4444 0.3889 0.0000
1.4444 0.5000 0.0000
1.4444 0.6111 0.0000
1.4444 0.7222 0.0000
1.4444 0.8333 0.0000
1.4444 0.9444 0.0000
1.6667 0.0556 0.0000
1.6667 0.1667 0.0000
1.6667 0.2778 0.0000
1.6667 0.3889 0.0000
1.6667 0.5000 0.0000
1.6667 0.6111 0.0000
1.6667 0.7222 0.0000
1.6667 0.8333 0.0000
1.6667 0.9444 0.0000
1.8889 0.0556 0.0000
1.8889 0.1667 0.0000
1.8889 0.2778 0.0000
1.8889 0.3889 0.0000
1.8889 0.5000 0.0000
1.8889 0.6111 0.0000
1.8889 0.7222 0.0000
1.8889 0.8333 0.0000
1.8889 0.9444 0.0000
0.0000 0.0556 0.0000
0.0556 0.0278 0.0000
0.0556 0.0833 0.0000
0.0000 0.1667 0.0000
0.0556 0.1389 0.0000
0.0556 0.1944 0.0000
0.0000 0.2778 0.0000
0.0556 0.2500 0.0000
0.0556 0.3056 0.0000
0.0000 0.3889 0.0000
0.0556 0.3611 0.0000
0.0556 0.4167 0.0000
0.0000 0.5000 0.0000
0.0556 0.4722 0.0000
0.0556 0.5278 0.0000
0.0000 0.6111 0.0000
0.0556 0.5833 0.0000
0.0556 0.6389 0.0000
0.0000 0.7222 0.0000
0.0556 0.6944 0.0000
0.0556 0.7500 0.0000
0.0000 0.8333 0.0000
0.0556 0.8056 0.0000
0.0556 0.8611 0.0000
0.0000 0.9444 0.0000
0.0556 0.9167 0.0000
0.0556 0.9722 0.0000
0.2222 0.0556 0.0000
0.2778 0.0278 0.0000
0.2778 0.0833 0.0000
0.2222 0.1667 0.0000
0.2778 0.1389 0.0000
0.2778 0.1944 0.0000
0.2222 0.2778 0.0000
0.2778 0.2500 0.0000
0.2778 0.3056 0.0000
0.2222 0.3889 0.0000
0.2778 0.3611 0.0000
0.2778 0.4167 0.0000
0.2222 0.5000 0.0000
0.2778 0.4722 0.0000
0.2778 0.5278 0.0000
0.2222 0.6111 0.0000
0.2778 0.5833 0.0000
0.2778 0.6389 0.0000
0.2222 0.7222 0.0000
0.2778 0.6944 0.0000
0.2778 0.7500 0.0000
0.2222 0.8333 0.0000
0.2778 0.8056 0.0000
0.2778 0.8611 0.0000
0.2222 0.9444 0.0000
0.2778 0.9167 0.0000
0.2778 0.9722 0.0000
0.4444 0.0556 0.0000
0.5000 0.0278 0.0000
0.5000 0.0833 0.0000
0.4444 0.1667 0.0000
0.5000 0.1389 0.0000
0.5000 0.1944 0.0000
0.4444 0.2778 0.0000
0.5000 0.2500 0.0000
0.5000 0.3056 0.0000
0.4444 0.3889 0.0000
0.5000 0.3611 0.0000
0.5000 0.4167 0.0000
0.4444 0.5000 0.0000
0.5000 0.4722 0.0000
0.5000 0.5278 0.0000
0.4444 0.6111 0.0000
0.5000 0.5833 0.0000
0.5000 0.6389 0.0000
0.4444 0.7222 0.0000
0.5000 0.6944 0.0000
0.5000 0.7500 0.0000
0.4444 0.8333 0.0000
0.5000 0.8056 0.0000
0.5000 0.8611 0.0000
0.4444 0.9444 0.0000
0.5000 0.9167 0.0000
0.5000 0.9722 0.0000
0.6667 0.0556 0.0000
0.7222 0.0278 0.0000
0.7222 0.0833 0.0000
0.6667 0.1667 0.0000
0.7222 0.1389 0.0000
0.7222 0.1944 0.0000
0.6667 0.2778 0.0000
0.7222 0.2500 0.0000
0.7222 0.3056 0.0000
0.6667 0.3889 0.0000
0.7222 0.3611 0.0000
0.7222 0.4167 0.0000
0.6667 0.5000 0.0000
0.7222 0.4722 0.0000
0.7222 0.5278 0.0000
0.6667 0.6111 0.0000
0.7222 0.5833 0.0000
0.7222 0.6389 0.0000
0.6667 0.7222 0.0000
0.7222 0.6944 0.0000
0.7222 0.7500 0.0000
0.6667 0.8333 0.0000
0.7222 0.8056 0.0000
0.7222 0.8611 0.0000
0.6667 0.9444 0.0000
0.7222 0.9167 0.0000
0.7222 0.9722 0.0000
0.8889 0.0556 0.0000
0.9444 0.0278 0.0000
0.9444 0.0833 0.0000
0.8889 0.1667 0.0000
0.9444 0.1389 0.0000
0.9444 0.1944 0.0000
0.8889 0.2778 0.0000
0.9444 0.2500 0.0000
0.9444 0.3056 0.0000
0.8889 0.3889 0.0000
0.9444 0.3611 0.0000
0.9444 0.4167 0.0000
0.8889 0.5000 0.0000
0.9444 0.4722 0.0000
0.9444 0.5278 0.0000
0.8889 0.6111 0.0000
0.9444 0.5833 0.0000
0.9444 0.6389 0.0000
0.8889 0.7222 0.0000
0.9444 0.6944 0.0000
0.9444 0.7500 0.0000
0.8889 0.8333 0.0000
0.9444 0.8056 0.0000
0.9444 0.8611 0.0000
0.8889 0.9444 0.0000
0.9444 0.9167 0.0000
0.9444 0.9722 0.0000
1.1111 0.0556 0.0000
1.1667 0.0278 0.0000
1.1667 0.0833 0.0000
1.1111 0.1667 0.0000
1.1667 0.1389 0.0000
1.1667 0.1944 0.0000
1.1111 0.2778 0.0000
1.1667 0.2500 0.0000
1.1667 0.3056 0.0000
1.1111 0.3889 0.0000
1.1667 0.3611 0.0000
1.1667 0.4167 0.0000
1.1111 0.5000 0.0000
1.1667 0.4722 0.0000
1.1667 0.5278 0.0000
1.1111 0.6111 0.0000
1.1667 0.5833 0.0000
1.1667 0.6389 0.0000
1.1111 0.7222 0.0000
1.1667 0.6944 0.0000
1.1667 0.7500 0.0000
1.1111 0.8333 0.0000
1.1667 0.8056 0.0000
1.1667 0.8611 0.0000
1.1111 0.9444 0.0000
1.1667 0.9167 0.0000
1.1667 0.9722 0.0000
1.3333 0.0556 0.0000
1.3889 0.0278 0.0000
1.3889 0.0833 0.0000
1.3333 0.1667 0.0000
1.3889 0.1389 0.0000
1.3889 0.1944 0.0000
1.3333 0.2778 0.0000
1.3889 0.2500 0.0000
1.3889 0.3056 0.0000
1.3333 0.3889 0.0000
1.3889 0.3611 0.0000
1.3889 0.4167 0.0000
1.3333 0.5000 0.0000
1.3889 0.4722 0.0000
1.3889 0.5278 0.0000
1.3333 0.6111 0.0000
1.3889 0.5833 0.0000
1.3889 0.6389 0.0000
1.3333 0.7222 0.0000
1.3889 0.6944 0.0000
1.3889 0.7500 0.0000
1.3333 0.8333 0.0000
1.3889 0.8056 0.0000
1.3889 0.8611 0.0000
1.3333 0.9444 0.0000
1.3889 0.9167 0.0000
1.3889 0.9722 0.0000
1.5556 0.0556 0.0000
1.6111 0.0278 0.0000
1.6111 0.0833 0.0000
1.5556 0.1667 0.0000
1.6111 0.1389 0.0000
1.6111 0.1944 0.0000
1.5556 0.2778 0.0000
1.6111 0.2500 0.0000
1.6111 0.3056 0.0000
1.5556 0.3889 0.0000
1.6111 0.3611 0.0000
1.6111 0.4167 0.0000
1.5556 0.5000 0.0000
1.6111 0.4722 0.0000
1.6111 0.5278 0.0000
1.5556 0.6111 0.0000
1.6111 0.5833 0.0000
1.6111 0.6389 0.0000
1.5556 0.7222 0.0000
1.6111 0.6944 0.0000
1.6111 0.7500 0.0000
1.5556 0.8333 0.0000
1.6111 0.8056 0.0000
1.6111 0.8611 0.0000
1.5556 0.9444 0.0000
1.6111 0.9167 0.0000
1.6111 0.9722 0.0000
1.7778 0.0556 0.0000
1.8333 0.0278 0.0000
1.8333 0.0833 0.0000
1.7778 0.1667 0.0000
1.8333 0.1389 0.0000
1.8333 0.1944 0.0000
1.7778 0.2778 0.0000
1.8333 0.2500 0.0000
1.8333 0.3056 0.0000
1.7778 0.3889 0.0000
1.8333 0.3611 0.0000
1.8333 0.4167 0.0000
1.7778 0.5000 0.0000
1.8333 0.4722 0.0000
1.8333 0.5278 0.0000
1.7778 0.6111 0.0000
1.8333 0.5833 0.0000
1.8333 0.6389 0.0000
1.7778 0.7222 0.0000
1.8333 0.6944 0.0000
1.8333 0.7500 0.0000
1.7778 0.8333 0.0000
1.8333 0.8056 0.0000
1.8333 0.8611 0.0000
1.7778 0.9444 0.0000
1.8333 0.9167 0.0000
1.8333 0.9722 0.0000
0.1111 0.1111 0.0000
0.1667 0.0833 0.0000
0.1111 0.2222 0.0000
0.1667 0.1944 0.0000
0.1111 0.3333 0.0000
0.1667 0.3056 0.0000
0.1111 0.4444 0.0000
0.1667 0.4167 0.0000
0.1111 0.5556 0.0000
0.1667 0.5278 0.0000
0.1111 0.6667 0.0000
0.1667 0.6389 0.0000
0.1111 0.7778 0.0000
0.1667 0.7500 0.0000
0.1111 0.8889 0.0000
0.1667 0.8611 0.0000
0.1111 1.0000 0.0000
0.1667 0.9722 0.0000
0.3333 0.1111 0.0000
0.3889 0.0833 0.0000
0.3333 0.2222 0.0000
0.3889 0.1944 0.0000
0.3333 0.3333 0.0000
0.3889 0.3056 0.0000
0.3333 0.4444 0.0000
0.3889 0.4167 0.0000
0.3333 0.5556 0.0000
0.3889 0.5278 0.0000
0.3333 0.6667 0.0000
0.3889 0.6389 0.0000
0.3333 0.7778 0.0000
0.3889 0.7500 0.0000
0.3333 0.8889 0.0000
0.3889 0.8611 0.0000
0.3333 1.0000 0.0000
0.3889 0.9722 0.0000
0.5556 0.1111 0.0000
[...]
         <PointData>
            <DataArray Name="fValues" NumberOfComponents="3" format="ascii" type="Float64">
 1.22377e-15 -3.05941e-15        00000 
 8.58355e-16 -1.81575e-15        00000 
 1.89466e-16  5.22176e-17        00000 
-6.57565e-17  2.63026e-16        00000 
-1.89016e-16  8.20014e-17        00000 
-6.57565e-17  1.31513e-16        00000 
 1.42855e-16 -2.59924e-16        00000 
-7.22668e-16  3.28485e-17        00000 
 2.37755e-15 -7.92517e-16        00000 
 4.89506e-15 -2.44753e-15        00000 
-4.10992e+01 -3.07673e+01        00000 
-2.80939e+01 -2.35258e+01        00000 
-1.83314e+01 -1.83788e+01        00000 
-1.04716e+01 -1.53418e+01        00000 
-3.44112e+00 -1.39434e+01        00000 
 3.39575e+00 -1.38453e+01        00000 
 1.04971e+01 -1.51524e+01        00000 
 1.84023e+01 -1.80639e+01        00000 
 2.80634e+01 -2.31451e+01        00000 
 4.09331e+01 -3.03383e+01        00000 
-7.50347e+01 -6.53569e+01        00000 
-5.54955e+01 -5.90202e+01        00000 
-3.80760e+01 -5.41032e+01        00000 
-2.22632e+01 -5.07691e+01        00000 
-7.43685e+00 -4.90605e+01        00000 
 6.99019e+00 -4.90033e+01        00000 
 2.17722e+01 -5.05664e+01        00000 
 3.76460e+01 -5.37946e+01        00000 
 5.52050e+01 -5.86081e+01        00000 
 7.48956e+01 -6.48972e+01        00000 
-1.05723e+02 -1.13439e+02        00000 
-7.95157e+01 -1.07834e+02        00000 
-5.53781e+01 -1.03543e+02        00000 
-3.28169e+01 -1.00682e+02        00000 
-1.11078e+01 -9.92250e+01        00000 
 1.02330e+01 -9.91851e+01        00000 
 3.18225e+01 -1.00616e+02        00000 
 5.44275e+01 -1.03508e+02        00000 
 7.86054e+01 -1.07725e+02        00000 
 1.04761e+02 -1.13124e+02        00000 
-1.32435e+02 -1.74403e+02        00000 
-1.00249e+02 -1.69572e+02        00000 
-7.02250e+01 -1.65918e+02        00000 
-4.18077e+01 -1.63500e+02        00000 
-1.43229e+01 -1.62274e+02        00000 
 1.28319e+01 -1.62247e+02        00000 
 4.03260e+01 -1.63389e+02        00000 
 6.86814e+01 -1.65760e+02        00000 
 9.85314e+01 -1.69289e+02        00000 
 1.30454e+02 -1.73895e+02        00000 
-1.54364e+02 -2.45968e+02        00000 
-1.17423e+02 -2.42099e+02        00000 
-8.25024e+01 -2.39091e+02        00000 
-4.92589e+01 -2.37077e+02        00000 
-1.69453e+01 -2.36052e+02        00000 
 1.50425e+01 -2.35976e+02        00000 
 4.72549e+01 -2.36859e+02        00000 
 8.04256e+01 -2.38702e+02        00000 
 1.15136e+02 -2.41545e+02        00000 
 1.51970e+02 -2.45274e+02        00000 
-1.71758e+02 -3.26266e+02        00000 
-1.30996e+02 -3.23343e+02        00000 
-9.23236e+01 -3.21107e+02        00000 
-5.51656e+01 -3.19595e+02        00000 
-1.90382e+01 -3.18812e+02        00000 
 1.67177e+01 -3.18700e+02        00000 
 5.27498e+01 -3.19290e+02        00000 
 8.97435e+01 -3.20646e+02        00000 
 1.28463e+02 -3.22770e+02        00000 
 1.69372e+02 -3.25655e+02        00000 
-1.84714e+02 -4.13417e+02        00000 
-1.40832e+02 -4.11422e+02        00000 
-9.91842e+01 -4.10069e+02        00000 
-5.92460e+01 -4.09228e+02        00000 
-2.05243e+01 -4.08773e+02        00000 
 1.77844e+01 -4.08702e+02        00000 
 5.65494e+01 -4.08999e+02        00000 
 9.65222e+01 -4.09780e+02        00000 
 1.38318e+02 -4.11219e+02        00000 
 1.82211e+02 -4.13254e+02        00000 
-1.93673e+02 -5.06404e+02        00000 
-1.46792e+02 -5.05297e+02        00000 
-1.02852e+02 -5.04683e+02        00000 
-6.13242e+01 -5.04216e+02        00000 
-2.12766e+01 -5.03929e+02        00000 
 1.82781e+01 -5.03868e+02        00000 
 5.83852e+01 -5.04061e+02        00000 
 1.00110e+02 -5.04443e+02        00000 
 1.44320e+02 -5.05049e+02        00000 
 1.91306e+02 -5.06230e+02        00000 
-1.99253e+02 -6.08999e+02        00000 
-1.49287e+02 -6.06293e+02        00000 
-1.04565e+02 -6.03111e+02        00000 
-6.24335e+01 -6.00747e+02        00000 
-2.16936e+01 -5.99521e+02        00000 
 1.85496e+01 -5.99461e+02        00000 
 5.93318e+01 -6.00785e+02        00000 
 1.01729e+02 -6.03310e+02        00000 
 1.46959e+02 -6.06635e+02        00000 
 1.97226e+02 -6.09416e+02        00000 
-1.66677e+01 -1.30529e+01        00000 
-1.06423e+01 -7.82075e+00        00000 
-6.58782e+00 -5.25117e+00        00000 
-3.19473e+00 -3.99936e+00        00000 
 2.61891e-02 -3.59449e+00        00000 
 3.24651e+00 -3.93663e+00        00000 
 6.68749e+00 -5.14574e+00        00000 
 1.06860e+01 -7.66677e+00        00000 
 1.66312e+01 -1.28671e+01        00000 
-5.00862e+01 -4.29430e+01        00000 
-3.50881e+01 -3.68271e+01        00000 
-2.22258e+01 -3.24909e+01        00000 
-1.08234e+01 -2.99493e+01        00000 
-1.19427e-01 -2.91136e+01        00000 
 1.06343e+01 -2.98426e+01        00000 
 2.20870e+01 -3.22063e+01        00000 
 3.49460e+01 -3.64106e+01        00000 
 4.99481e+01 -4.24182e+01        00000 
-7.90732e+01 -8.45876e+01        00000 
-5.72614e+01 -7.92536e+01        00000 
-3.72354e+01 -7.54014e+01        00000 
-1.84405e+01 -7.30582e+01        00000 
-3.48226e-01 -7.22667e+01        00000 
 1.77449e+01 -7.30103e+01        00000 
 3.64853e+01 -7.53004e+01        00000 
 5.66423e+01 -7.90931e+01        00000 
 7.85939e+01 -8.43499e+01        00000 
-1.04702e+02 -1.39699e+02        00000 
-7.64510e+01 -1.35041e+02        00000 
-5.01548e+01 -1.31721e+02        00000 
-2.50332e+01 -1.29746e+02        00000 
-5.92434e-01 -1.29088e+02        00000 
 2.38678e+01 -1.29705e+02        00000 
 4.89330e+01 -1.31704e+02        00000 
 7.52059e+01 -1.34972e+02        00000 
 1.03278e+02 -1.39457e+02        00000 
-1.26354e+02 -2.06620e+02        00000 
-9.27028e+01 -2.02772e+02        00000 
-6.10158e+01 -2.00024e+02        00000 
-3.06166e+01 -1.98374e+02        00000 
-8.40904e-01 -1.97769e+02        00000 
 2.89280e+01 -1.98256e+02        00000 
 5.92877e+01 -1.99809e+02        00000 
 9.08274e+01 -2.02458e+02        00000 
 1.24199e+02 -2.06166e+02        00000 
-1.43857e+02 -2.83382e+02        00000 
-1.05982e+02 -2.80363e+02        00000 
-6.99290e+01 -2.78120e+02        00000 
-3.51604e+01 -2.76768e+02        00000 
-1.03344e+00 -2.76244e+02        00000 
 3.30014e+01 -2.76588e+02        00000 
 6.76414e+01 -2.77772e+02        00000 
 1.03583e+02 -2.79836e+02        00000 
 1.41407e+02 -2.82790e+02        00000 
-1.57265e+02 -3.67797e+02        00000 
-1.16060e+02 -3.65674e+02        00000 
-7.66387e+01 -3.64158e+02        00000 
-3.85583e+01 -3.63247e+02        00000 
-1.26403e+00 -3.62862e+02        00000 
 3.59897e+01 -3.63004e+02        00000 
 7.40140e+01 -3.63756e+02        00000 
 1.13394e+02 -3.65216e+02        00000 
 1.54816e+02 -3.67408e+02        00000 
-1.66678e+02 -4.58320e+02        00000 
-1.22575e+02 -4.57101e+02        00000 
-8.07499e+01 -4.56393e+02        00000 
-4.06504e+01 -4.55969e+02        00000 
-1.43068e+00 -4.55781e+02        00000 
 3.77774e+01 -4.55843e+02        00000 
 7.80267e+01 -4.56169e+02        00000 
 1.20015e+02 -4.56887e+02        00000 
 1.64212e+02 -4.58114e+02        00000 
-1.72003e+02 -5.54951e+02        00000 
-1.25473e+02 -5.54143e+02        00000 
-8.24919e+01 -5.53190e+02        00000 
-4.15284e+01 -5.52420e+02        00000 
-1.54682e+00 -5.52091e+02        00000 
 3.84149e+01 -5.52349e+02        00000 
 7.95304e+01 -5.53073e+02        00000 
 1.22889e+02 -5.54057e+02        00000 
 1.69749e+02 -5.54930e+02        00000 
-1.72151e-15  3.30136e-16        00000 
-9.08177e+00 -6.83088e+00        00000 
-6.92062e+00 -4.75355e+00        00000 
 1.71702e-15  4.90897e-16        00000 
-5.58299e+00 -3.44636e+00        00000 
-4.51476e+00 -2.56160e+00        00000 
       00000 -2.49800e-16        00000 
-3.58314e+00 -1.94570e+00        00000 
-2.72006e+00 -1.52391e+00        00000 
-2.18298e-16  4.87831e-17        00000 
-1.92757e+00 -1.20604e+00        00000 
-1.12475e+00 -1.00081e+00        00000 
 6.24500e-17  6.24500e-17        00000 
-3.55761e-01 -9.05336e-01        00000 
 4.07860e-01 -9.03565e-01        00000 
-2.38092e-17  3.55571e-16        00000 
 1.17117e+00 -9.97427e-01        00000 
 1.94854e+00 -1.17724e+00        00000 
 1.49880e-15 -4.99600e-16        00000 
 2.77985e+00 -1.46454e+00        00000 
 3.64001e+00 -1.90215e+00        00000 
-2.49800e-16 -4.99600e-16        00000 
 4.55174e+00 -2.51879e+00        00000 
 5.59404e+00 -3.39574e+00        00000 
-3.30227e-15  1.70954e-15        00000 
 6.90953e+00 -4.69125e+00        00000 
 9.04464e+00 -6.75208e+00        00000 
-3.42387e+01 -2.70106e+01        00000 
-4.60074e+01 -3.65883e+01        00000 
-3.87258e+01 -3.29285e+01        00000 
-2.29009e+01 -2.06615e+01        00000 
-3.20929e+01 -2.97203e+01        00000 
-2.61881e+01 -2.70608e+01        00000 
-1.42455e+01 -1.66309e+01        00000 
-2.07756e+01 -2.49166e+01        00000 
-1.57755e+01 -2.32776e+01        00000 
-6.89205e+00 -1.44624e+01        00000 
-1.10956e+01 -2.20871e+01        00000 
-6.62362e+00 -2.13016e+01        00000 
-2.85346e-02 -1.37300e+01        00000 
-2.25384e+00 -2.08828e+01        00000 
 2.11320e+00 -2.08448e+01        00000 
 6.88947e+00 -1.43201e+01        00000 
 6.52700e+00 -2.11943e+01        00000 
 1.10472e+01 -2.19109e+01        00000 
 1.43039e+01 -1.63871e+01        00000 
 1.57629e+01 -2.30360e+01        00000 
 2.07578e+01 -2.46112e+01        00000 
 2.29020e+01 -2.03041e+01        00000 
 2.61367e+01 -2.66949e+01        00000 
 3.20235e+01 -2.93232e+01        00000 
 3.41394e+01 -2.65855e+01        00000 
 3.86242e+01 -3.24781e+01        00000 
 4.58806e+01 -3.60855e+01        00000 
-6.49837e+01 -6.20344e+01        00000 
-7.74920e+01 -7.46821e+01        00000 
-6.68870e+01 -7.14428e+01        00000 
-4.65588e+01 -5.63777e+01        00000 
-5.68392e+01 -6.86494e+01        00000 
-4.72872e+01 -6.62545e+01        00000 
-3.00121e+01 -5.22275e+01        00000 
-3.81185e+01 -6.42433e+01        00000 
-2.93194e+01 -6.26289e+01        00000 
-1.47446e+01 -4.97053e+01        00000 
-2.08072e+01 -6.14190e+01        00000 
-1.25066e+01 -6.06015e+01        00000 
-2.37019e-01 -4.88188e+01        00000 
-4.37560e+00 -6.01801e+01        00000 
 3.76374e+00 -6.01506e+01        00000 
 1.42826e+01 -4.95846e+01        00000 
 1.19239e+01 -6.05183e+01        00000 
 2.02031e+01 -6.12890e+01        00000 
 2.95207e+01 -5.19829e+01        00000 
 2.86988e+01 -6.24716e+01        00000 
 3.75189e+01 -6.40340e+01        00000 
 4.61884e+01 -5.60102e+01        00000 
 4.67394e+01 -6.59927e+01        00000 
 5.63910e+01 -6.83534e+01        00000 
 6.47504e+01 -6.15830e+01        00000 
 6.65342e+01 -7.11276e+01        00000 
 7.72128e+01 -7.43279e+01        00000 
-9.23434e+01 -1.10492e+02        00000 
-1.05661e+02 -1.26280e+02        00000 
-9.17478e+01 -1.23434e+02        00000 
-6.72160e+01 -1.05521e+02        00000 
-7.84006e+01 -1.20978e+02        00000 
-6.55618e+01 -1.18900e+02        00000 
-4.39532e+01 -1.01943e+02        00000 
-5.31673e+01 -1.17159e+02        00000 
-4.11237e+01 -1.15775e+02        00000 
-2.18547e+01 -9.97641e+01        00000 
-2.93120e+01 -1.14747e+02        00000 
-1.77027e+01 -1.14052e+02        00000 
-4.58313e-01 -9.90231e+01        00000 
-6.23749e+00 -1.13691e+02        00000 
 5.20566e+00 -1.13680e+02        00000 
 2.09198e+01 -9.97187e+01        00000 
 1.66728e+01 -1.14014e+02        00000 
 2.82464e+01 -1.14703e+02        00000 
 4.29492e+01 -1.01896e+02        00000 
 4.00222e+01 -1.15746e+02        00000 
 5.20632e+01 -1.17143e+02        00000 
 6.62985e+01 -1.05453e+02        00000 
 6.44950e+01 -1.18848e+02        00000 
 7.73105e+01 -1.20892e+02        00000 
 9.13889e+01 -1.10291e+02        00000 
 9.06140e+01 -1.23255e+02        00000 
 1.04459e+02 -1.26021e+02        00000 
-1.16073e+02 -1.71893e+02        00000 
-1.29762e+02 -1.90266e+02        00000 
-1.13055e+02 -1.87872e+02        00000 
-8.49820e+01 -1.67587e+02        00000 
-9.68417e+01 -1.85795e+02        00000 
-8.11831e+01 -1.84028e+02        00000 
-5.58475e+01 -1.64553e+02        00000 
-6.59542e+01 -1.82575e+02        00000 
-5.11199e+01 -1.81434e+02        00000 
-2.79625e+01 -1.62736e+02        00000 
-3.65290e+01 -1.80573e+02        00000 
-2.21669e+01 -1.79984e+02        00000 
-7.49213e-01 -1.62113e+02        00000 
-7.90598e+00 -1.79676e+02        00000 
 6.31040e+00 -1.79661e+02        00000 
 2.65042e+01 -1.62669e+02        00000 
 2.05747e+01 -1.79928e+02        00000 
 3.49653e+01 -1.80457e+02        00000 
 5.43610e+01 -1.64422e+02        00000 
 4.95211e+01 -1.81280e+02        00000 
 6.43506e+01 -1.82378e+02        00000 
 8.33735e+01 -1.67370e+02        00000 
 7.94830e+01 -1.83795e+02        00000 
 9.50397e+01 -1.85498e+02        00000 
 1.14216e+02 -1.71466e+02        00000 
 1.11105e+02 -1.87475e+02        00000 
 1.27710e+02 -1.89778e+02        00000 
-1.35612e+02 -2.43933e+02        00000 
-1.49412e+02 -2.64446e+02        00000 
-1.30450e+02 -2.62557e+02        00000 
-9.97188e+01 -2.40476e+02        00000 
-1.11992e+02 -2.60895e+02        00000 
-9.40167e+01 -2.59472e+02        00000 
-6.57048e+01 -2.37952e+02        00000 
-7.64990e+01 -2.58272e+02        00000 
-5.93546e+01 -2.57322e+02        00000 
-3.30109e+01 -2.36433e+02        00000 
-4.24758e+01 -2.56608e+02        00000 
-2.57969e+01 -2.56124e+02        00000 
-9.45822e-01 -2.35898e+02        00000 
-9.24389e+00 -2.55860e+02        00000 
 7.26320e+00 -2.55825e+02        00000 
 3.10855e+01 -2.36295e+02        00000 
 2.37877e+01 -2.56026e+02        00000 
 4.04043e+01 -2.56426e+02        00000 
 6.36812e+01 -2.37652e+02        00000 
 5.72078e+01 -2.57075e+02        00000 
 7.43056e+01 -2.57943e+02        00000 
 9.75670e+01 -2.39990e+02        00000 
 9.17686e+01 -2.59041e+02        00000 
 1.09675e+02 -2.60360e+02        00000 
 1.33252e+02 -2.43298e+02        00000 
 1.28048e+02 -2.61947e+02        00000 
 1.47001e+02 -2.63831e+02        00000 
-1.51075e+02 -3.24737e+02        00000 
-1.64754e+02 -3.46857e+02        00000 
-1.43981e+02 -3.45440e+02        00000 
-1.11437e+02 -3.22128e+02        00000 
-1.23778e+02 -3.44245e+02        00000 
-1.04036e+02 -3.43212e+02        00000 
-7.35977e+01 -3.20254e+02        00000 
-8.47121e+01 -3.42365e+02        00000 
-6.57396e+01 -3.41670e+02        00000 
-3.70405e+01 -3.19138e+02        00000 
-4.70655e+01 -3.41161e+02        00000 
-2.86314e+01 -3.40810e+02        00000 
-1.14829e+00 -3.18680e+02        00000 
-1.03101e+01 -3.40601e+02        00000 
 7.91645e+00 -3.40548e+02        00000 
 3.46504e+01 -3.18900e+02        00000 
 2.61833e+01 -3.40624e+02        00000 
 4.45979e+01 -3.40869e+02        00000 
 7.10732e+01 -3.19867e+02        00000 
 6.32043e+01 -3.41291e+02        00000 
 8.20951e+01 -3.41919e+02        00000 
 1.08852e+02 -3.21605e+02        00000 
 1.01395e+02 -3.42724e+02        00000 
 1.21177e+02 -3.43709e+02        00000 
 1.48618e+02 -3.24136e+02        00000 
 1.41490e+02 -3.44926e+02        00000 
 1.62352e+02 -3.46345e+02        00000 
-1.62456e+02 -4.12340e+02        00000 
-1.75917e+02 -4.35697e+02        00000 
-1.53615e+02 -4.34763e+02        00000 
-1.19751e+02 -4.10663e+02        00000 
-1.31919e+02 -4.34007e+02        00000 
-1.10768e+02 -4.33454e+02        00000 
-7.90259e+01 -4.09581e+02        00000 
-9.01394e+01 -4.33023e+02        00000 
-6.99108e+01 -4.32668e+02        00000 
-3.97785e+01 -4.08960e+02        00000 
-5.00585e+01 -4.32411e+02        00000 
-3.05098e+01 -4.32220e+02        00000 
-1.36308e+00 -4.08693e+02        00000 
-1.10787e+01 -4.32117e+02        00000 
 8.28559e+00 -4.32081e+02        00000 
 3.70550e+01 -4.08809e+02        00000 
 2.76937e+01 -4.32133e+02        00000 
 4.73003e+01 -4.32251e+02        00000 
 7.63622e+01 -4.09320e+02        00000 
 6.71999e+01 -4.32448e+02        00000 
 8.74608e+01 -4.32774e+02        00000 
 1.17150e+02 -4.10439e+02        00000 
 1.08167e+02 -4.33226e+02        00000 
 1.29383e+02 -4.33815e+02        00000 
 1.60004e+02 -4.12153e+02        00000 
 1.51140e+02 -4.34574e+02        00000 
 1.73443e+02 -4.35511e+02        00000 
-1.69915e+02 -5.05746e+02        00000 
-1.83231e+02 -5.30363e+02        00000 
-1.59233e+02 -5.29908e+02        00000 
-1.24464e+02 -5.04957e+02        00000 
-1.36212e+02 -5.29549e+02        00000 
-1.14085e+02 -5.29240e+02        00000 
-8.18488e+01 -5.04428e+02        00000 
-9.26717e+01 -5.28916e+02        00000 
-7.18395e+01 -5.28626e+02        00000 
-4.11681e+01 -5.04042e+02        00000 
-5.14418e+01 -5.28367e+02        00000 
-3.13348e+01 -5.28166e+02        00000 
-1.49647e+00 -5.03857e+02        00000 
-1.14528e+01 -5.28054e+02        00000 
 8.39653e+00 -5.28037e+02        00000 
 3.81989e+01 -5.03942e+02        00000 
 2.82944e+01 -5.28118e+02        00000 
 4.84208e+01 -5.28262e+02        00000 
 7.90011e+01 -5.04229e+02        00000 
 6.88767e+01 -5.28485e+02        00000 
 8.98340e+01 -5.28745e+02        00000 
 1.21872e+02 -5.04699e+02        00000 
 1.11387e+02 -5.29044e+02        00000 
 1.33740e+02 -5.29373e+02        00000 
 1.67530e+02 -5.05561e+02        00000 
 1.56880e+02 -5.29746e+02        00000 
 1.80951e+02 -5.30280e+02        00000 
-1.32271e+01 -9.95566e+00        00000 
-2.30071e+01 -1.81341e+01        00000 
-8.49323e+00 -6.31776e+00        00000 
-1.49350e+01 -1.27165e+01        00000 
-4.86075e+00 -4.49839e+00        00000 
-8.93978e+00 -9.72467e+00        00000 
-1.56663e+00 -3.70232e+00        00000 
-3.72823e+00 -8.27988e+00        00000 
 1.63064e+00 -3.66984e+00        00000 
 1.25793e+00 -7.94931e+00        00000 
 4.93049e+00 -4.41059e+00        00000 
 6.33458e+00 -8.71465e+00        00000 
 8.58732e+00 -6.19305e+00        00000 
 1.18796e+01 -1.07927e+01        00000 
 1.32206e+01 -9.78144e+00        00000 
 1.86135e+01 -1.47795e+01        00000 
 2.27755e+01 -1.74508e+01        00000 
 2.87799e+01 -2.17923e+01        00000 
-4.22878e+01 -3.96941e+01        00000 
-5.32510e+01 -5.05465e+01        00000 
-2.84413e+01 -3.44323e+01        00000 
-3.70657e+01 -4.49899e+01        00000 
-1.63870e+01 -3.09863e+01        00000 
-2.27330e+01 -4.11204e+01        00000 
-5.43657e+00 -2.93272e+01        00000 
-9.59691e+00 -3.89816e+01        00000 
 5.21204e+00 -2.92813e+01        00000 
 2.96273e+00 -3.85219e+01        00000 
 1.62254e+01 -3.08184e+01        00000 
 1.57255e+01 -3.96927e+01        00000 
 2.82998e+01 -3.40590e+01        00000 
 2.94097e+01 -4.25124e+01        00000 
 4.21411e+01 -3.92234e+01        00000 
 4.46758e+01 -4.70922e+01        00000 
 5.83117e+01 -4.59415e+01        00000 
 6.20333e+01 -5.34373e+01        00000 
-6.79069e+01 -8.17322e+01        00000 
-7.97560e+01 -9.57819e+01        00000 
-4.70554e+01 -7.71389e+01        00000 
-5.67603e+01 -9.09128e+01        00000 
-2.77132e+01 -7.40187e+01        00000 
-3.54479e+01 -8.75522e+01        00000 
-9.35494e+00 -7.24678e+01        00000 
-1.51872e+01 -8.56812e+01        00000 
 8.65895e+00 -7.24512e+01        00000 
 4.54256e+00 -8.52816e+01        00000 
 2.69797e+01 -7.39586e+01        00000 
 2.43784e+01 -8.63954e+01        00000 
 4.63658e+01 -7.70033e+01        00000 
 4.50803e+01 -8.89934e+01        00000 
 6.73635e+01 -8.15508e+01        00000 
 6.72778e+01 -9.30492e+01        00000 
 9.03786e+01 -8.74121e+01        00000 
 9.13245e+01 -9.85718e+01        00000 
-9.02997e+01 -1.37207e+02        00000 
-1.02872e+02 -1.54301e+02        00000 
-6.31098e+01 -1.33214e+02        00000 
-7.37389e+01 -1.50057e+02        00000 
-3.74954e+01 -1.30574e+02        00000 
-4.63532e+01 -1.47199e+02        00000 
-1.27806e+01 -1.29262e+02        00000 
-2.00367e+01 -1.45627e+02        00000 
 1.16092e+01 -1.29230e+02        00000 
 5.78309e+00 -1.45291e+02        00000 
 3.62888e+01 -1.30532e+02        00000 
 3.17514e+01 -1.46206e+02        00000 
 6.18707e+01 -1.33192e+02        00000 
 5.84867e+01 -1.48390e+02        00000 
 8.89645e+01 -1.37066e+02        00000 
 8.65560e+01 -1.51820e+02        00000 
 1.18187e+02 -1.42099e+02        00000 
 1.16575e+02 -1.56539e+02        00000 
-1.09295e+02 -2.04581e+02        00000 