<?xml version="1.0" encoding="utf-8"?>
<VTKFile byte_order="LittleEndian" type="UnstructuredGrid" version="0.1">
   <UnstructuredGrid>
      <Piece NumberOfCells="1296" NumberOfPoints="685">
         <Points>
            <DataArray Name="Points" NumberOfComponents="3" format="ascii" type="Float32">
0.0000 0.0000 0.0000
0.0000 0.1111 0.0000
0.0000 0.2222 0.0000
0.0000 0.3333 0.0000
0.0000 0.4444 0.0000
0.0000 0.5556 0.0000
0.0000 0.6667 0.0000
0.0000 0.7778 0.0000
0.0000 0.8889 0.0000
0.0000 1.0000 0.0000
0.2222 0.0000 0.0000
0.2222 0.1111 0.0000
0.2222 0.2222 0.0000
0.2222 0.3333 0.0000
0.2222 0.4444 0.0000
0.2222 0.5556 0.0000
0.2222 0.6667 0.0000
0.2222 0.7778 0.0000
0.2222 0.8889 0.0000
0.2222 1.0000 0.0000
0.4444 0.0000 0.0000
0.4444 0.1111 0.0000
0.4444 0.2222 0.0000
0.4444 0.3333 0.0000
0.4444 0.4444 0.0000
0.4444 0.5556 0.0000
0.4444 0.6667 0.0000
0.4444 0.7778 0.0000
0.4444 0.8889 0.0000
0.4444 1.0000 0.0000
0.6667 0.0000 0.0000
0.6667 0.1111 0.0000
0.6667 0.2222 0.0000
0.6667 0.3333 0.0000
0.6667 0.4444 0.0000
0.6667 0.5556 0.0000
0.6667 0.6667 0.0000
0.6667 0.7778 0.0000
0.6667 0.8889 0.0000
0.6667 1.0000 0.0000
0.8889 0.0000 0.0000
0.8889 0.1111 0.0000
0.8889 0.2222 0.0000
0.8889 0.3333 0.0000
0.8889 0.4444 0.0000
0.8889 0.5556 0.0000
0.8889 0.6667 0.0000
0.8889 0.7778 0.0000
0.8889 0.8889 0.0000
0.8889 1.0000 0.0000
1.1111 0.0000 0.0000
1.1111 0.1111 0.0000
1.1111 0.2222 0.0000
1.1111 0.3333 0.0000
1.1111 0.4444 0.0000
1.1111 0.5556 0.0000
1.1111 0.6667 0.0000
1.1111 0.7778 0.0000
1.1111 0.8889 0.0000
1.1111 1.0000 0.0000
1.3333 0.0000 0.0000
1.3333 0.1111 0.0000
1.3333 0.2222 0.0000
1.3333 0.3333 0.0000
1.3333 0.4444 0.0000
1.3333 0.5556 0.0000
1.3333 0.6667 0.0000
1.3333 0.7778 0.0000
1.3333 0.8889 0.0000
1.3333 1.0000 0.0000
1.5556 0.0000 0.0000
1.5556 0.1111 0.0000
1.5556 0.2222 0.0000
1.5556 0.3333 0.0000
1.5556 0.4444 0.0000
1.5556 0.5556 0.0000
1.5556 0.6667 0.0000
1.5556 0.7778 0.0000
1.5556 0.8889 0.0000
1.5556 1.0000 0.0000
1.7778 0.0000 0.0000
1.7778 0.1111 0.0000
1.7778 0.2222 0.0000
1.7778 0.3333 0.0000
1.7778 0.4444 0.0000
1.7778 0.5556 0.0000
1.7778 0.6667 0.0000
1.7778 0.7778 0.0000
1.7778 0.8889 0.0000
1.7778 1.0000 0.0000
2.0000 0.0000 0.0000
2.0000 0.1111 0.0000
2.0000 0.2222 0.0000
2.0000 0.3333 0.0000
2.0000 0.4444 0.0000
2.0000 0.5556 0.0000
2.0000 0.6667 0.0000
2.0000 0.7778 0.0000
2.0000 0.8889 0.0000
2.0000 1.0000 0.0000
0.1111 0.0556 0.0000
0.1111 0.1667 0.0000
0.1111 0.2778 0.0000
0.1111 0.3889 0.0000
0.1111 0.5000 0.0000
0.1111 0.6111 0.0000
0.1111 0.7222 0.0000
0.1111 0.8333 0.0000
0.1111 0.9444 0.0000
0.3333 0.0556 0.0000
0.3333 0.1667 0.0000
0.3333 0.2778 0.0000
0.3333 0.3889 0.0000
0.3333 0.5000 0.0000
0.3333 0.6111 0.0000
0.3333 0.7222 0.0000
0.3333 0.8333 0.0000
0.3333 0.9444 0.0000
0.5556 0.0556 0.0000
0.5556 0.1667 0.0000
0.5556 0.2778 0.0000
0.5556 0.3889 0.0000
0.5556 0.5000 0.0000
0.5556 0.6111 0.0000
0.5556 0.7222 0.0000
0.5556 0.8333 0.0000
0.5556 0.9444 0.0000
0.7778 0.0556 0.0000
0.7778 0.1667 0.0000
0.7778 0.2778 0.0000
0.7778 0.3889 0.0000
0.7778 0.5000 0.0000
0.7778 0.6111 0.0000
0.7778 0.7222 0.0000
0.7778 0.8333 0.0000
0.7778 0.9444 0.0000
1.0000 0.0556 0.0000
1.0000 0.1667 0.0000
1.0000 0.2778 0.0000
1.0000 0.3889 0.0000
1.0000 0.5000 0.0000
1.0000 0.6111 0.0000
1.0000 0.7222 0.0000
1.0000 0.8333 0.0000
1.0000 0.9444 0.0000
1.2222 0.0556 0.0000
1.2222 0.1667 0.0000
1.2222 0.2778 0.0000
1.2222 0.3889 0.0000
1.2222 0.5000 0.0000
1.2222 0.6111 0.0000
1.2222 0.7222 0.0000
1.2222 0.8333 0.0000
1.2222 0.9444 0.0000
1.4444 0.0556 0.0000
1.4444 0.1667 0.0000
1.4444 0.2778 0.0000
1.4444 0.3889 0.0000
1.4444 0.5000 0.0000
1.4444 0.6111 0.0000
1.4444 0.7222 0.0000
1.4444 0.8333 0.0000
1.4444 0.9444 0.0000
1.6667 0.0556 0.0000
1.6667 0.1667 0.0000
1.6667 0.2778 0.0000
1.6667 0.3889 0.0000
1.6667 0.5000 0.0000
1.6667 0.6111 0.0000
1.6667 0.7222 0.0000
1.6667 0.8333 0.0000
1.6667 0.9444 0.0000
1.8889 0.0556 0.0000
1.8889 0.1667 0.0000
1.8889 0.2778 0.0000
1.8889 0.3889 0.0000
1.8889 0.5000 0.0000
1.8889 0.6111 0.0000
1.8889 0.7222 0.0000
1.8889 0.8333 0.0000
1.8889 0.9444 0.0000
0.0000 0.0556 0.0000
0.0556 0.0278 0.0000
0.0556 0.0833 0.0000
0.0000 0.1667 0.0000
0.0556 0.1389 0.0000
0.0556 0.1944 0.0000
0.0000 0.2778 0.0000
0.0556 0.2500 0.0000
0.0556 0.3056 0.0000
0.0000 0.3889 0.0000
0.0556 0.3611 0.0000
0.0556 0.4167 0.0000
0.0000 0.5000 0.0000
0.0556 0.4722 0.0000
0.0556 0.5278 0.0000
0.0000 0.6111 0.0000
0.0556 0.5833 0.0000
0.0556 0.6389 0.0000
0.0000 0.7222 0.0000
0.0556 0.6944 0.0000
0.0556 0.7500 0.0000
0.0000 0.8333 0.0000
0.0556 0.8056 0.0000
0.0556 0.8611 0.0000
0.0000 0.9444 0.0000
0.0556 0.9167 0.0000
0.0556 0.9722 0.0000
0.2222 0.0556 0.0000
0.2778 0.0278 0.0000
0.2778 0.0833 0.0000
0.2222 0.1667 0.0000
0.2778 0.1389 0.0000
0.2778 0.1944 0.0000
0.2222 0.2778 0.0000
0.2778 0.2500 0.0000
0.2778 0.3056 0.0000
0.2222 0.3889 0.0000
0.2778 0.3611 0.0000
0.2778 0.4167 0.0000
0.2222 0.5000 0.0000
0.2778 0.4722 0.0000
0.2778 0.5278 0.0000
0.2222 0.6111 0.0000
0.2778 0.5833 0.0000
0.2778 0.6389 0.0000
0.2222 0.7222 0.0000
0.2778 0.6944 0.0000
0.2778 0.7500 0.0000
0.2222 0.8333 0.0000
0.2778 0.8056 0.0000
0.2778 0.8611 0.0000
0.2222 0.9444 0.0000
0.2778 0.9167 0.0000
0.2778 0.9722 0.0000
0.4444 0.0556 0.0000
0.5000 0.0278 0.0000
0.5000 0.0833 0.0000
0.4444 0.1667 0.0000
0.5000 0.1389 0.0000
0.5000 0.1944 0.0000
0.4444 0.2778 0.0000
0.5000 0.2500 0.0000
0.5000 0.3056 0.0000
0.4444 0.3889 0.0000
0.5000 0.3611 0.0000
0.5000 0.4167 0.0000
0.4444 0.5000 0.0000
0.5000 0.4722 0.0000
0.5000 0.5278 0.0000
0.4444 0.6111 0.0000
0.5000 0.5833 0.0000
0.5000 0.6389 0.0000
0.4444 0.7222 0.0000
0.5000 0.6944 0.0000
0.5000 0.7500 0.0000
0.4444 0.8333 0.0000
0.5000 0.8056 0.0000
0.5000 0.8611 0.0000
0.4444 0.9444 0.0000
0.5000 0.9167 0.0000
0.5000 0.9722 0.0000
0.6667 0.0556 0.0000
0.7222 0.0278 0.0000
0.7222 0.0833 0.0000
0.6667 0.1667 0.0000
0.7222 0.1389 0.0000
0.7222 0.1944 0.0000
0.6667 0.2778 0.0000
0.7222 0.2500 0.0000
0.7222 0.3056 0.0000
0.6667 0.3889 0.0000
0.7222 0.3611 0.0000
0.7222 0.4167 0.0000
0.6667 0.5000 0.0000
0.7222 0.4722 0.0000
0.7222 0.5278 0.0000
0.6667 0.6111 0.0000
0.7222 0.5833 0.0000
0.7222 0.6389 0.0000
0.6667 0.7222 0.0000
0.7222 0.6944 0.0000
0.7222 0.7500 0.0000
0.6667 0.8333 0.0000
0.7222 0.8056 0.0000
0.7222 0.8611 0.0000
0.6667 0.9444 0.0000
0.7222 0.9167 0.0000
0.7222 0.9722 0.0000
0.8889 0.0556 0.0000
0.9444 0.0278 0.0000
0.9444 0.0833 0.0000
0.8889 0.1667 0.0000
0.9444 0.1389 0.0000
0.9444 0.1944 0.0000
0.8889 0.2778 0.0000
0.9444 0.2500 0.0000
0.9444 0.3056 0.0000
0.8889 0.3889 0.0000
0.9444 0.3611 0.0000
0.9444 0.4167 0.0000
0.8889 0.5000 0.0000
0.9444 0.4722 0.0000
0.9444 0.5278 0.0000
0.8889 0.6111 0.0000
0.9444 0.5833 0.0000
0.9444 0.6389 0.0000
0.8889 0.7222 0.0000
0.9444 0.6944 0.0000
0.9444 0.7500 0.0000
0.8889 0.8333 0.0000
0.9444 0.8056 0.0000
0.9444 0.8611 0.0000
0.8889 0.9444 0.0000
0.9444 0.9167 0.0000
0.9444 0.9722 0.0000
1.1111 0.0556 0.0000
1.1667 0.0278 0.0000
1.1667 0.0833 0.0000
1.1111 0.1667 0.0000
1.1667 0.1389 0.0000
1.1667 0.1944 0.0000
1.1111 0.2778 0.0000
1.1667 0.2500 0.0000
1.1667 0.3056 0.0000
1.1111 0.3889 0.0000
1.1667 0.3611 0.0000
1.1667 0.4167 0.0000
1.1111 0.5000 0.0000
1.1667 0.4722 0.0000
1.1667 0.5278 0.0000
1.1111 0.6111 0.0000
1.1667 0.5833 0.0000
1.1667 0.6389 0.0000
1.1111 0.7222 0.0000
1.1667 0.6944 0.0000
1.1667 0.7500 0.0000
1.1111 0.8333 0.0000
1.1667 0.8056 0.0000
1.1667 0.8611 0.0000
1.1111 0.9444 0.0000
1.1667 0.9167 0.0000
1.1667 0.9722 0.0000
1.3333 0.0556 0.0000
1.3889 0.0278 0.0000
1.3889 0.0833 0.0000
1.3333 0.1667 0.0000
1.3889 0.1389 0.0000
1.3889 0.1944 0.0000
1.3333 0.2778 0.0000
1.3889 0.2500 0.0000
1.3889 0.3056 0.0000
1.3333 0.3889 0.0000
1.3889 0.3611 0.0000
1.3889 0.4167 0.0000
1.3333 0.5000 0.0000
1.3889 0.4722 0.0000
1.3889 0.5278 0.0000
1.3333 0.6111 0.0000
1.3889 0.5833 0.0000
1.3889 0.6389 0.0000
1.3333 0.7222 0.0000
1.3889 0.6944 0.0000
1.3889 0.7500 0.0000
1.3333 0.8333 0.0000
1.3889 0.8056 0.0000
1.3889 0.8611 0.0000
1.3333 0.9444 0.0000
1.3889 0.9167 0.0000
1.3889 0.9722 0.0000
1.5556 0.0556 0.0000
1.6111 0.0278 0.0000
1.6111 0.0833 0.0000
1.5556 0.1667 0.0000
1.6111 0.1389 0.0000
1.6111 0.1944 0.0000
1.5556 0.2778 0.0000
1.6111 0.2500 0.0000
1.6111 0.3056 0.0000
1.5556 0.3889 0.0000
1.6111 0.3611 0.0000
1.6111 0.4167 0.0000
1.5556 0.5000 0.0000
1.6111 0.4722 0.0000
1.6111 0.5278 0.0000
1.5556 0.6111 0.0000
1.6111 0.5833 0.0000
1.6111 0.6389 0.0000
1.5556 0.7222 0.0000
1.6111 0.6944 0.0000
1.6111 0.7500 0.0000
1.5556 0.8333 0.0000
1.6111 0.8056 0.0000
1.6111 0.8611 0.0000
1.5556 0.9444 0.0000
1.6111 0.9167 0.0000
1.6111 0.9722 0.0000
1.7778 0.0556 0.0000
1.8333 0.0278 0.0000
1.8333 0.0833 0.0000
1.7778 0.1667 0.0000
1.8333 0.1389 0.0000
1.8333 0.1944 0.0000
1.7778 0.2778 0.0000
1.8333 0.2500 0.0000
1.8333 0.3056 0.0000
1.7778 0.3889 0.0000
1.8333 0.3611 0.0000
1.8333 0.4167 0.0000
1.7778 0.5000 0.0000
1.8333 0.4722 0.0000
1.8333 0.5278 0.0000
1.7778 0.6111 0.0000
1.8333 0.5833 0.0000
1.8333 0.6389 0.0000
1.7778 0.7222 0.0000
1.8333 0.6944 0.0000
1.8333 0.7500 0.0000
1.7778 0.8333 0.0000
1.8333 0.8056 0.0000
1.8333 0.8611 0.0000
1.7778 0.9444 0.0000
1.8333 0.9167 0.0000
1.8333 0.9722 0.0000
0.1111 0.1111 0.0000
0.1667 0.0833 0.0000
0.1111 0.2222 0.0000
0.1667 0.1944 0.0000
0.1111 0.3333 0.0000
0.1667 0.3056 0.0000
0.1111 0.4444 0.0000
0.1667 0.4167 0.0000
0.1111 0.5556 0.0000
0.1667 0.5278 0.0000
0.1111 0.6667 0.0000
0.1667 0.6389 0.0000
0.1111 0.7778 0.0000
0.1667 0.7500 0.0000
0.1111 0.8889 0.0000
0.1667 0.8611 0.0000
0.1111 1.0000 0.0000
0.1667 0.9722 0.0000
0.3333 0.1111 0.0000
0.3889 0.0833 0.0000
0.3333 0.2222 0.0000
0.3889 0.1944 0.0000
0.3333 0.3333 0.0000
0.3889 0.3056 0.0000
0.3333 0.4444 0.0000
0.3889 0.4167 0.0000
0.3333 0.5556 0.0000
0.3889 0.5278 0.0000
0.3333 0.6667 0.0000
0.3889 0.6389 0.0000
0.3333 0.7778 0.0000
0.3889 0.7500 0.0000
0.3333 0.8889 0.0000
0.3889 0.8611 0.0000
0.3333 1.0000 0.0000
0.3889 0.9722 0.0000
0.5556 0.1111 0.0000
[...]
         <PointData>
            <DataArray Name="fValues" NumberOfComponents="3" format="ascii" type="Float64">
-7.64854e-16 -6.11883e-16        00000 
-1.15548e-16 -4.12671e-17        00000 
 1.00567e-17 -4.73827e-18        00000 
-4.93174e-17  4.93174e-17        00000 
-3.32808e-17  5.45064e-17        00000 
-2.46587e-17 -9.86348e-17        00000 
 1.53589e-17  2.06289e-18        00000 
-1.64243e-17  2.46364e-17        00000 
 1.98129e-16  8.25539e-18        00000 
 3.05941e-16  7.64854e-17        00000 
-9.39901e+00 -5.19623e+00        00000 
-6.99556e+00 -3.34598e+00        00000 
-4.70101e+00 -2.01407e+00        00000 
-3.11235e+00 -7.36870e-01        00000 
-1.38604e+00  9.83730e-03        00000 
 2.36496e-01  3.02481e-01        00000 
 1.73996e+00  2.19541e-01        00000 
 3.48117e+00 -3.99158e-01        00000 
 5.48907e+00 -1.42575e+00        00000 
 7.56126e+00 -2.78816e+00        00000 
-1.67715e+01 -1.10292e+01        00000 
-1.42976e+01 -9.10760e+00        00000 
-1.11541e+01 -7.12458e+00        00000 
-7.45533e+00 -5.63744e+00        00000 
-3.70641e+00 -4.88393e+00        00000 
-8.75492e-02 -4.61610e+00        00000 
 3.38418e+00 -4.98669e+00        00000 
 7.04060e+00 -5.76951e+00        00000 
 1.07604e+01 -6.64666e+00        00000 
 1.38957e+01 -7.66744e+00        00000 
-2.71822e+01 -1.71514e+01        00000 
-2.21506e+01 -1.50273e+01        00000 
-1.70606e+01 -1.37494e+01        00000 
-1.18072e+01 -1.27590e+01        00000 
-6.19057e+00 -1.21463e+01        00000 
-7.51662e-01 -1.20970e+01        00000 
 4.52439e+00 -1.24384e+01        00000 
 9.67256e+00 -1.31095e+01        00000 
 1.49511e+01 -1.39353e+01        00000 
 2.01608e+01 -1.51414e+01        00000 
-3.82238e+01 -3.01042e+01        00000 
-3.06701e+01 -2.80140e+01        00000 
-2.34447e+01 -2.64089e+01        00000 
-1.61221e+01 -2.52726e+01        00000 
-8.79075e+00 -2.46392e+01        00000 
-1.38715e+00 -2.45338e+01        00000 
 5.76344e+00 -2.47452e+01        00000 
 1.28549e+01 -2.53937e+01        00000 
 1.98918e+01 -2.65492e+01        00000 
 2.69743e+01 -2.78245e+01        00000 
-4.85953e+01 -4.75740e+01        00000 
-3.89058e+01 -4.55314e+01        00000 
-2.91703e+01 -4.38993e+01        00000 
-1.96663e+01 -4.27256e+01        00000 
-1.05310e+01 -4.20541e+01        00000 
-1.68132e+00 -4.17186e+01        00000 
 7.23906e+00 -4.16558e+01        00000 
 1.61746e+01 -4.21330e+01        00000 
 2.53059e+01 -4.29297e+01        00000 
 3.46135e+01 -4.44464e+01        00000 
-5.81123e+01 -6.87132e+01        00000 
-4.63923e+01 -6.70775e+01        00000 
-3.45954e+01 -6.56948e+01        00000 
-2.32569e+01 -6.45806e+01        00000 
-1.24561e+01 -6.38532e+01        00000 
-2.02592e+00 -6.34555e+01        00000 
 8.48559e+00 -6.34598e+01        00000 
 1.95809e+01 -6.37666e+01        00000 
 3.10614e+01 -6.46925e+01        00000 
 4.30864e+01 -6.62206e+01        00000 
-6.61330e+01 -9.61239e+01        00000 
-5.19594e+01 -9.47016e+01        00000 
-3.88417e+01 -9.37392e+01        00000 
-2.61841e+01 -9.30153e+01        00000 
-1.42607e+01 -9.24066e+01        00000 
-2.41134e+00 -9.18874e+01        00000 
 9.77107e+00 -9.16183e+01        00000 
 2.26317e+01 -9.17762e+01        00000 
 3.63774e+01 -9.23661e+01        00000 
 5.10372e+01 -9.36588e+01        00000 
-7.27744e+01 -1.27098e+02        00000 
-5.57526e+01 -1.26371e+02        00000 
-4.05865e+01 -1.26230e+02        00000 
-2.75367e+01 -1.26283e+02        00000 
-1.51306e+01 -1.26134e+02        00000 
-2.84293e+00 -1.25840e+02        00000 
 9.94307e+00 -1.25538e+02        00000 
 2.39428e+01 -1.25426e+02        00000 
 3.95689e+01 -1.25527e+02        00000 
 5.71987e+01 -1.26308e+02        00000 
-7.88317e+01 -1.70438e+02        00000 
-5.73801e+01 -1.67700e+02        00000 
-4.11703e+01 -1.64560e+02        00000 
-2.80343e+01 -1.62491e+02        00000 
-1.53654e+01 -1.61664e+02        00000 
-3.02240e+00 -1.62105e+02        00000 
 1.02948e+01 -1.63408e+02        00000 
 2.47659e+01 -1.65222e+02        00000 
 4.12691e+01 -1.67645e+02        00000 
 6.18432e+01 -1.69653e+02        00000 
-3.95127e+00 -2.44831e+00        00000 
-2.54616e+00 -9.57918e-01        00000 
-1.58228e+00 -3.08961e-01        00000 
-9.53223e-01  4.07040e-01        00000 
-1.67280e-01  9.02108e-01        00000 
 5.02292e-01  1.01385e+00        00000 
 1.21798e+00  7.60342e-01        00000 
 2.01675e+00  1.33313e-01        00000 
 3.10784e+00 -1.00688e+00        00000 
-1.20911e+01 -7.10852e+00        00000 
-9.04303e+00 -5.29694e+00        00000 
-6.55712e+00 -3.43863e+00        00000 
-3.94047e+00 -2.38272e+00        00000 
-1.08502e+00 -1.72720e+00        00000 
 1.37875e+00 -1.53412e+00        00000 
 3.96148e+00 -2.10647e+00        00000 
 6.75741e+00 -3.18967e+00        00000 
 9.72726e+00 -4.60339e+00        00000 
-1.97948e+01 -1.19417e+01        00000 
-1.62200e+01 -1.03100e+01        00000 
-1.19755e+01 -9.04702e+00        00000 
-7.36849e+00 -8.22715e+00        00000 
-2.68099e+00 -7.75270e+00        00000 
 1.84772e+00 -7.84770e+00        00000 
 6.24469e+00 -8.44500e+00        00000 
 1.05336e+01 -9.22864e+00        00000 
 1.49299e+01 -1.01192e+01        00000 
-2.95997e+01 -2.18305e+01        00000 
-2.32866e+01 -2.00887e+01        00000 
-1.70641e+01 -1.88089e+01        00000 
-1.08780e+01 -1.81403e+01        00000 
-4.34629e+00 -1.77647e+01        00000 
 2.01993e+00 -1.79273e+01        00000 
 8.19633e+00 -1.83420e+01        00000 
 1.42770e+01 -1.91730e+01        00000 
 2.04493e+01 -2.03193e+01        00000 
-3.91733e+01 -3.71242e+01        00000 
-3.06390e+01 -3.51964e+01        00000 
-2.21262e+01 -3.39385e+01        00000 
-1.38314e+01 -3.31131e+01        00000 
-5.57237e+00 -3.27694e+01        00000 
 2.69135e+00 -3.25647e+01        00000 
 1.06082e+01 -3.27787e+01        00000 
 1.86899e+01 -3.35704e+01        00000 
 2.67092e+01 -3.47508e+01        00000 
-4.81798e+01 -5.64210e+01        00000 
-3.72957e+01 -5.47451e+01        00000 
-2.66070e+01 -5.35535e+01        00000 
-1.63468e+01 -5.27333e+01        00000 
-6.66245e+00 -5.22664e+01        00000 
 2.98807e+00 -5.18619e+01        00000 
 1.27925e+01 -5.20013e+01        00000 
 2.30904e+01 -5.25553e+01        00000 
 3.35694e+01 -5.38077e+01        00000 
-5.58323e+01 -8.08342e+01        00000 
-4.31362e+01 -7.96638e+01        00000 
-3.08900e+01 -7.86710e+01        00000 
-1.91418e+01 -7.77513e+01        00000 
-7.82192e+00 -7.71227e+01        00000 
 3.39055e+00 -7.67708e+01        00000 
 1.51260e+01 -7.66875e+01        00000 
 2.75729e+01 -7.71529e+01        00000 
 4.04584e+01 -7.82399e+01        00000 
-6.17906e+01 -1.10153e+02        00000 
-4.69939e+01 -1.09334e+02        00000 
-3.35987e+01 -1.08961e+02        00000 
-2.08721e+01 -1.08533e+02        00000 
-8.68368e+00 -1.08099e+02        00000 
 3.55630e+00 -1.07793e+02        00000 
 1.65746e+01 -1.07673e+02        00000 
 3.07250e+01 -1.07828e+02        00000 
 4.61601e+01 -1.08522e+02        00000 
-6.58054e+01 -1.45582e+02        00000 
-4.81668e+01 -1.45094e+02        00000 
-3.39596e+01 -1.44586e+02        00000 
-2.14033e+01 -1.44067e+02        00000 
-9.32444e+00 -1.43932e+02        00000 
 3.18372e+00 -1.43929e+02        00000 
 1.68738e+01 -1.44392e+02        00000 
 3.18459e+01 -1.44842e+02        00000 
 4.97622e+01 -1.45349e+02        00000 
-1.74672e-16  7.50310e-18        00000 
-2.14903e+00 -1.38112e+00        00000 
-1.62167e+00 -8.73320e-01        00000 
 1.85674e-16  1.25690e-16        00000 
-1.29624e+00 -4.58059e-01        00000 
-1.00455e+00 -2.36477e-01        00000 
-1.87350e-16  1.17094e-17        00000 
-8.12494e-01 -1.04655e-01        00000 
-5.97167e-01  1.02142e-01        00000 
-5.69032e-17  8.45907e-17        00000 
-4.84192e-01  2.30712e-01        00000 
-3.05873e-01  3.94607e-01        00000 
 2.73219e-17  2.18575e-16        00000 
-8.89531e-02  5.39289e-01        00000 
-2.72430e-03  6.12195e-01        00000 
 1.14534e-16  6.21062e-17        00000 
 1.85664e-01  6.53937e-01        00000 
 3.26363e-01  6.42638e-01        00000 
-1.24900e-16 -9.36751e-17        00000 
 4.61534e-01  6.03466e-01        00000 
 6.61085e-01  4.87873e-01        00000 
 2.49800e-16  7.80626e-18        00000 
 8.49985e-01  3.25447e-01        00000 
 1.00203e+00  1.37714e-01        00000 
 2.92034e-17 -3.41145e-17        00000 
 1.31513e+00 -1.78661e-01        00000 
 1.61429e+00 -6.41972e-01        00000 
-8.31022e+00 -4.17422e+00        00000 
-1.10067e+01 -5.89324e+00        00000 
-9.51063e+00 -5.18665e+00        00000 
-5.78251e+00 -2.71948e+00        00000 
-8.01554e+00 -4.33699e+00        00000 
-6.78641e+00 -3.53307e+00        00000 
-3.91250e+00 -1.37080e+00        00000 
-5.67945e+00 -2.55815e+00        00000 
-4.71123e+00 -1.86896e+00        00000 
-2.33256e+00 -3.32130e-01        00000 
-3.65475e+00 -1.30636e+00        00000 
-2.55070e+00 -8.80535e-01        00000 
-5.84528e-01  1.36352e-01        00000 
-1.31800e+00 -5.43319e-01        00000 
-3.41171e-01 -3.86145e-01        00000 
 8.85389e-01  2.69283e-01        00000 
 7.16008e-01 -3.32530e-01        00000 
 1.59655e+00 -5.20414e-01        00000 
 2.48480e+00 -7.47971e-02        00000 
 2.73083e+00 -7.36302e-01        00000 
 3.79519e+00 -1.12997e+00        00000 
 4.47592e+00 -8.49289e-01        00000 
 5.04253e+00 -1.66243e+00        00000 
 6.22259e+00 -2.26683e+00        00000 
 6.58728e+00 -2.09845e+00        00000 
 7.54785e+00 -2.89677e+00        00000 
 8.69657e+00 -3.68836e+00        00000 
-1.56307e+01 -1.01718e+01        00000 
-1.81935e+01 -1.15035e+01        00000 
-1.70372e+01 -1.04901e+01        00000 
-1.28397e+01 -8.09959e+00        00000 
-1.54775e+01 -9.49816e+00        00000 
-1.37010e+01 -8.72555e+00        00000 
-9.30179e+00 -6.27485e+00        00000 
-1.17807e+01 -7.95286e+00        00000 
-9.67930e+00 -7.33757e+00        00000 
-5.56591e+00 -5.12147e+00        00000 
-7.57980e+00 -6.82734e+00        00000 
-5.44350e+00 -6.44216e+00        00000 
-1.84085e+00 -4.67896e+00        00000 
-3.32731e+00 -6.17103e+00        00000 
-1.26176e+00 -6.09014e+00        00000 
 1.61963e+00 -4.74713e+00        00000 
 7.11338e-01 -6.16586e+00        00000 
 2.71540e+00 -6.36984e+00        00000 
 5.10924e+00 -5.36993e+00        00000 
 4.67581e+00 -6.72262e+00        00000 
 6.63564e+00 -7.11335e+00        00000 
 8.88374e+00 -6.22279e+00        00000 
 8.69464e+00 -7.48651e+00        00000 
 1.06860e+01 -7.84889e+00        00000 
 1.24580e+01 -7.17552e+00        00000 
 1.26948e+01 -8.24577e+00        00000 
 1.45859e+01 -8.78241e+00        00000 
-2.47210e+01 -1.59154e+01        00000 
-2.87245e+01 -1.92110e+01        00000 
-2.56226e+01 -1.82231e+01        00000 
-1.96159e+01 -1.43155e+01        00000 
-2.27959e+01 -1.73389e+01        00000 
-1.98730e+01 -1.65853e+01        00000 
-1.44869e+01 -1.32433e+01        00000 
-1.71379e+01 -1.60301e+01        00000 
-1.42356e+01 -1.55471e+01        00000 
-9.11715e+00 -1.24330e+01        00000 
-1.13992e+01 -1.52036e+01        00000 
-8.39190e+00 -1.49295e+01        00000 
-3.50015e+00 -1.20967e+01        00000 
-5.34037e+00 -1.47700e+01        00000 
-2.44411e+00 -1.47802e+01        00000 
 1.93015e+00 -1.22524e+01        00000 
 5.34342e-01 -1.48810e+01        00000 
 3.36414e+00 -1.49954e+01        00000 
 7.04246e+00 -1.27656e+01        00000 
 6.23795e+00 -1.52398e+01        00000 
 8.98346e+00 -1.55641e+01        00000 
 1.22755e+01 -1.35307e+01        00000 
 1.17992e+01 -1.59274e+01        00000 
 1.46814e+01 -1.63665e+01        00000 
 1.75864e+01 -1.45022e+01        00000 
 1.76240e+01 -1.69673e+01        00000 
 2.03985e+01 -1.76149e+01        00000 
-3.44378e+01 -2.90288e+01        00000 
-3.88395e+01 -3.35381e+01        00000 
-3.48372e+01 -3.23007e+01        00000 
-2.70655e+01 -2.70866e+01        00000 
-3.07971e+01 -3.13854e+01        00000 
-2.69466e+01 -3.06471e+01        00000 
-1.97936e+01 -2.57815e+01        00000 
-2.30232e+01 -3.00219e+01        00000 
-1.90253e+01 -2.94689e+01        00000 
-1.25243e+01 -2.48583e+01        00000 
-1.51708e+01 -2.90051e+01        00000 
-1.13125e+01 -2.87436e+01        00000 
-5.11888e+00 -2.45315e+01        00000 
-7.27317e+00 -2.85404e+01        00000 
-3.46472e+00 -2.84470e+01        00000 
 2.24622e+00 -2.45830e+01        00000 
 5.51139e-01 -2.83683e+01        00000 
 4.36497e+00 -2.84344e+01        00000 
 9.33233e+00 -2.50235e+01        00000 
 8.10455e+00 -2.85884e+01        00000 
 1.18357e+01 -2.89242e+01        00000 
 1.63644e+01 -2.59550e+01        00000 
 1.56215e+01 -2.93514e+01        00000 
 1.94146e+01 -2.98467e+01        00000 
 2.34228e+01 -2.71809e+01        00000 
 2.31617e+01 -3.05282e+01        00000 
 2.68634e+01 -3.12664e+01        00000 
-4.38517e+01 -4.65803e+01        00000 
-4.86506e+01 -5.19216e+01        00000 
-4.34358e+01 -5.08342e+01        00000 
-3.40947e+01 -4.46400e+01        00000 
-3.82302e+01 -4.99470e+01        00000 
-3.31789e+01 -4.91977e+01        00000 
-2.44084e+01 -4.33005e+01        00000 
-2.80279e+01 -4.85438e+01        00000 
-2.30983e+01 -4.80194e+01        00000 
-1.51026e+01 -4.24091e+01        00000 
-1.81419e+01 -4.75399e+01        00000 
-1.34051e+01 -4.72644e+01        00000 
-6.11455e+00 -4.18063e+01        00000 
-8.69419e+00 -4.69822e+01        00000 
-4.15585e+00 -4.68026e+01        00000 
 2.83572e+00 -4.16832e+01        00000 
 5.51121e-01 -4.66348e+01        00000 
 5.14886e+00 -4.65985e+01        00000 
 1.17396e+01 -4.18480e+01        00000 
 9.87520e+00 -4.66109e+01        00000 
 1.46189e+01 -4.67872e+01        00000 
 2.08103e+01 -4.24831e+01        00000 
 1.94361e+01 -4.70806e+01        00000 
 2.43505e+01 -4.75958e+01        00000 
 2.99251e+01 -4.36463e+01        00000 
 2.92223e+01 -4.82406e+01        00000 
 3.42131e+01 -4.90602e+01        00000 
-5.23072e+01 -6.78146e+01        00000 
-5.72561e+01 -7.45781e+01        00000 
-5.10690e+01 -7.37589e+01        00000 
-4.04476e+01 -6.62716e+01        00000 
-4.48861e+01 -7.31250e+01        00000 
-3.87766e+01 -7.24423e+01        00000 
-2.88938e+01 -6.50978e+01        00000 
-3.28532e+01 -7.19058e+01        00000 
-2.70351e+01 -7.14195e+01        00000 
-1.78911e+01 -6.42001e+01        00000 
-2.12618e+01 -7.09352e+01        00000 
-1.57944e+01 -7.05464e+01        00000 
-7.31785e+00 -6.36123e+01        00000 
-1.02580e+01 -7.02427e+01        00000 
-4.87690e+00 -7.00650e+01        00000 
 3.12678e+00 -6.34380e+01        00000 
 5.84939e-01 -6.98468e+01        00000 
 6.02393e+00 -6.98598e+01        00000 
 1.39135e+01 -6.35401e+01        00000 
 1.16929e+01 -6.97712e+01        00000 
 1.74960e+01 -6.99303e+01        00000 
 2.52694e+01 -6.41422e+01        00000 
 2.34537e+01 -7.02046e+01        00000 
 2.95404e+01 -7.07218e+01        00000 
 3.70165e+01 -6.53878e+01        00000 
 3.56415e+01 -7.12870e+01        00000 
 4.20859e+01 -7.21447e+01        00000 
-5.90154e+01 -9.53775e+01        00000 
-6.41093e+01 -1.03056e+02        00000 
-5.67886e+01 -1.02317e+02        00000 
-4.53562e+01 -9.41728e+01        00000 
-4.96764e+01 -1.01836e+02        00000 
-4.28890e+01 -1.01441e+02        00000 
-3.23796e+01 -9.33535e+01        00000 
-3.63115e+01 -1.01134e+02        00000 
-2.98649e+01 -1.00839e+02        00000 
-2.01764e+01 -9.27122e+01        00000 
-2.36864e+01 -1.00574e+02        00000 
-1.75326e+01 -1.00297e+02        00000 
-8.28914e+00 -9.21742e+01        00000 
-1.15647e+01 -1.00089e+02        00000 
-5.49832e+00 -9.97937e+01        00000 
 3.56386e+00 -9.17073e+01        00000 
 4.73501e-01 -9.96013e+01        00000 
 6.73282e+00 -9.95062e+01        00000 
 1.61151e+01 -9.16442e+01        00000 
 1.31510e+01 -9.94666e+01        00000 
 1.98578e+01 -9.94616e+01        00000 
 2.94154e+01 -9.19380e+01        00000 
 2.66062e+01 -9.96014e+01        00000 
 3.37657e+01 -9.98240e+01        00000 
 4.34716e+01 -9.28882e+01        00000 
 4.11119e+01 -1.00291e+02        00000 
 4.87592e+01 -1.00861e+02        00000 
-6.41681e+01 -1.26568e+02        00000 
-6.97749e+01 -1.36006e+02        00000 
-6.04810e+01 -1.35646e+02        00000 
-4.78353e+01 -1.26283e+02        00000 
-5.19657e+01 -1.35519e+02        00000 
-4.41929e+01 -1.35414e+02        00000 
-3.39208e+01 -1.26247e+02        00000 
-3.72151e+01 -1.35351e+02        00000 
-3.06997e+01 -1.35297e+02        00000 
-2.13192e+01 -1.26263e+02        00000 
-2.44475e+01 -1.35272e+02        00000 
-1.83424e+01 -1.35193e+02        00000 
-9.00790e+00 -1.25988e+02        00000 
-1.22681e+01 -1.35087e+02        00000 
-6.13067e+00 -1.34943e+02        00000 
 3.45203e+00 -1.25652e+02        00000 
 5.35376e-02 -1.34801e+02        00000 
 6.51856e+00 -1.34708e+02        00000 
 1.68100e+01 -1.25414e+02        00000 
 1.32325e+01 -1.34680e+02        00000 
 2.04465e+01 -1.34715e+02        00000 
 3.15885e+01 -1.25431e+02        00000 
 2.78545e+01 -1.34794e+02        00000 
 3.57737e+01 -1.34882e+02        00000 
 4.82344e+01 -1.25743e+02        00000 
 4.44788e+01 -1.35072e+02        00000 
 5.39418e+01 -1.35485e+02        00000 
-3.23293e+00 -1.58513e+00        00000 
-5.61581e+00 -2.84323e+00        00000 
-1.95129e+00 -6.01409e-01        00000 
-3.69028e+00 -1.32078e+00        00000 
-1.27544e+00  4.13632e-02        00000 
-2.43181e+00 -3.09351e-01        00000 
-5.37041e-01  6.75457e-01        00000 
-1.28006e+00  4.35795e-01        00000 
 1.77758e-01  1.01434e+00        00000 
-2.92401e-02  8.24102e-01        00000 
 8.73404e-01  9.44979e-01        00000 
 1.05150e+00  8.72185e-01        00000 
 1.68310e+00  4.64746e-01        00000 
 2.25994e+00  5.53528e-01        00000 
 2.55210e+00 -3.33706e-01        00000 
 3.66792e+00 -3.79759e-01        00000 
 3.80046e+00 -1.82798e+00        00000 
 5.32353e+00 -1.88889e+00        00000 
-1.04798e+01 -6.22813e+00        00000 
-1.30275e+01 -8.42048e+00        00000 
-7.85866e+00 -4.20250e+00        00000 
-1.02786e+01 -6.27564e+00        00000 
-5.29968e+00 -2.76642e+00        00000 
-7.13446e+00 -4.59235e+00        00000 
-2.52990e+00 -1.93133e+00        00000 
-3.97049e+00 -3.62625e+00        00000 
 1.35045e-01 -1.49331e+00        00000 
-6.80777e-01 -3.16704e+00        00000 
 2.60774e+00 -1.69195e+00        00000 
 2.22225e+00 -3.27391e+00        00000 
 5.33949e+00 -2.60688e+00        00000 
 5.30530e+00 -3.90315e+00        00000 
 8.28851e+00 -3.82110e+00        00000 
 8.70175e+00 -4.99734e+00        00000 
 1.11037e+01 -5.36951e+00        00000 
 1.19371e+01 -6.27297e+00        00000 
-1.82081e+01 -1.10431e+01        00000 
-2.11807e+01 -1.31538e+01        00000 
-1.41848e+01 -9.62263e+00        00000 
-1.67438e+01 -1.16805e+01        00000 
-9.72918e+00 -8.57227e+00        00000 
-1.19940e+01 -1.06694e+01        00000 
-5.10834e+00 -7.90485e+00        00000 
-6.92134e+00 -9.88845e+00        00000 
-4.36921e-01 -7.63582e+00        00000 
-1.79656e+00 -9.57195e+00        00000 
 4.03208e+00 -8.10213e+00        00000 
 3.12135e+00 -9.81891e+00        00000 
 8.32729e+00 -8.79738e+00        00000 
 7.83768e+00 -1.04274e+01        00000 
 1.27616e+01 -9.62869e+00        00000 
 1.26507e+01 -1.13670e+01        00000 
 1.69974e+01 -1.06597e+01        00000 
 1.73364e+01 -1.24342e+01        00000 
-2.63508e+01 -2.08916e+01        00000 
-3.02504e+01 -2.48199e+01        00000 
-2.00507e+01 -1.92854e+01        00000 
-2.35020e+01 -2.30977e+01        00000 
-1.38706e+01 -1.83756e+01        00000 
-1.67871e+01 -2.19425e+01        00000 
-7.54250e+00 -1.79239e+01        00000 
-1.00368e+01 -2.13092e+01        00000 
-1.12103e+00 -1.78244e+01        00000 
-3.06061e+00 -2.09289e+01        00000 
 5.09304e+00 -1.81375e+01        00000 
 3.71840e+00 -2.11524e+01        00000 
 1.12374e+01 -1.87353e+01        00000 
 1.03758e+01 -2.17536e+01        00000 
 1.74454e+01 -1.96834e+01        00000 
 1.69644e+01 -2.27722e+01        00000 
 2.35960e+01 -2.10167e+01        00000 
 2.36146e+01 -2.40627e+01        00000 
-3.47881e+01 -3.61378e+01        00000 