<?xml version="1.0" encoding="utf-8"?>
<VTKFile byte_order="LittleEndian" type="UnstructuredGrid" version="0.1">
   <UnstructuredGrid>
      <Piece NumberOfCells="1296" NumberOfPoints="685">
         <Points>
            <DataArray Name="Points" NumberOfComponents="3" format="ascii" type="Float32">
0.0000 0.0000 0.0000
0.0000 0.1111 0.0000
0.0000 0.2222 0.0000
0.0000 0.3333 0.0000
0.0000 0.4444 0.0000
0.0000 0.5556 0.0000
0.0000 0.6667 0.0000
0.0000 0.7778 0.0000
0.0000 0.8889 0.0000
0.0000 1.0000 0.0000
0.2222 0.0000 0.0000
0.2222 0.1111 0.0000
0.2222 0.2222 0.0000
0.2222 0.3333 0.0000
0.2222 0.4444 0.0000
0.2222 0.5556 0.0000
0.2222 0.6667 0.0000
0.2222 0.7778 0.0000
0.2222 0.8889 0.0000
0.2222 1.0000 0.0000
0.4444 0.0000 0.0000
0.4444 0.1111 0.0000
0.4444 0.2222 0.0000
0.4444 0.3333 0.0000
0.4444 0.4444 0.0000
0.4444 0.5556 0.0000
0.4444 0.6667 0.0000
0.4444 0.7778 0.0000
0.4444 0.8889 0.0000
0.4444 1.0000 0.0000
0.6667 0.0000 0.0000
0.6667 0.1111 0.0000
0.6667 0.2222 0.0000
0.6667 0.3333 0.0000
0.6667 0.4444 0.0000
0.6667 0.5556 0.0000
0.6667 0.6667 0.0000
0.6667 0.7778 0.0000
0.6667 0.8889 0.0000
0.6667 1.0000 0.0000
0.8889 0.0000 0.0000
0.8889 0.1111 0.0000
0.8889 0.2222 0.0000
0.8889 0.3333 0.0000
0.8889 0.4444 0.0000
0.8889 0.5556 0.0000
0.8889 0.6667 0.0000
0.8889 0.7778 0.0000
0.8889 0.8889 0.0000
0.8889 1.0000 0.0000
1.1111 0.0000 0.0000
1.1111 0.1111 0.0000
1.1111 0.2222 0.0000
1.1111 0.3333 0.0000
1.1111 0.4444 0.0000
1.1111 0.5556 0.0000
1.1111 0.6667 0.0000
1.1111 0.7778 0.0000
1.1111 0.8889 0.0000
1.1111 1.0000 0.0000
1.3333 0.0000 0.0000
1.3333 0.1111 0.0000
1.3333 0.2222 0.0000
1.3333 0.3333 0.0000
1.3333 0.4444 0.0000
1.3333 0.5556 0.0000
1.3333 0.6667 0.0000
1.3333 0.7778 0.0000
1.3333 0.8889 0.0000
1.3333 1.0000 0.0000
1.5556 0.0000 0.0000
1.5556 0.1111 0.0000
1.5556 0.2222 0.0000
1.5556 0.3333 0.0000
1.5556 0.4444 0.0000
1.5556 0.5556 0.0000
1.5556 0.6667 0.0000
1.5556 0.7778 0.0000
1.5556 0.8889 0.0000
1.5556 1.0000 0.0000
1.7778 0.0000 0.0000
1.7778 0.1111 0.0000
1.7778 0.2222 0.0000
1.7778 0.3333 0.0000
1.7778 0.4444 0.0000
1.7778 0.5556 0.0000
1.7778 0.6667 0.0000
1.7778 0.7778 0.0000
1.7778 0.8889 0.0000
1.7778 1.0000 0.0000
2.0000 0.0000 0.0000
2.0000 0.1111 0.0000
2.0000 0.2222 0.0000
2.0000 0.3333 0.0000
2.0000 0.4444 0.0000
2.0000 0.5556 0.0000
2.0000 0.6667 0.0000
2.0000 0.7778 0.0000
2.0000 0.8889 0.0000
2.0000 1.0000 0.0000
0.1111 0.0556 0.0000
0.1111 0.1667 0.0000
0.1111 0.2778 0.0000
0.1111 0.3889 0.0000
0.1111 0.5000 0.0000
0.1111 0.6111 0.0000
0.1111 0.7222 0.0000
0.1111 0.8333 0.0000
0.1111 0.9444 0.0000
0.3333 0.0556 0.0000
0.3333 0.1667 0.0000
0.3333 0.2778 0.0000
0.3333 0.3889 0.0000
0.3333 0.5000 0.0000
0.3333 0.6111 0.0000
0.3333 0.7222 0.0000
0.3333 0.8333 0.0000
0.3333 0.9444 0.0000
0.5556 0.0556 0.0000
0.5556 0.1667 0.0000
0.5556 0.2778 0.0000
0.5556 0.3889 0.0000
0.5556 0.5000 0.0000
0.5556 0.6111 0.0000
0.5556 0.7222 0.0000
0.5556 0.8333 0.0000
0.5556 0.9444 0.0000
0.7778 0.0556 0.0000
0.7778 0.1667 0.0000
0.7778 0.2778 0.0000
0.7778 0.3889 0.0000
0.7778 0.5000 0.0000
0.7778 0.6111 0.0000
0.7778 0.7222 0.0000
0.7778 0.8333 0.0000
0.7778 0.9444 0.0000
1.0000 0.0556 0.0000
1.0000 0.1667 0.0000
1.0000 0.2778 0.0000
1.0000 0.3889 0.0000
1.0000 0.5000 0.0000
1.0000 0.6111 0.0000
1.0000 0.7222 0.0000
1.0000 0.8333 0.0000
1.0000 0.9444 0.0000
1.2222 0.0556 0.0000
1.2222 0.1667 0.0000
1.2222 0.2778 0.0000
1.2222 0.3889 0.0000
1.2222 0.5000 0.0000
1.2222 0.6111 0.0000
1.2222 0.7222 0.0000
1.2222 0.8333 0.0000
1.2222 0.9444 0.0000
1.4444 0.0556 0.0000
1.4444 0.1667 0.0000
1.4444 0.2778 0.0000
1.4444 0.3889 0.0000
1.4444 0.5000 0.0000
1.4444 0.6111 0.0000
1.4444 0.7222 0.0000
1.4444 0.8333 0.0000
1.4444 0.9444 0.0000
1.6667 0.0556 0.0000
1.6667 0.1667 0.0000
1.6667 0.2778 0.0000
1.6667 0.3889 0.0000
1.6667 0.5000 0.0000
1.6667 0.6111 0.0000
1.6667 0.7222 0.0000
1.6667 0.8333 0.0000
1.6667 0.9444 0.0000
1.8889 0.0556 0.0000
1.8889 0.1667 0.0000
1.8889 0.2778 0.0000
1.8889 0.3889 0.0000
1.8889 0.5000 0.0000
1.8889 0.6111 0.0000
1.8889 0.7222 0.0000
1.8889 0.8333 0.0000
1.8889 0.9444 0.0000
0.0000 0.0556 0.0000
0.0556 0.0278 0.0000
0.0556 0.0833 0.0000
0.0000 0.1667 0.0000
0.0556 0.1389 0.0000
0.0556 0.1944 0.0000
0.0000 0.2778 0.0000
0.0556 0.2500 0.0000
0.0556 0.3056 0.0000
0.0000 0.3889 0.0000
0.0556 0.3611 0.0000
0.0556 0.4167 0.0000
0.0000 0.5000 0.0000
0.0556 0.4722 0.0000
0.0556 0.5278 0.0000
0.0000 0.6111 0.0000
0.0556 0.5833 0.0000
0.0556 0.6389 0.0000
0.0000 0.7222 0.0000
0.0556 0.6944 0.0000
0.0556 0.7500 0.0000
0.0000 0.8333 0.0000
0.0556 0.8056 0.0000
0.0556 0.8611 0.0000
0.0000 0.9444 0.0000
0.0556 0.9167 0.0000
0.0556 0.9722 0.0000
0.2222 0.0556 0.0000
0.2778 0.0278 0.0000
0.2778 0.0833 0.0000
0.2222 0.1667 0.0000
0.2778 0.1389 0.0000
0.2778 0.1944 0.0000
0.2222 0.2778 0.0000
0.2778 0.2500 0.0000
0.2778 0.3056 0.0000
0.2222 0.3889 0.0000
0.2778 0.3611 0.0000
0.2778 0.4167 0.0000
0.2222 0.5000 0.0000
0.2778 0.4722 0.0000
0.2778 0.5278 0.0000
0.2222 0.6111 0.0000
0.2778 0.5833 0.0000
0.2778 0.6389 0.0000
0.2222 0.7222 0.0000
0.2778 0.6944 0.0000
0.2778 0.7500 0.0000
0.2222 0.8333 0.0000
0.2778 0.8056 0.0000
0.2778 0.8611 0.0000
0.2222 0.9444 0.0000
0.2778 0.9167 0.0000
0.2778 0.9722 0.0000
0.4444 0.0556 0.0000
0.5000 0.0278 0.0000
0.5000 0.0833 0.0000
0.4444 0.1667 0.0000
0.5000 0.1389 0.0000
0.5000 0.1944 0.0000
0.4444 0.2778 0.0000
0.5000 0.2500 0.0000
0.5000 0.3056 0.0000
0.4444 0.3889 0.0000
0.5000 0.3611 0.0000
0.5000 0.4167 0.0000
0.4444 0.5000 0.0000
0.5000 0.4722 0.0000
0.5000 0.5278 0.0000
0.4444 0.6111 0.0000
0.5000 0.5833 0.0000
0.5000 0.6389 0.0000
0.4444 0.7222 0.0000
0.5000 0.6944 0.0000
0.5000 0.7500 0.0000
0.4444 0.8333 0.0000
0.5000 0.8056 0.0000
0.5000 0.8611 0.0000
0.4444 0.9444 0.0000
0.5000 0.9167 0.0000
0.5000 0.9722 0.0000
0.6667 0.0556 0.0000
0.7222 0.0278 0.0000
0.7222 0.0833 0.0000
0.6667 0.1667 0.0000
0.7222 0.1389 0.0000
0.7222 0.1944 0.0000
0.6667 0.2778 0.0000
0.7222 0.2500 0.0000
0.7222 0.3056 0.0000
0.6667 0.3889 0.0000
0.7222 0.3611 0.0000
0.7222 0.4167 0.0000
0.6667 0.5000 0.0000
0.7222 0.4722 0.0000
0.7222 0.5278 0.0000
0.6667 0.6111 0.0000
0.7222 0.5833 0.0000
0.7222 0.6389 0.0000
0.6667 0.7222 0.0000
0.7222 0.6944 0.0000
0.7222 0.7500 0.0000
0.6667 0.8333 0.0000
0.7222 0.8056 0.0000
0.7222 0.8611 0.0000
0.6667 0.9444 0.0000
0.7222 0.9167 0.0000
0.7222 0.9722 0.0000
0.8889 0.0556 0.0000
0.9444 0.0278 0.0000
0.9444 0.0833 0.0000
0.8889 0.1667 0.0000
0.9444 0.1389 0.0000
0.9444 0.1944 0.0000
0.8889 0.2778 0.0000
0.9444 0.2500 0.0000
0.9444 0.3056 0.0000
0.8889 0.3889 0.0000
0.9444 0.3611 0.0000
0.9444 0.4167 0.0000
0.8889 0.5000 0.0000
0.9444 0.4722 0.0000
0.9444 0.5278 0.0000
0.8889 0.6111 0.0000
0.9444 0.5833 0.0000
0.9444 0.6389 0.0000
0.8889 0.7222 0.0000
0.9444 0.6944 0.0000
0.9444 0.7500 0.0000
0.8889 0.8333 0.0000
0.9444 0.8056 0.0000
0.9444 0.8611 0.0000
0.8889 0.9444 0.0000
0.9444 0.9167 0.0000
0.9444 0.9722 0.0000
1.1111 0.0556 0.0000
1.1667 0.0278 0.0000
1.1667 0.0833 0.0000
1.1111 0.1667 0.0000
1.1667 0.1389 0.0000
1.1667 0.1944 0.0000
1.1111 0.2778 0.0000
1.1667 0.2500 0.0000
1.1667 0.3056 0.0000
1.1111 0.3889 0.0000
1.1667 0.3611 0.0000
1.1667 0.4167 0.0000
1.1111 0.5000 0.0000
1.1667 0.4722 0.0000
1.1667 0.5278 0.0000
1.1111 0.6111 0.0000
1.1667 0.5833 0.0000
1.1667 0.6389 0.0000
1.1111 0.7222 0.0000
1.1667 0.6944 0.0000
1.1667 0.7500 0.0000
1.1111 0.8333 0.0000
1.1667 0.8056 0.0000
1.1667 0.8611 0.0000
1.1111 0.9444 0.0000
1.1667 0.9167 0.0000
1.1667 0.9722 0.0000
1.3333 0.0556 0.0000
1.3889 0.0278 0.0000
1.3889 0.0833 0.0000
1.3333 0.1667 0.0000
1.3889 0.1389 0.0000
1.3889 0.1944 0.0000
1.3333 0.2778 0.0000
1.3889 0.2500 0.0000
1.3889 0.3056 0.0000
1.3333 0.3889 0.0000
1.3889 0.3611 0.0000
1.3889 0.4167 0.0000
1.3333 0.5000 0.0000
1.3889 0.4722 0.0000
1.3889 0.5278 0.0000
1.3333 0.6111 0.0000
1.3889 0.5833 0.0000
1.3889 0.6389 0.0000
1.3333 0.7222 0.0000
1.3889 0.6944 0.0000
1.3889 0.7500 0.0000
1.3333 0.8333 0.0000
1.3889 0.8056 0.0000
1.3889 0.8611 0.0000
1.3333 0.9444 0.0000
1.3889 0.9167 0.0000
1.3889 0.9722 0.0000
1.5556 0.0556 0.0000
1.6111 0.0278 0.0000
1.6111 0.0833 0.0000
1.5556 0.1667 0.0000
1.6111 0.1389 0.0000
1.6111 0.1944 0.0000
1.5556 0.2778 0.0000
1.6111 0.2500 0.0000
1.6111 0.3056 0.0000
1.5556 0.3889 0.0000
1.6111 0.3611 0.0000
1.6111 0.4167 0.0000
1.5556 0.5000 0.0000
1.6111 0.4722 0.0000
1.6111 0.5278 0.0000
1.5556 0.6111 0.0000
1.6111 0.5833 0.0000
1.6111 0.6389 0.0000
1.5556 0.7222 0.0000
1.6111 0.6944 0.0000
1.6111 0.7500 0.0000
1.5556 0.8333 0.0000
1.6111 0.8056 0.0000
1.6111 0.8611 0.0000
1.5556 0.9444 0.0000
1.6111 0.9167 0.0000
1.6111 0.9722 0.0000
1.7778 0.0556 0.0000
1.8333 0.0278 0.0000
1.8333 0.0833 0.0000
1.7778 0.1667 0.0000
1.8333 0.1389 0.0000
1.8333 0.1944 0.0000
1.7778 0.2778 0.0000
1.8333 0.2500 0.0000
1.8333 0.3056 0.0000
1.7778 0.3889 0.0000
1.8333 0.3611 0.0000
1.8333 0.4167 0.0000
1.7778 0.5000 0.0000
1.8333 0.4722 0.0000
1.8333 0.5278 0.0000
1.7778 0.6111 0.0000
1.8333 0.5833 0.0000
1.8333 0.6389 0.0000
1.7778 0.7222 0.0000
1.8333 0.6944 0.0000
1.8333 0.7500 0.0000
1.7778 0.8333 0.0000
1.8333 0.8056 0.0000
1.8333 0.8611 0.0000
1.7778 0.9444 0.0000
1.8333 0.9167 0.0000
1.8333 0.9722 0.0000
0.1111 0.1111 0.0000
0.1667 0.0833 0.0000
0.1111 0.2222 0.0000
0.1667 0.1944 0.0000
0.1111 0.3333 0.0000
0.1667 0.3056 0.0000
0.1111 0.4444 0.0000
0.1667 0.4167 0.0000
0.1111 0.5556 0.0000
0.1667 0.5278 0.0000
0.1111 0.6667 0.0000
0.1667 0.6389 0.0000
0.1111 0.7778 0.0000
0.1667 0.7500 0.0000
0.1111 0.8889 0.0000
0.1667 0.8611 0.0000
0.1111 1.0000 0.0000
0.1667 0.9722 0.0000
0.3333 0.1111 0.0000
0.3889 0.0833 0.0000
0.3333 0.2222 0.0000
0.3889 0.1944 0.0000
0.3333 0.3333 0.0000
0.3889 0.3056 0.0000
0.3333 0.4444 0.0000
0.3889 0.4167 0.0000
0.3333 0.5556 0.0000
0.3889 0.5278 0.0000
0.3333 0.6667 0.0000
0.3889 0.6389 0.0000
0.3333 0.7778 0.0000
0.3889 0.7500 0.0000
0.3333 0.8889 0.0000
0.3889 0.8611 0.0000
0.3333 1.0000 0.0000
0.3889 0.9722 0.0000
0.5556 0.1111 0.0000
[...]
         <PointData>
            <DataArray Name="fValues" NumberOfComponents="3" format="ascii" type="Float64">
-1.19508e-18 -4.78034e-18        00000 
 1.35408e-18  1.03168e-18        00000 
 1.31142e-18 -7.50931e-19        00000 
-5.13723e-19  1.92646e-19        00000 
-8.20941e-20 -8.60225e-19        00000 
-3.21077e-19  1.92646e-19        00000 
 2.48645e-18 -5.88247e-19        00000 
-2.30966e-18 -8.98202e-19        00000 
 4.12769e-18        00000        00000 
 3.58525e-18 -1.19508e-18        00000 
-7.24937e-02 -5.29159e-02        00000 
-5.00379e-02 -3.99363e-02        00000 
-3.34236e-02 -3.05531e-02        00000 
-1.97456e-02 -2.47914e-02        00000 
-7.37634e-03 -2.19386e-02        00000 
 4.48021e-03 -2.16062e-02        00000 
 1.66601e-02 -2.37155e-02        00000 
 3.00751e-02 -2.85982e-02        00000 
 4.61656e-02 -3.70531e-02        00000 
 6.71933e-02 -4.90873e-02        00000 
-1.33462e-01 -1.12431e-01        00000 
-1.00016e-01 -1.00686e-01        00000 
-6.97599e-02 -9.14149e-02        00000 
-4.22539e-02 -8.49228e-02        00000 
-1.64327e-02 -8.12698e-02        00000 
 8.68158e-03 -8.03952e-02        00000 
 3.43381e-02 -8.25009e-02        00000 
 6.17062e-02 -8.74786e-02        00000 
 9.16163e-02 -9.54540e-02        00000 
 1.24897e-01 -1.06150e-01        00000 
-1.89478e-01 -1.95468e-01        00000 
-1.43958e-01 -1.85274e-01        00000 
-1.02060e-01 -1.77304e-01        00000 
-6.29851e-02 -1.71649e-01        00000 
-2.54736e-02 -1.68356e-01        00000 
 1.16456e-02 -1.67354e-01        00000 
 4.94368e-02 -1.68844e-01        00000 
 8.89688e-02 -1.72836e-01        00000 
 1.31053e-01 -1.79444e-01        00000 
 1.76632e-01 -1.88539e-01        00000 
-2.37952e-01 -3.01661e-01        00000 
-1.82220e-01 -2.92902e-01        00000 
-1.30276e-01 -2.86077e-01        00000 
-8.10513e-02 -2.81135e-01        00000 
-3.34951e-02 -2.78214e-01        00000 
 1.37481e-02 -2.77264e-01        00000 
 6.18084e-02 -2.78422e-01        00000 
 1.11766e-01 -2.81710e-01        00000 
 1.64371e-01 -2.87191e-01        00000 
 2.20771e-01 -2.94869e-01        00000 
-2.78572e-01 -4.27265e-01        00000 
-2.14196e-01 -4.20054e-01        00000 
-1.53628e-01 -4.14421e-01        00000 
-9.59604e-02 -4.10517e-01        00000 
-4.00367e-02 -4.08298e-01        00000 
 1.55416e-02 -4.07656e-01        00000 
 7.19413e-02 -4.08672e-01        00000 
 1.30303e-01 -4.11387e-01        00000 
 1.91614e-01 -4.15932e-01        00000 
 2.57141e-01 -4.22176e-01        00000 
-3.10524e-01 -5.67887e-01        00000 
-2.39335e-01 -5.62379e-01        00000 
-1.72007e-01 -5.58204e-01        00000 
-1.07650e-01 -5.55289e-01        00000 
-4.52881e-02 -5.53719e-01        00000 
 1.67682e-02 -5.53333e-01        00000 
 7.96333e-02 -5.54190e-01        00000 
 1.44538e-01 -5.56261e-01        00000 
 2.12398e-01 -5.59559e-01        00000 
 2.84328e-01 -5.64058e-01        00000 
-3.34096e-01 -7.20021e-01        00000 
-2.57669e-01 -7.16319e-01        00000 
-1.85116e-01 -7.13679e-01        00000 
-1.15903e-01 -7.12039e-01        00000 
-4.88428e-02 -7.11237e-01        00000 
 1.77016e-02 -7.11105e-01        00000 
 8.50860e-02 -7.11653e-01        00000 
 1.54492e-01 -7.12966e-01        00000 
 2.27127e-01 -7.15135e-01        00000 
 3.04192e-01 -7.18205e-01        00000 
-3.49651e-01 -8.81471e-01        00000 
-2.68666e-01 -8.79382e-01        00000 
-1.92297e-01 -8.78124e-01        00000 
-1.20341e-01 -8.77174e-01        00000 
-5.09696e-02 -8.76550e-01        00000 
 1.77634e-02 -8.76365e-01        00000 
 8.75329e-02 -8.76564e-01        00000 
 1.59742e-01 -8.77181e-01        00000 
 2.35828e-01 -8.78163e-01        00000 
 3.16716e-01 -8.79822e-01        00000 
-3.58747e-01 -1.05591e+00        00000 
-2.73480e-01 -1.05171e+00        00000 
-1.95666e-01 -1.04641e+00        00000 
-1.22817e-01 -1.04210e+00        00000 
-5.22952e-02 -1.03999e+00        00000 
 1.77003e-02 -1.04012e+00        00000 
 8.85424e-02 -1.04229e+00        00000 
 1.61934e-01 -1.04616e+00        00000 
 2.39611e-01 -1.05144e+00        00000 
 3.25725e-01 -1.05593e+00        00000 
-2.93605e-02 -2.22824e-02        00000 
-1.91414e-02 -1.29863e-02        00000 
-1.22278e-02 -8.29644e-03        00000 
-6.23390e-03 -5.95161e-03        00000 
-6.47277e-04 -5.18459e-03        00000 
 4.88806e-03 -5.72101e-03        00000 
 1.07696e-02 -7.77717e-03        00000 
 1.75318e-02 -1.22206e-02        00000 
 2.71854e-02 -2.09398e-02        00000 
-8.91615e-02 -7.37622e-02        00000 
-6.33219e-02 -6.24188e-02        00000 
-4.12052e-02 -5.41888e-02        00000 
-2.12841e-02 -4.91086e-02        00000 
-2.52286e-03 -4.70022e-02        00000 
 1.60815e-02 -4.77823e-02        00000 
 3.57054e-02 -5.15181e-02        00000 
 5.75624e-02 -5.84508e-02        00000 
 8.26667e-02 -6.85042e-02        00000 
-1.42077e-01 -1.45131e-01        00000 
-1.04173e-01 -1.35295e-01        00000 
-6.94343e-02 -1.27999e-01        00000 
-3.68797e-02 -1.23195e-01        00000 
-5.34801e-03 -1.20953e-01        00000 
 2.61056e-02 -1.21332e-01        00000 
 5.87555e-02 -1.24468e-01        00000 
 9.36792e-02 -1.30463e-01        00000 
 1.31439e-01 -1.39159e-01        00000 
-1.88732e-01 -2.41163e-01        00000 
-1.39908e-01 -2.32551e-01        00000 
-9.43420e-02 -2.26140e-01        00000 
-5.09383e-02 -2.21889e-01        00000 
-8.47342e-03 -2.19842e-01        00000 
 3.41092e-02 -2.19970e-01        00000 
 7.80209e-02 -2.22436e-01        00000 
 1.24290e-01 -2.27324e-01        00000 
 1.73536e-01 -2.34581e-01        00000 
-2.28670e-01 -3.58171e-01        00000 
-1.70388e-01 -3.50996e-01        00000 
-1.15509e-01 -3.45629e-01        00000 
-6.28576e-02 -3.42076e-01        00000 
-1.11727e-02 -3.40354e-01        00000 
 4.06971e-02 -3.40507e-01        00000 
 9.39803e-02 -3.42557e-01        00000 
 1.49731e-01 -3.46474e-01        00000 
 2.08846e-01 -3.52361e-01        00000 
-2.61082e-01 -4.92394e-01        00000 
-1.95118e-01 -4.86869e-01        00000 
-1.32557e-01 -4.82813e-01        00000 
-7.23571e-02 -4.80186e-01        00000 
-1.32933e-02 -4.78987e-01        00000 
 4.59612e-02 -4.79215e-01        00000 
 1.06670e-01 -4.80924e-01        00000 
 1.69964e-01 -4.84119e-01        00000 
 2.36721e-01 -4.88732e-01        00000 
-2.85820e-01 -6.40140e-01        00000 
-2.13867e-01 -6.36134e-01        00000 
-1.45501e-01 -6.33326e-01        00000 
-7.96253e-02 -6.31545e-01        00000 
-1.50839e-02 -6.30783e-01        00000 
 4.97587e-02 -6.31042e-01        00000 
 1.15937e-01 -6.32287e-01        00000 
 1.84763e-01 -6.34454e-01        00000 
 2.57246e-01 -6.37598e-01        00000 
-3.02956e-01 -7.98265e-01        00000 
-2.26282e-01 -7.95969e-01        00000 
-1.53650e-01 -7.94578e-01        00000 
-8.41177e-02 -7.93714e-01        00000 
-1.61272e-02 -7.93332e-01        00000 
 5.20731e-02 -7.93407e-01        00000 
 1.21850e-01 -7.93975e-01        00000 
 1.94532e-01 -7.95108e-01        00000 
 2.71122e-01 -7.97026e-01        00000 
-3.12515e-01 -9.64676e-01        00000 
-2.32025e-01 -9.63042e-01        00000 
-1.57378e-01 -9.61225e-01        00000 
-8.65192e-02 -9.59780e-01        00000 
-1.71589e-02 -9.59208e-01        00000 
 5.23970e-02 -9.59538e-01        00000 
 1.23740e-01 -9.60593e-01        00000 
 1.98527e-01 -9.62053e-01        00000 
 2.78934e-01 -9.63393e-01        00000 
-1.26537e-18  3.22008e-19        00000 
-1.59243e-02 -1.17198e-02        00000 
-1.22271e-02 -8.09382e-03        00000 
 3.68456e-18  1.34488e-18        00000 
-9.95226e-03 -5.74275e-03        00000 
-8.14403e-03 -4.13437e-03        00000 
 7.31836e-19 -2.43945e-19        00000 
-6.58422e-03 -2.99899e-03        00000 
-5.10784e-03 -2.16711e-03        00000 
-7.18154e-19 -3.44520e-19        00000 
-3.67045e-03 -1.62098e-03        00000 
-2.29841e-03 -1.27926e-03        00000 
 1.21973e-19 -6.70850e-19        00000 
-9.55569e-04 -1.10728e-03        00000 
 3.57245e-04 -1.09211e-03        00000 
-5.36381e-19 -2.06891e-19        00000 
 1.67238e-03 -1.20957e-03        00000 
 3.01310e-03 -1.52387e-03        00000 
 2.19551e-18 -2.43945e-19        00000 
 4.39745e-03 -2.02508e-03        00000 
 5.85963e-03 -2.81141e-03        00000 
 2.43945e-18 -1.70762e-18        00000 
 7.42901e-03 -3.88813e-03        00000 
 9.18946e-03 -5.42139e-03        00000 
-4.31759e-18  3.05751e-18        00000 
 1.13100e-02 -7.65073e-03        00000 
 1.47224e-02 -1.10575e-02        00000 
-6.06230e-02 -4.61630e-02        00000 
-8.15375e-02 -6.29141e-02        00000 
-6.89099e-02 -5.63359e-02        00000 
-4.12387e-02 -3.47342e-02        00000 
-5.75501e-02 -5.04899e-02        00000 
-4.74374e-02 -4.56137e-02        00000 
-2.63773e-02 -2.72770e-02        00000 
-3.81654e-02 -4.16122e-02        00000 
-2.95383e-02 -3.84448e-02        00000 
-1.35169e-02 -2.30482e-02        00000 
-2.13329e-02 -3.60592e-02        00000 
-1.34511e-02 -3.44437e-02        00000 
-1.45782e-03 -2.14852e-02        00000 
-5.71844e-03 -3.34868e-02        00000 
 1.80060e-03 -3.32608e-02        00000 
 1.04666e-02 -2.23675e-02        00000 
 9.42714e-03 -3.36632e-02        00000 
 1.71820e-02 -3.47813e-02        00000 
 2.31293e-02 -2.57679e-02        00000 
 2.52712e-02 -3.65446e-02        00000 
 3.37480e-02 -3.91512e-02        00000 
 3.76116e-02 -3.23284e-02        00000 
 4.28649e-02 -4.25697e-02        00000 
 5.27684e-02 -4.69350e-02        00000 
 5.61440e-02 -4.28140e-02        00000 
 6.37609e-02 -5.22379e-02        00000 
 7.56667e-02 -5.83066e-02        00000 
-1.16353e-01 -1.06328e-01        00000 
-1.38671e-01 -1.28224e-01        00000 
-1.20369e-01 -1.22275e-01        00000 
-8.45047e-02 -9.57262e-02        00000 
-1.02904e-01 -1.17100e-01        00000 
-8.62736e-02 -1.12607e-01        00000 
-5.57474e-02 -8.78424e-02        00000 
-7.03806e-02 -1.08807e-01        00000 
-5.51110e-02 -1.05695e-01        00000 
-2.92174e-02 -8.27668e-02        00000 
-4.03431e-02 -1.03239e-01        00000 
-2.58821e-02 -1.01408e-01        00000 
-3.85747e-03 -8.05016e-02        00000 
-1.16282e-02 -1.00240e-01        00000 
 2.48195e-03 -9.97857e-02        00000 
 2.13713e-02 -8.10935e-02        00000 
 1.66443e-02 -1.00041e-01        00000 
 3.10303e-02 -1.01012e-01        00000 
 4.77452e-02 -8.46358e-02        00000 
 4.58087e-02 -1.02644e-01        00000 
 6.10766e-02 -1.05010e-01        00000 
 7.62949e-02 -9.11159e-02        00000 
 7.69533e-02 -1.08146e-01        00000 
 9.35369e-02 -1.12027e-01        00000 
 1.07749e-01 -1.00510e-01        00000 
 1.10858e-01 -1.16688e-01        00000 
 1.28977e-01 -1.22105e-01        00000 
-1.66212e-01 -1.90083e-01        00000 
-1.89842e-01 -2.17731e-01        00000 
-1.65731e-01 -2.12655e-01        00000 
-1.22635e-01 -1.81017e-01        00000 
-1.42602e-01 -2.08118e-01        00000 
-1.20424e-01 -2.04259e-01        00000 
-8.22685e-02 -1.74186e-01        00000 
-9.89036e-02 -2.00907e-01        00000 
-7.80639e-02 -1.98189e-01        00000 
-4.41559e-02 -1.69732e-01        00000 
-5.76818e-02 -1.96029e-01        00000 
-3.76147e-02 -1.94421e-01        00000 
-6.92983e-03 -1.67582e-01        00000 
-1.76700e-02 -1.93321e-01        00000 
 2.21461e-03 -1.92856e-01        00000 
 3.03732e-02 -1.67801e-01        00000 
 2.21870e-02 -1.92946e-01        00000 
 4.23941e-02 -1.93656e-01        00000 
 6.88978e-02 -1.70528e-01        00000 
 6.30459e-02 -1.94881e-01        00000 
 8.41661e-02 -1.96770e-01        00000 
 1.09621e-01 -1.75811e-01        00000 
 1.05938e-01 -1.99291e-01        00000 
 1.28424e-01 -2.02522e-01        00000 
 1.53329e-01 -1.83702e-01        00000 
 1.51687e-01 -2.06437e-01        00000 
 1.75836e-01 -2.11019e-01        00000 
-2.09588e-01 -2.97064e-01        00000 
-2.34013e-01 -3.29406e-01        00000 
-2.04943e-01 -3.25035e-01        00000 
-1.55863e-01 -2.89272e-01        00000 
-1.76954e-01 -3.21236e-01        00000 
-1.49854e-01 -3.17951e-01        00000 
-1.05430e-01 -2.83390e-01        00000 
-1.23545e-01 -3.15143e-01        00000 
-9.78225e-02 -3.12799e-01        00000 
-5.72017e-02 -2.79478e-01        00000 
-7.26155e-02 -3.10967e-01        00000 
-4.76953e-02 -3.09540e-01        00000 
-9.91852e-03 -2.77534e-01        00000 
-2.29431e-02 -3.08607e-01        00000 
 1.78495e-03 -3.08158e-01        00000 
 3.75738e-02 -2.77611e-01        00000 
 2.66240e-02 -3.08226e-01        00000 
 5.17461e-02 -3.08797e-01        00000 
 8.64681e-02 -2.79821e-01        00000 
 7.73469e-02 -3.09818e-01        00000 
 1.03458e-01 -3.11342e-01        00000 
 1.37644e-01 -2.84192e-01        00000 
 1.30225e-01 -3.13412e-01        00000 
 1.57715e-01 -3.16037e-01        00000 
 1.92002e-01 -2.90788e-01        00000 
 1.86092e-01 -3.19278e-01        00000 
 2.15475e-01 -3.23098e-01        00000 
-2.45871e-01 -4.23506e-01        00000 
-2.70427e-01 -4.59401e-01        00000 
-2.37335e-01 -4.55895e-01        00000 
-1.83536e-01 -4.17045e-01        00000 
-2.05236e-01 -4.52844e-01        00000 
-1.74032e-01 -4.50205e-01        00000 
-1.24531e-01 -4.12277e-01        00000 
-1.43633e-01 -4.48001e-01        00000 
-1.13873e-01 -4.46207e-01        00000 
-6.78956e-02 -4.09244e-01        00000 
-8.46897e-02 -4.44825e-01        00000 
-5.58277e-02 -4.43772e-01        00000 
-1.22942e-02 -4.07810e-01        00000 
-2.71407e-02 -4.43113e-01        00000 
 1.52629e-03 -4.42838e-01        00000 
 4.35381e-02 -4.07972e-01        00000 
 3.02955e-02 -4.42965e-01        00000 
 5.93319e-02 -4.43489e-01        00000 
 1.00780e-01 -4.09808e-01        00000 
 8.88824e-02 -4.44364e-01        00000 
 1.18930e-01 -4.45639e-01        00000 
 1.60468e-01 -4.13424e-01        00000 
 1.49705e-01 -4.47329e-01        00000 
 1.81290e-01 -4.49492e-01        00000 
 2.23721e-01 -4.18890e-01        00000 
 2.13841e-01 -4.52120e-01        00000 
 2.47389e-01 -4.55102e-01        00000 
-2.74380e-01 -5.64968e-01        00000 
-2.98619e-01 -6.03662e-01        00000 
-2.62331e-01 -6.01041e-01        00000 
-2.05300e-01 -5.60148e-01        00000 
-2.27060e-01 -5.98805e-01        00000 
-1.92746e-01 -5.96919e-01        00000 
-1.39547e-01 -5.56587e-01        00000 
-1.59172e-01 -5.95300e-01        00000 
-1.26331e-01 -5.94008e-01        00000 
-7.63302e-02 -5.54383e-01        00000 
-9.40608e-02 -5.93024e-01        00000 
-6.22212e-02 -5.92296e-01        00000 
-1.43404e-02 -5.53394e-01        00000 
-3.05727e-02 -5.91827e-01        00000 
 1.09279e-03 -5.91666e-01        00000 
 4.80069e-02 -5.53617e-01        00000 
 3.29014e-02 -5.91814e-01        00000 
 6.49642e-02 -5.92227e-01        00000 
 1.11732e-01 -5.55074e-01        00000 
 9.74695e-02 -5.92894e-01        00000 
 1.30540e-01 -5.93841e-01        00000 
 1.77986e-01 -5.57784e-01        00000 
 1.64330e-01 -5.95007e-01        00000 
 1.98954e-01 -5.96514e-01        00000 
 2.47795e-01 -5.61646e-01        00000 
 2.34551e-01 -5.98318e-01        00000 
 2.71190e-01 -6.00497e-01        00000 
-2.95351e-01 -7.18040e-01        00000 
-3.18914e-01 -7.58851e-01        00000 
-2.80128e-01 -7.57165e-01        00000 
-2.20968e-01 -7.14876e-01        00000 
-2.42367e-01 -7.55774e-01        00000 
-2.05631e-01 -7.54697e-01        00000 
-1.50227e-01 -7.12760e-01        00000 
-1.69720e-01 -7.53792e-01        00000 
-1.34699e-01 -7.53168e-01        00000 
-8.22394e-02 -7.11551e-01        00000 
-1.00272e-01 -7.52634e-01        00000 
-6.64122e-02 -7.52301e-01        00000 
-1.56510e-02 -7.11102e-01        00000 
-3.27061e-02 -7.52053e-01        00000 
 8.83511e-04 -7.51979e-01        00000 
 5.11927e-02 -7.11277e-01        00000 
 3.46859e-02 -7.52066e-01        00000 
 6.87163e-02 -7.52313e-01        00000 
 1.19426e-01 -7.12219e-01        00000 
 1.03284e-01 -7.52653e-01        00000 
 1.38380e-01 -7.53185e-01        00000 
 1.90310e-01 -7.13917e-01        00000 
 1.74297e-01 -7.53880e-01        00000 
 2.11073e-01 -7.54851e-01        00000 
 2.65034e-01 -7.16567e-01        00000 
 2.48949e-01 -7.56033e-01        00000 
 2.87875e-01 -7.57404e-01        00000 
-3.08709e-01 -8.80294e-01        00000 
-3.31669e-01 -9.22603e-01        00000 
-2.90393e-01 -9.21731e-01        00000 
-2.29879e-01 -8.78678e-01        00000 
-2.50467e-01 -9.20954e-01        00000 
-2.12023e-01 -9.20283e-01        00000 
-1.55920e-01 -8.77599e-01        00000 
-1.74851e-01 -9.19616e-01        00000 
-1.38783e-01 -9.19060e-01        00000 
-8.55298e-02 -8.76778e-01        00000 
-1.03494e-01 -9.18500e-01        00000 
-6.86946e-02 -9.18154e-01        00000 
-1.67098e-02 -8.76355e-01        00000 
-3.41603e-02 -9.17867e-01        00000 
 2.75521e-04 -9.17820e-01        00000 
 5.23747e-02 -8.76405e-01        00000 
 3.49393e-02 -9.17893e-01        00000 
 6.99240e-02 -9.18084e-01        00000 
 1.23159e-01 -8.76821e-01        00000 
 1.05439e-01 -9.18350e-01        00000 
 1.41738e-01 -9.18746e-01        00000 
 1.97148e-01 -8.77631e-01        00000 
 1.78940e-01 -9.19202e-01        00000 
 2.17302e-01 -9.19776e-01        00000 
 2.75774e-01 -8.78827e-01        00000 
 2.57052e-01 -9.20329e-01        00000 
 2.98457e-01 -9.21177e-01        00000 
-2.34776e-02 -1.68047e-02        00000 
-4.07771e-02 -3.08070e-02        00000 
-1.54951e-02 -1.02780e-02        00000 
-2.70639e-02 -2.10667e-02        00000 
-9.15775e-03 -6.92552e-03        00000 
-1.66879e-02 -1.55197e-02        00000 
-3.40944e-03 -5.40398e-03        00000 
-7.53134e-03 -1.26825e-02        00000 
 2.08630e-03 -5.29196e-03        00000 
 1.09907e-03 -1.19755e-02        00000 
 7.76545e-03 -6.51790e-03        00000 
 9.85747e-03 -1.32427e-02        00000 
 1.39696e-02 -9.63800e-03        00000 
 1.93319e-02 -1.68314e-02        00000 
 2.16871e-02 -1.57957e-02        00000 
 3.05269e-02 -2.35990e-02        00000 
 3.70269e-02 -2.85575e-02        00000 
 4.71474e-02 -3.52775e-02        00000 
-7.57095e-02 -6.77547e-02        00000 
-9.53678e-02 -8.64362e-02        00000 
-5.18899e-02 -5.78863e-02        00000 
-6.74066e-02 -7.58979e-02        00000 
-3.10545e-02 -5.12635e-02        00000 
-4.25575e-02 -6.84811e-02        00000 
-1.17974e-02 -4.76850e-02        00000 
-1.96442e-02 -6.40338e-02        00000 
 6.68791e-03 -4.70341e-02        00000 
 2.29296e-03 -6.25472e-02        00000 
 2.56793e-02 -4.92622e-02        00000 
 2.44087e-02 -6.40145e-02        00000 
 4.62565e-02 -5.45853e-02        00000 
 4.79182e-02 -6.85321e-02        00000 
 6.96481e-02 -6.31379e-02        00000 
 7.38518e-02 -7.61168e-02        00000 
 9.64130e-02 -7.44719e-02        00000 
 1.02983e-01 -8.68459e-02        00000 
-1.22695e-01 -1.39926e-01        00000 
-1.43834e-01 -1.64421e-01        00000 
-8.64508e-02 -1.31340e-01        00000 
-1.03925e-01 -1.55401e-01        00000 
-5.29802e-02 -1.25319e-01        00000 
-6.69761e-02 -1.48917e-01        00000 
-2.10487e-02 -1.21765e-01        00000 
-3.19447e-02 -1.44878e-01        00000 
 1.02641e-02 -1.20813e-01        00000 
 2.37422e-03 -1.43285e-01        00000 
 4.22041e-02 -1.22556e-01        00000 
 3.70600e-02 -1.44222e-01        00000 
 7.58713e-02 -1.27121e-01        00000 
 7.31882e-02 -1.47899e-01        00000 
 1.12162e-01 -1.34478e-01        00000 
 1.11689e-01 -1.54237e-01        00000 
 1.51506e-01 -1.44512e-01        00000 
 1.53363e-01 -1.63419e-01        00000 
-1.63824e-01 -2.36586e-01        00000 
-1.86166e-01 -2.66363e-01        00000 
-1.16818e-01 -2.29082e-01        00000 
-1.35778e-01 -2.58500e-01        00000 
-7.24650e-02 -2.23738e-01        00000 
-8.83459e-02 -2.52793e-01        00000 
-2.96937e-02 -2.20577e-01        00000 
-4.28240e-02 -2.49189e-01        00000 
 1.26888e-02 -2.19603e-01        00000 
 2.02230e-03 -2.47708e-01        00000 
 5.58131e-02 -2.20876e-01        00000 
 4.73735e-02 -2.48377e-01        00000 
 1.00798e-01 -2.24568e-01        00000 
 9.43363e-02 -2.51362e-01        00000 
 1.48494e-01 -2.30653e-01        00000 
 1.43786e-01 -2.56639e-01        00000 
 1.99525e-01 -2.39025e-01        00000 
 1.96544e-01 -2.64357e-01        00000 
-1.99003e-01 -3.54350e-01        00000 