<?xml version="1.0" encoding="utf-8"?>
<VTKFile byte_order="LittleEndian" type="UnstructuredGrid" version="0.1">
   <UnstructuredGrid>
      <Piece NumberOfCells="1296" NumberOfPoints="685">
         <Points>
            <DataArray Name="Points" NumberOfComponents="3" format="ascii" type="Float32">
0.0000 0.0000 0.0000
0.0000 0.1111 0.0000
0.0000 0.2222 0.0000
0.0000 0.3333 0.0000
0.0000 0.4444 0.0000
0.0000 0.5556 0.0000
0.0000 0.6667 0.0000
0.0000 0.7778 0.0000
0.0000 0.8889 0.0000
0.0000 1.0000 0.0000
0.2222 0.0000 0.0000
0.2222 0.1111 0.0000
0.2222 0.2222 0.0000
0.2222 0.3333 0.0000
0.2222 0.4444 0.0000
0.2222 0.5556 0.0000
0.2222 0.6667 0.0000
0.2222 0.7778 0.0000
0.2222 0.8889 0.0000
0.2222 1.0000 0.0000
0.4444 0.0000 0.0000
0.4444 0.1111 0.0000
0.4444 0.2222 0.0000
0.4444 0.3333 0.0000
0.4444 0.4444 0.0000
0.4444 0.5556 0.0000
0.4444 0.6667 0.0000
0.4444 0.7778 0.0000
0.4444 0.8889 0.0000
0.4444 1.0000 0.0000
0.6667 0.0000 0.0000
0.6667 0.1111 0.0000
0.6667 0.2222 0.0000
0.6667 0.3333 0.0000
0.6667 0.4444 0.0000
0.6667 0.5556 0.0000
0.6667 0.6667 0.0000
0.6667 0.7778 0.0000
0.6667 0.8889 0.0000
0.6667 1.0000 0.0000
0.8889 0.0000 0.0000
0.8889 0.1111 0.0000
0.8889 0.2222 0.0000
0.8889 0.3333 0.0000
0.8889 0.4444 0.0000
0.8889 0.5556 0.0000
0.8889 0.6667 0.0000
0.8889 0.7778 0.0000
0.8889 0.8889 0.0000
0.8889 1.0000 0.0000
1.1111 0.0000 0.0000
1.1111 0.1111 0.0000
1.1111 0.2222 0.0000
1.1111 0.3333 0.0000
1.1111 0.4444 0.0000
1.1111 0.5556 0.0000
1.1111 0.6667 0.0000
1.1111 0.7778 0.0000
1.1111 0.8889 0.0000
1.1111 1.0000 0.0000
1.3333 0.0000 0.0000
1.3333 0.1111 0.0000
1.3333 0.2222 0.0000
1.3333 0.3333 0.0000
1.3333 0.4444 0.0000
1.3333 0.5556 0.0000
1.3333 0.6667 0.0000
1.3333 0.7778 0.0000
1.3333 0.8889 0.0000
1.3333 1.0000 0.0000
1.5556 0.0000 0.0000
1.5556 0.1111 0.0000
1.5556 0.2222 0.0000
1.5556 0.3333 0.0000
1.5556 0.4444 0.0000
1.5556 0.5556 0.0000
1.5556 0.6667 0.0000
1.5556 0.7778 0.0000
1.5556 0.8889 0.0000
1.5556 1.0000 0.0000
1.7778 0.0000 0.0000
1.7778 0.1111 0.0000
1.7778 0.2222 0.0000
1.7778 0.3333 0.0000
1.7778 0.4444 0.0000
1.7778 0.5556 0.0000
1.7778 0.6667 0.0000
1.7778 0.7778 0.0000
1.7778 0.8889 0.0000
1.7778 1.0000 0.0000
2.0000 0.0000 0.0000
2.0000 0.1111 0.0000
2.0000 0.2222 0.0000
2.0000 0.3333 0.0000
2.0000 0.4444 0.0000
2.0000 0.5556 0.0000
2.0000 0.6667 0.0000
2.0000 0.7778 0.0000
2.0000 0.8889 0.0000
2.0000 1.0000 0.0000
0.1111 0.0556 0.0000
0.1111 0.1667 0.0000
0.1111 0.2778 0.0000
0.1111 0.3889 0.0000
0.1111 0.5000 0.0000
0.1111 0.6111 0.0000
0.1111 0.7222 0.0000
0.1111 0.8333 0.0000
0.1111 0.9444 0.0000
0.3333 0.0556 0.0000
0.3333 0.1667 0.0000
0.3333 0.2778 0.0000
0.3333 0.3889 0.0000
0.3333 0.5000 0.0000
0.3333 0.6111 0.0000
0.3333 0.7222 0.0000
0.3333 0.8333 0.0000
0.3333 0.9444 0.0000
0.5556 0.0556 0.0000
0.5556 0.1667 0.0000
0.5556 0.2778 0.0000
0.5556 0.3889 0.0000
0.5556 0.5000 0.0000
0.5556 0.6111 0.0000
0.5556 0.7222 0.0000
0.5556 0.8333 0.0000
0.5556 0.9444 0.0000
0.7778 0.0556 0.0000
0.7778 0.1667 0.0000
0.7778 0.2778 0.0000
0.7778 0.3889 0.0000
0.7778 0.5000 0.0000
0.7778 0.6111 0.0000
0.7778 0.7222 0.0000
0.7778 0.8333 0.0000
0.7778 0.9444 0.0000
1.0000 0.0556 0.0000
1.0000 0.1667 0.0000
1.0000 0.2778 0.0000
1.0000 0.3889 0.0000
1.0000 0.5000 0.0000
1.0000 0.6111 0.0000
1.0000 0.7222 0.0000
1.0000 0.8333 0.0000
1.0000 0.9444 0.0000
1.2222 0.0556 0.0000
1.2222 0.1667 0.0000
1.2222 0.2778 0.0000
1.2222 0.3889 0.0000
1.2222 0.5000 0.0000
1.2222 0.6111 0.0000
1.2222 0.7222 0.0000
1.2222 0.8333 0.0000
1.2222 0.9444 0.0000
1.4444 0.0556 0.0000
1.4444 0.1667 0.0000
1.4444 0.2778 0.0000
1.4444 0.3889 0.0000
1.4444 0.5000 0.0000
1.4444 0.6111 0.0000
1.4444 0.7222 0.0000
1.4444 0.8333 0.0000
1.4444 0.9444 0.0000
1.6667 0.0556 0.0000
1.6667 0.1667 0.0000
1.6667 0.2778 0.0000
1.6667 0.3889 0.0000
1.6667 0.5000 0.0000
1.6667 0.6111 0.0000
1.6667 0.7222 0.0000
1.6667 0.8333 0.0000
1.6667 0.9444 0.0000
1.8889 0.0556 0.0000
1.8889 0.1667 0.0000
1.8889 0.2778 0.0000
1.8889 0.3889 0.0000
1.8889 0.5000 0.0000
1.8889 0.6111 0.0000
1.8889 0.7222 0.0000
1.8889 0.8333 0.0000
1.8889 0.9444 0.0000
0.0000 0.0556 0.0000
0.0556 0.0278 0.0000
0.0556 0.0833 0.0000
0.0000 0.1667 0.0000
0.0556 0.1389 0.0000
0.0556 0.1944 0.0000
0.0000 0.2778 0.0000
0.0556 0.2500 0.0000
0.0556 0.3056 0.0000
0.0000 0.3889 0.0000
0.0556 0.3611 0.0000
0.0556 0.4167 0.0000
0.0000 0.5000 0.0000
0.0556 0.4722 0.0000
0.0556 0.5278 0.0000
0.0000 0.6111 0.0000
0.0556 0.5833 0.0000
0.0556 0.6389 0.0000
0.0000 0.7222 0.0000
0.0556 0.6944 0.0000
0.0556 0.7500 0.0000
0.0000 0.8333 0.0000
0.0556 0.8056 0.0000
0.0556 0.8611 0.0000
0.0000 0.9444 0.0000
0.0556 0.9167 0.0000
0.0556 0.9722 0.0000
0.2222 0.0556 0.0000
0.2778 0.0278 0.0000
0.2778 0.0833 0.0000
0.2222 0.1667 0.0000
0.2778 0.1389 0.0000
0.2778 0.1944 0.0000
0.2222 0.2778 0.0000
0.2778 0.2500 0.0000
0.2778 0.3056 0.0000
0.2222 0.3889 0.0000
0.2778 0.3611 0.0000
0.2778 0.4167 0.0000
0.2222 0.5000 0.0000
0.2778 0.4722 0.0000
0.2778 0.5278 0.0000
0.2222 0.6111 0.0000
0.2778 0.5833 0.0000
0.2778 0.6389 0.0000
0.2222 0.7222 0.0000
0.2778 0.6944 0.0000
0.2778 0.7500 0.0000
0.2222 0.8333 0.0000
0.2778 0.8056 0.0000
0.2778 0.8611 0.0000
0.2222 0.9444 0.0000
0.2778 0.9167 0.0000
0.2778 0.9722 0.0000
0.4444 0.0556 0.0000
0.5000 0.0278 0.0000
0.5000 0.0833 0.0000
0.4444 0.1667 0.0000
0.5000 0.1389 0.0000
0.5000 0.1944 0.0000
0.4444 0.2778 0.0000
0.5000 0.2500 0.0000
0.5000 0.3056 0.0000
0.4444 0.3889 0.0000
0.5000 0.3611 0.0000
0.5000 0.4167 0.0000
0.4444 0.5000 0.0000
0.5000 0.4722 0.0000
0.5000 0.5278 0.0000
0.4444 0.6111 0.0000
0.5000 0.5833 0.0000
0.5000 0.6389 0.0000
0.4444 0.7222 0.0000
0.5000 0.6944 0.0000
0.5000 0.7500 0.0000
0.4444 0.8333 0.0000
0.5000 0.8056 0.0000
0.5000 0.8611 0.0000
0.4444 0.9444 0.0000
0.5000 0.9167 0.0000
0.5000 0.9722 0.0000
0.6667 0.0556 0.0000
0.7222 0.0278 0.0000
0.7222 0.0833 0.0000
0.6667 0.1667 0.0000
0.7222 0.1389 0.0000
0.7222 0.1944 0.0000
0.6667 0.2778 0.0000
0.7222 0.2500 0.0000
0.7222 0.3056 0.0000
0.6667 0.3889 0.0000
0.7222 0.3611 0.0000
0.7222 0.4167 0.0000
0.6667 0.5000 0.0000
0.7222 0.4722 0.0000
0.7222 0.5278 0.0000
0.6667 0.6111 0.0000
0.7222 0.5833 0.0000
0.7222 0.6389 0.0000
0.6667 0.7222 0.0000
0.7222 0.6944 0.0000
0.7222 0.7500 0.0000
0.6667 0.8333 0.0000
0.7222 0.8056 0.0000
0.7222 0.8611 0.0000
0.6667 0.9444 0.0000
0.7222 0.9167 0.0000
0.7222 0.9722 0.0000
0.8889 0.0556 0.0000
0.9444 0.0278 0.0000
0.9444 0.0833 0.0000
0.8889 0.1667 0.0000
0.9444 0.1389 0.0000
0.9444 0.1944 0.0000
0.8889 0.2778 0.0000
0.9444 0.2500 0.0000
0.9444 0.3056 0.0000
0.8889 0.3889 0.0000
0.9444 0.3611 0.0000
0.9444 0.4167 0.0000
0.8889 0.5000 0.0000
0.9444 0.4722 0.0000
0.9444 0.5278 0.0000
0.8889 0.6111 0.0000
0.9444 0.5833 0.0000
0.9444 0.6389 0.0000
0.8889 0.7222 0.0000
0.9444 0.6944 0.0000
0.9444 0.7500 0.0000
0.8889 0.8333 0.0000
0.9444 0.8056 0.0000
0.9444 0.8611 0.0000
0.8889 0.9444 0.0000
0.9444 0.9167 0.0000
0.9444 0.9722 0.0000
1.1111 0.0556 0.0000
1.1667 0.0278 0.0000
1.1667 0.0833 0.0000
1.1111 0.1667 0.0000
1.1667 0.1389 0.0000
1.1667 0.1944 0.0000
1.1111 0.2778 0.0000
1.1667 0.2500 0.0000
1.1667 0.3056 0.0000
1.1111 0.3889 0.0000
1.1667 0.3611 0.0000
1.1667 0.4167 0.0000
1.1111 0.5000 0.0000
1.1667 0.4722 0.0000
1.1667 0.5278 0.0000
1.1111 0.6111 0.0000
1.1667 0.5833 0.0000
1.1667 0.6389 0.0000
1.1111 0.7222 0.0000
1.1667 0.6944 0.0000
1.1667 0.7500 0.0000
1.1111 0.8333 0.0000
1.1667 0.8056 0.0000
1.1667 0.8611 0.0000
1.1111 0.9444 0.0000
1.1667 0.9167 0.0000
1.1667 0.9722 0.0000
1.3333 0.0556 0.0000
1.3889 0.0278 0.0000
1.3889 0.0833 0.0000
1.3333 0.1667 0.0000
1.3889 0.1389 0.0000
1.3889 0.1944 0.0000
1.3333 0.2778 0.0000
1.3889 0.2500 0.0000
1.3889 0.3056 0.0000
1.3333 0.3889 0.0000
1.3889 0.3611 0.0000
1.3889 0.4167 0.0000
1.3333 0.5000 0.0000
1.3889 0.4722 0.0000
1.3889 0.5278 0.0000
1.3333 0.6111 0.0000
1.3889 0.5833 0.0000
1.3889 0.6389 0.0000
1.3333 0.7222 0.0000
1.3889 0.6944 0.0000
1.3889 0.7500 0.0000
1.3333 0.8333 0.0000
1.3889 0.8056 0.0000
1.3889 0.8611 0.0000
1.3333 0.9444 0.0000
1.3889 0.9167 0.0000
1.3889 0.9722 0.0000
1.5556 0.0556 0.0000
1.6111 0.0278 0.0000
1.6111 0.0833 0.0000
1.5556 0.1667 0.0000
1.6111 0.1389 0.0000
1.6111 0.1944 0.0000
1.5556 0.2778 0.0000
1.6111 0.2500 0.0000
1.6111 0.3056 0.0000
1.5556 0.3889 0.0000
1.6111 0.3611 0.0000
1.6111 0.4167 0.0000
1.5556 0.5000 0.0000
1.6111 0.4722 0.0000
1.6111 0.5278 0.0000
1.5556 0.6111 0.0000
1.6111 0.5833 0.0000
1.6111 0.6389 0.0000
1.5556 0.7222 0.0000
1.6111 0.6944 0.0000
1.6111 0.7500 0.0000
1.5556 0.8333 0.0000
1.6111 0.8056 0.0000
1.6111 0.8611 0.0000
1.5556 0.9444 0.0000
1.6111 0.9167 0.0000
1.6111 0.9722 0.0000
1.7778 0.0556 0.0000
1.8333 0.0278 0.0000
1.8333 0.0833 0.0000
1.7778 0.1667 0.0000
1.8333 0.1389 0.0000
1.8333 0.1944 0.0000
1.7778 0.2778 0.0000
1.8333 0.2500 0.0000
1.8333 0.3056 0.0000
1.7778 0.3889 0.0000
1.8333 0.3611 0.0000
1.8333 0.4167 0.0000
1.7778 0.5000 0.0000
1.8333 0.4722 0.0000
1.8333 0.5278 0.0000
1.7778 0.6111 0.0000
1.8333 0.5833 0.0000
1.8333 0.6389 0.0000
1.7778 0.7222 0.0000
1.8333 0.6944 0.0000
1.8333 0.7500 0.0000
1.7778 0.8333 0.0000
1.8333 0.8056 0.0000
1.8333 0.8611 0.0000
1.7778 0.9444 0.0000
1.8333 0.9167 0.0000
1.8333 0.9722 0.0000
0.1111 0.1111 0.0000
0.1667 0.0833 0.0000
0.1111 0.2222 0.0000
0.1667 0.1944 0.0000
0.1111 0.3333 0.0000
0.1667 0.3056 0.0000
0.1111 0.4444 0.0000
0.1667 0.4167 0.0000
0.1111 0.5556 0.0000
0.1667 0.5278 0.0000
0.1111 0.6667 0.0000
0.1667 0.6389 0.0000
0.1111 0.7778 0.0000
0.1667 0.7500 0.0000
0.1111 0.8889 0.0000
0.1667 0.8611 0.0000
0.1111 1.0000 0.0000
0.1667 0.9722 0.0000
0.3333 0.1111 0.0000
0.3889 0.0833 0.0000
0.3333 0.2222 0.0000
0.3889 0.1944 0.0000
0.3333 0.3333 0.0000
0.3889 0.3056 0.0000
0.3333 0.4444 0.0000
0.3889 0.4167 0.0000
0.3333 0.5556 0.0000
0.3889 0.5278 0.0000
0.3333 0.6667 0.0000
0.3889 0.6389 0.0000
0.3333 0.7778 0.0000
0.3889 0.7500 0.0000
0.3333 0.8889 0.0000
0.3889 0.8611 0.0000
0.3333 1.0000 0.0000
0.3889 0.9722 0.0000
0.5556 0.1111 0.0000
[...]
         <PointData>
            <DataArray Name="fValues" NumberOfComponents="3" format="ascii" type="Float64">
-1.22377e-15 -4.89506e-15        00000 
 2.34397e-15 -5.28218e-16        00000 
 1.07813e-15  1.56008e-16        00000 
-3.94539e-16        00000        00000 
-4.73829e-16 -7.75146e-16        00000 
-1.31513e-16 -3.28783e-16        00000 
 1.41308e-16 -1.52654e-16        00000 
-6.56971e-17 -2.95637e-16        00000 
-2.11338e-15 -1.32086e-15        00000 
       00000 -2.44753e-15        00000 
-4.87791e+01 -3.70414e+01        00000 
-3.32020e+01 -2.84669e+01        00000 
-2.16402e+01 -2.24352e+01        00000 
-1.23323e+01 -1.89354e+01        00000 
-4.00590e+00 -1.73456e+01        00000 
 4.03911e+00 -1.73346e+01        00000 
 1.23717e+01 -1.89200e+01        00000 
 2.16828e+01 -2.24187e+01        00000 
 3.32325e+01 -2.84588e+01        00000 
 4.88056e+01 -3.70370e+01        00000 
-8.88273e+01 -7.87467e+01        00000 
-6.53847e+01 -7.12899e+01        00000 
-4.45967e+01 -6.54800e+01        00000 
-2.59051e+01 -6.15887e+01        00000 
-8.48805e+00 -5.96556e+01        00000 
 8.50000e+00 -5.96526e+01        00000 
 2.59131e+01 -6.15796e+01        00000 
 4.46160e+01 -6.54609e+01        00000 
 6.54204e+01 -7.12530e+01        00000 
 8.88727e+01 -7.87038e+01        00000 
-1.24258e+02 -1.36335e+02        00000 
-9.31475e+01 -1.29896e+02        00000 
-6.46176e+01 -1.24932e+02        00000 
-3.79961e+01 -1.21586e+02        00000 
-1.25364e+01 -1.19900e+02        00000 
 1.25175e+01 -1.19899e+02        00000 
 3.79624e+01 -1.21584e+02        00000 
 6.45796e+01 -1.24940e+02        00000 
 9.31185e+01 -1.29899e+02        00000 
 1.24235e+02 -1.36315e+02        00000 
-1.54528e+02 -2.08503e+02        00000 
-1.16703e+02 -2.03112e+02        00000 
-8.14940e+01 -1.98981e+02        00000 
-4.81567e+01 -1.96216e+02        00000 
-1.59519e+01 -1.94825e+02        00000 
 1.58735e+01 -1.94821e+02        00000 
 4.80799e+01 -1.96202e+02        00000 
 8.13998e+01 -1.98968e+02        00000 
 1.16581e+02 -2.03091e+02        00000 
 1.54362e+02 -2.08450e+02        00000 
-1.79346e+02 -2.92946e+02        00000 
-1.36022e+02 -2.88627e+02        00000 
-9.52968e+01 -2.85314e+02        00000 
-5.64491e+01 -2.83103e+02        00000 
-1.87356e+01 -2.81997e+02        00000 
 1.86006e+01 -2.81987e+02        00000 
 5.63053e+01 -2.83071e+02        00000 
 9.51357e+01 -2.85252e+02        00000 
 1.35824e+02 -2.88537e+02        00000 
 1.79128e+02 -2.92835e+02        00000 
-1.98718e+02 -3.87172e+02        00000 
-1.51090e+02 -3.83922e+02        00000 
-1.06040e+02 -3.81462e+02        00000 
-6.28758e+01 -3.79839e+02        00000 
-2.08884e+01 -3.79036e+02        00000 
 2.06921e+01 -3.79022e+02        00000 
 6.26602e+01 -3.79798e+02        00000 
 1.05796e+02 -3.81397e+02        00000 
 1.50840e+02 -3.83846e+02        00000 
 1.98483e+02 -3.87089e+02        00000 
-2.12788e+02 -4.88819e+02        00000 
-1.61888e+02 -4.86610e+02        00000 
-1.13564e+02 -4.85050e+02        00000 
-6.72901e+01 -4.84099e+02        00000 
-2.23606e+01 -4.83643e+02        00000 
 2.20997e+01 -4.83627e+02        00000 
 6.70281e+01 -4.84052e+02        00000 
 1.13298e+02 -4.84991e+02        00000 
 1.61624e+02 -4.86548e+02        00000 
 2.12509e+02 -4.88753e+02        00000 
-2.22148e+02 -5.95912e+02        00000 
-1.68354e+02 -5.94720e+02        00000 
-1.17601e+02 -5.94006e+02        00000 
-6.95302e+01 -5.93497e+02        00000 
-2.30995e+01 -5.93206e+02        00000 
 2.27870e+01 -5.93190e+02        00000 
 6.92288e+01 -5.93452e+02        00000 
 1.17315e+02 -5.93942e+02        00000 
 1.68073e+02 -5.94654e+02        00000 
 2.21870e+02 -5.95857e+02        00000 
-2.27950e+02 -7.12529e+02        00000 
-1.71046e+02 -7.09720e+02        00000 
-1.19456e+02 -7.06376e+02        00000 
-7.07178e+01 -7.03811e+02        00000 
-2.35196e+01 -7.02444e+02        00000 
 2.31806e+01 -7.02435e+02        00000 
 7.04013e+01 -7.03794e+02        00000 
 1.19170e+02 -7.06359e+02        00000 
 1.70781e+02 -7.09701e+02        00000 
 2.27660e+02 -7.12502e+02        00000 
-1.97408e+01 -1.57671e+01        00000 
-1.26001e+01 -9.60335e+00        00000 
-7.83080e+00 -6.61287e+00        00000 
-3.78384e+00 -5.17955e+00        00000 
 1.17381e-02 -4.75013e+00        00000 
 3.80391e+00 -5.17649e+00        00000 
 7.85750e+00 -6.60546e+00        00000 
 1.26194e+01 -9.59821e+00        00000 
 1.97582e+01 -1.57642e+01        00000 
-5.92554e+01 -5.17627e+01        00000 
-4.12905e+01 -4.46066e+01        00000 
-2.60804e+01 -3.95558e+01        00000 
-1.26314e+01 -3.66531e+01        00000 
 1.36811e-02 -3.57128e+01        00000 
 1.26617e+01 -3.66443e+01        00000 
 2.61205e+01 -3.95372e+01        00000 
 4.13325e+01 -4.45859e+01        00000 
 5.92913e+01 -5.17450e+01        00000 
-9.31155e+01 -1.01950e+02        00000 
-6.71162e+01 -9.57372e+01        00000 
-4.33998e+01 -9.12074e+01        00000 
-2.12872e+01 -8.84680e+01        00000 
-3.68597e-03 -8.75520e+01        00000 
 2.12839e+01 -8.84694e+01        00000 
 4.33856e+01 -9.12123e+01        00000 
 6.71134e+01 -9.57309e+01        00000 
 9.31385e+01 -1.01932e+02        00000 
-1.22389e+02 -1.67623e+02        00000 
-8.91644e+01 -1.62355e+02        00000 
-5.81878e+01 -1.58549e+02        00000 
-2.87208e+01 -1.56255e+02        00000 
-2.48893e-02 -1.55487e+02        00000 
 2.86734e+01 -1.56254e+02        00000 
 5.81331e+01 -1.58556e+02        00000 
 8.90964e+01 -1.62365e+02        00000 
 1.22305e+02 -1.67613e+02        00000 
-1.46883e+02 -2.46782e+02        00000 
-1.07550e+02 -2.42469e+02        00000 
-7.04640e+01 -2.39367e+02        00000 
-3.48829e+01 -2.37501e+02        00000 
-5.19981e-02 -2.36870e+02        00000 
 3.47842e+01 -2.37478e+02        00000 
 7.03592e+01 -2.39330e+02        00000 
 1.07417e+02 -2.42424e+02        00000 
 1.46701e+02 -2.46720e+02        00000 
-1.66525e+02 -3.37000e+02        00000 
-1.22297e+02 -3.33644e+02        00000 
-8.02896e+01 -3.31234e+02        00000 
-3.98000e+01 -3.29793e+02        00000 
-8.13171e-02 -3.29304e+02        00000 
 3.96278e+01 -3.29763e+02        00000 
 8.00920e+01 -3.31177e+02        00000 
 1.22077e+02 -3.33562e+02        00000 
 1.66295e+02 -3.36911e+02        00000 
-1.81344e+02 -4.35773e+02        00000 
-1.33340e+02 -4.33390e+02        00000 
-8.75845e+01 -4.31735e+02        00000 
-4.34245e+01 -4.30775e+02        00000 
-1.12680e-01 -4.30452e+02        00000 
 4.31908e+01 -4.30741e+02        00000 
 8.73315e+01 -4.31675e+02        00000 
 1.33076e+02 -4.33317e+02        00000 
 1.81088e+02 -4.35701e+02        00000 
-1.91503e+02 -5.40815e+02        00000 
-1.40534e+02 -5.39425e+02        00000 
-9.21080e+01 -5.38586e+02        00000 
-4.56159e+01 -5.38123e+02        00000 
-1.42126e-01 -5.37967e+02        00000 
 4.53300e+01 -5.38101e+02        00000 
 9.18311e+01 -5.38542e+02        00000 
 1.40260e+02 -5.39366e+02        00000 
 1.91221e+02 -5.40747e+02        00000 
-1.97138e+02 -6.51431e+02        00000 
-1.43713e+02 -6.50555e+02        00000 
-9.39904e+01 -6.49499e+02        00000 
-4.65388e+01 -6.48675e+02        00000 
-1.66778e-01 -6.48361e+02        00000 
 4.62130e+01 -6.48652e+02        00000 
 9.36920e+01 -6.49460e+02        00000 
 1.43438e+02 -6.50514e+02        00000 
 1.96866e+02 -6.51395e+02        00000 
 6.17455e-16  8.78763e-16        00000 
-1.07861e+01 -8.23636e+00        00000 
-8.18894e+00 -5.79510e+00        00000 
 7.01113e-17  7.23399e-16        00000 
-6.60487e+00 -4.26447e+00        00000 
-5.35288e+00 -3.22618e+00        00000 
-7.49401e-16  1.24900e-16        00000 
-4.25255e+00 -2.50120e+00        00000 
-3.23923e+00 -1.99452e+00        00000 
-4.20629e-16 -7.45110e-16        00000 
-2.28168e+00 -1.64868e+00        00000 
-1.35385e+00 -1.43228e+00        00000 
 1.87350e-16 -3.74700e-16        00000 
-4.43196e-01 -1.33099e+00        00000 
 4.57419e-01 -1.33067e+00        00000 
 2.26249e-16  4.62593e-16        00000 
 1.36666e+00 -1.43452e+00        00000 
 2.29216e+00 -1.64758e+00        00000 
 1.24900e-15 -6.24500e-16        00000 
 3.25402e+00 -1.99156e+00        00000 
 4.26606e+00 -2.50042e+00        00000 
       00000 -1.24900e-15        00000 
 5.36396e+00 -3.22650e+00        00000 
 6.61475e+00 -4.26269e+00        00000 
-1.70301e-15 -1.58620e-15        00000 
 8.19774e+00 -5.79336e+00        00000 
 1.07953e+01 -8.23494e+00        00000 
-4.05359e+01 -3.25743e+01        00000 
-5.45349e+01 -4.40593e+01        00000 
-4.57869e+01 -3.97633e+01        00000 
-2.70190e+01 -2.50912e+01        00000 
-3.78674e+01 -3.60073e+01        00000 
-3.08200e+01 -3.28907e+01        00000 
-1.68043e+01 -2.04127e+01        00000 
-2.44453e+01 -3.04008e+01        00000 
-1.85643e+01 -2.84982e+01        00000 
-8.09559e+00 -1.79283e+01        00000 
-1.30314e+01 -2.71247e+01        00000 
-7.72685e+00 -2.62334e+01        00000 
 1.72147e-02 -1.71483e+01        00000 
-2.55244e+00 -2.57929e+01        00000 
 2.58385e+00 -2.57883e+01        00000 
 8.13047e+00 -1.79154e+01        00000 
 7.76114e+00 -2.62230e+01        00000 
 1.30699e+01 -2.71104e+01        00000 
 1.68482e+01 -2.03971e+01        00000 
 1.86092e+01 -2.84814e+01        00000 
 2.44908e+01 -3.03825e+01        00000 
 2.70536e+01 -2.50771e+01        00000 
 3.08610e+01 -3.28717e+01        00000 
 3.79049e+01 -3.59950e+01        00000 
 4.05634e+01 -3.25669e+01        00000 
 4.58212e+01 -3.97522e+01        00000 
 5.45660e+01 -4.40496e+01        00000 
-7.67507e+01 -7.48436e+01        00000 
-9.15093e+01 -8.99917e+01        00000 
-7.88118e+01 -8.62172e+01        00000 
-5.46864e+01 -6.81569e+01        00000 
-6.67944e+01 -8.29326e+01        00000 
-5.53953e+01 -8.01094e+01        00000 
-3.50372e+01 -6.32868e+01        00000 
-4.45436e+01 -7.77474e+01        00000 
-3.41550e+01 -7.58562e+01        00000 
-1.70875e+01 -6.03779e+01        00000 
-2.41323e+01 -7.44389e+01        00000 
-1.43731e+01 -7.34934e+01        00000 
 4.20410e-03 -5.94124e+01        00000 
-4.77641e+00 -7.30204e+01        00000 
 4.77477e+00 -7.30190e+01        00000 
 1.70988e+01 -6.03734e+01        00000 
 1.43756e+01 -7.34913e+01        00000 
 2.41341e+01 -7.44358e+01        00000 
 3.50470e+01 -6.32762e+01        00000 
 3.41532e+01 -7.58559e+01        00000 
 4.45423e+01 -7.77428e+01        00000 
 5.47134e+01 -6.81275e+01        00000 
 5.54029e+01 -8.00943e+01        00000 
 6.68117e+01 -8.29083e+01        00000 
 7.67914e+01 -7.48000e+01        00000 
 7.88434e+01 -8.61860e+01        00000 
 9.15525e+01 -8.99568e+01        00000 
-1.08338e+02 -1.32952e+02        00000 
-1.23817e+02 -1.51647e+02        00000 
-1.07384e+02 -1.48409e+02        00000 
-7.86018e+01 -1.27216e+02        00000 
-9.16381e+01 -1.45606e+02        00000 
-7.64945e+01 -1.43210e+02        00000 
-5.11156e+01 -1.23054e+02        00000 
-6.18733e+01 -1.41212e+02        00000 
-4.76797e+01 -1.39611e+02        00000 
-2.51660e+01 -1.20532e+02        00000 
-3.38178e+01 -1.38405e+02        00000 
-2.01988e+01 -1.37601e+02        00000 
-1.26784e-02 -1.19688e+02        00000 
-6.72724e+00 -1.37196e+02        00000 
 6.69276e+00 -1.37197e+02        00000 
 2.51385e+01 -1.20532e+02        00000 
 2.01639e+01 -1.37602e+02        00000 
 3.37776e+01 -1.38408e+02        00000 
 5.10753e+01 -1.23058e+02        00000 
 4.76359e+01 -1.39615e+02        00000 
 6.18249e+01 -1.41222e+02        00000 
 7.85654e+01 -1.27224e+02        00000 
 7.64457e+01 -1.43221e+02        00000 
 9.15866e+01 -1.45614e+02        00000 
 1.08311e+02 -1.32945e+02        00000 
 1.07334e+02 -1.48408e+02        00000 
 1.23763e+02 -1.51634e+02        00000 
-1.35245e+02 -2.05674e+02        00000 
-1.51124e+02 -2.27357e+02        00000 
-1.31489e+02 -2.24669e+02        00000 
-9.88176e+01 -2.00878e+02        00000 
-1.12539e+02 -2.22350e+02        00000 
-9.42015e+01 -2.20373e+02        00000 
-6.46350e+01 -1.97426e+02        00000 
-7.63747e+01 -2.18731e+02        00000 
-5.89725e+01 -2.17418e+02        00000 
-3.19594e+01 -1.95348e+02        00000 
-4.19004e+01 -2.16433e+02        00000 
-2.50681e+01 -2.15774e+02        00000 
-3.97298e-02 -1.94650e+02        00000 
-8.36910e+00 -2.15440e+02        00000 
 8.27736e+00 -2.15437e+02        00000 
 3.18857e+01 -1.95338e+02        00000 
 2.49779e+01 -2.15760e+02        00000 
 4.18180e+01 -2.16412e+02        00000 
 6.45565e+01 -1.97414e+02        00000 
 5.88859e+01 -2.17394e+02        00000 
 7.62796e+01 -2.18704e+02        00000 
 9.87135e+01 -2.00863e+02        00000 
 9.40880e+01 -2.20347e+02        00000 
 1.12410e+02 -2.22319e+02        00000 
 1.35102e+02 -2.05634e+02        00000 
 1.31334e+02 -2.24627e+02        00000 
 1.50949e+02 -2.27299e+02        00000 
-1.57310e+02 -2.90675e+02        00000 
-1.73275e+02 -3.14732e+02        00000 
-1.51041e+02 -3.12611e+02        00000 
-1.15380e+02 -2.86835e+02        00000 
-1.29496e+02 -3.10777e+02        00000 
-1.08551e+02 -3.09213e+02        00000 
-7.56830e+01 -2.84070e+02        00000 
-8.81165e+01 -3.07914e+02        00000 
-6.81069e+01 -3.06879e+02        00000 
-3.74980e+01 -2.82413e+02        00000 
-4.84311e+01 -3.06105e+02        00000 
-2.89933e+01 -3.05589e+02        00000 
-6.81469e-02 -2.81856e+02        00000 
-9.69707e+00 -3.05326e+02        00000 
 9.54952e+00 -3.05320e+02        00000 
 3.73615e+01 -2.82392e+02        00000 
 2.88420e+01 -3.05568e+02        00000 
 4.82733e+01 -3.06072e+02        00000 
 7.55341e+01 -2.84024e+02        00000 
 6.79380e+01 -3.06835e+02        00000 
 8.79358e+01 -3.07855e+02        00000 
 1.15204e+02 -2.86758e+02        00000 
 1.08356e+02 -3.09139e+02        00000 
 1.29290e+02 -3.10689e+02        00000 
 1.57097e+02 -2.90575e+02        00000 
 1.50822e+02 -3.12514e+02        00000 
 1.73054e+02 -3.14635e+02        00000 
-1.74534e+02 -3.85460e+02        00000 
-1.90301e+02 -4.11274e+02        00000 
-1.66052e+02 -4.09711e+02        00000 
-1.28287e+02 -3.82586e+02        00000 
-1.42486e+02 -4.08372e+02        00000 
-1.19515e+02 -4.07241e+02        00000 
-8.42678e+01 -3.80547e+02        00000 
-9.70660e+01 -4.06314e+02        00000 
-7.50502e+01 -4.05581e+02        00000 
-4.17859e+01 -3.79341e+02        00000 
-5.33791e+01 -4.05038e+02        00000 
-3.19671e+01 -4.04679e+02        00000 
-9.91392e-02 -3.78932e+02        00000 
-1.07064e+01 -4.04496e+02        00000 
 1.04977e+01 -4.04489e+02        00000 
 4.15766e+01 -3.79310e+02        00000 
 3.17508e+01 -4.04653e+02        00000 
 5.31582e+01 -4.04999e+02        00000 
 8.40314e+01 -3.80492e+02        00000 
 7.48131e+01 -4.05528e+02        00000 
 9.68143e+01 -4.06253e+02        00000 
 1.28035e+02 -3.82513e+02        00000 
 1.19260e+02 -4.07173e+02        00000 
 1.42230e+02 -4.08298e+02        00000 
 1.74290e+02 -3.85383e+02        00000 
 1.65802e+02 -4.09637e+02        00000 
 1.90055e+02 -4.11202e+02        00000 
-1.86986e+02 -4.87642e+02        00000 
-2.02359e+02 -5.14661e+02        00000 
-1.76572e+02 -5.13630e+02        00000 
-1.37430e+02 -4.85746e+02        00000 
-1.51440e+02 -5.12787e+02        00000 
-1.26937e+02 -5.12123e+02        00000 
-9.02078e+01 -4.84504e+02        00000 
-1.03019e+02 -5.11608e+02        00000 
-7.95989e+01 -5.11217e+02        00000 
-4.47072e+01 -4.83813e+02        00000 
-5.65922e+01 -5.10934e+02        00000 
-3.38873e+01 -5.10748e+02        00000 
-1.29796e-01 -4.83582e+02        00000 
-1.13667e+01 -5.10656e+02        00000 
 1.10929e+01 -5.10648e+02        00000 
 4.44470e+01 -4.83783e+02        00000 
 3.36125e+01 -5.10731e+02        00000 
 5.63206e+01 -5.10904e+02        00000 
 8.99489e+01 -4.84449e+02        00000 
 7.93315e+01 -5.11175e+02        00000 
 1.02751e+02 -5.11558e+02        00000 
 1.37166e+02 -4.85687e+02        00000 
 1.26668e+02 -5.12069e+02        00000 
 1.51167e+02 -5.12729e+02        00000 
 1.86717e+02 -4.87577e+02        00000 
 1.76296e+02 -5.13565e+02        00000 
 2.02082e+02 -5.14594e+02        00000 
-1.94936e+02 -5.95220e+02        00000 
-2.10051e+02 -6.23365e+02        00000 
-1.82601e+02 -6.22852e+02        00000 
-1.42586e+02 -5.94331e+02        00000 
-1.56119e+02 -6.22459e+02        00000 
-1.30566e+02 -6.22093e+02        00000 
-9.32935e+01 -5.93728e+02        00000 
-1.05804e+02 -6.21740e+02        00000 
-8.16820e+01 -6.21419e+02        00000 
-4.61772e+01 -5.93319e+02        00000 
-5.80482e+01 -6.21148e+02        00000 
-3.47573e+01 -6.20951e+02        00000 
-1.55953e-01 -5.93159e+02        00000 
-1.16731e+01 -6.20844e+02        00000 
 1.13480e+01 -6.20837e+02        00000 
 4.58728e+01 -5.93287e+02        00000 
 3.44361e+01 -6.20929e+02        00000 
 5.77373e+01 -6.21112e+02        00000 
 9.30009e+01 -5.93670e+02        00000 
 8.13796e+01 -6.21373e+02        00000 
 1.05518e+02 -6.21687e+02        00000 
 1.42305e+02 -5.94263e+02        00000 
 1.30286e+02 -6.22037e+02        00000 
 1.55849e+02 -6.22402e+02        00000 
 1.94654e+02 -5.95162e+02        00000 
 1.82329e+02 -6.22801e+02        00000 
 2.09775e+02 -6.23320e+02        00000 
-1.56272e+01 -1.21065e+01        00000 
-2.72181e+01 -2.19254e+01        00000 
-1.00758e+01 -7.85072e+00        00000 
-1.76758e+01 -1.55671e+01        00000 
-5.75556e+00 -5.74874e+00        00000 
-1.05720e+01 -1.20987e+01        00000 
-1.87023e+00 -4.85545e+00        00000 
-4.39218e+00 -1.04448e+01        00000 
 1.89428e+00 -4.85444e+00        00000 
 1.47729e+00 -1.01317e+01        00000 
 5.78092e+00 -5.74259e+00        00000 
 7.44464e+00 -1.10770e+01        00000 
 1.01026e+01 -7.84522e+00        00000 
 1.39850e+01 -1.35459e+01        00000 
 1.56426e+01 -1.21025e+01        00000 
 2.19905e+01 -1.82791e+01        00000 
 2.72345e+01 -2.12247e+01        00000 
 3.42757e+01 -2.66308e+01        00000 
-4.98982e+01 -4.79530e+01        00000 
-6.28753e+01 -6.09933e+01        00000 
-3.33991e+01 -4.18018e+01        00000 
-4.35224e+01 -5.44451e+01        00000 
-1.92013e+01 -3.78457e+01        00000 
-2.65611e+01 -4.99547e+01        00000 
-6.26099e+00 -3.59457e+01        00000 
-1.11142e+01 -4.75159e+01        00000 
 6.28937e+00 -3.59417e+01        00000 
 3.70159e+00 -4.70317e+01        00000 
 1.92360e+01 -3.78338e+01        00000 
 1.87275e+01 -4.84767e+01        00000 
 3.34404e+01 -4.17801e+01        00000 
 3.48225e+01 -5.19160e+01        00000 
 4.99376e+01 -4.79344e+01        00000 
 5.28992e+01 -5.74384e+01        00000 
 6.93666e+01 -5.59134e+01        00000 
 7.36332e+01 -6.49924e+01        00000 
-7.97941e+01 -9.86435e+01        00000 
-9.36518e+01 -1.15420e+02        00000 
-5.50107e+01 -9.32538e+01        00000 
-6.63803e+01 -1.09769e+02        00000 
-3.21906e+01 -8.96088e+01        00000 
-4.12031e+01 -1.05838e+02        00000 
-1.05943e+01 -8.77823e+01        00000 
-1.74065e+01 -1.03641e+02        00000 
 1.05892e+01 -8.77822e+01        00000 
 5.77898e+00 -1.03198e+02        00000 
 3.21800e+01 -8.96145e+01        00000 
 2.91628e+01 -1.04520e+02        00000 
 5.50001e+01 -9.32542e+01        00000 
 5.35442e+01 -1.07593e+02        00000 
 7.98032e+01 -9.86312e+01        00000 
 7.96992e+01 -1.12377e+02        00000 
 1.07194e+02 -1.05571e+02        00000 
 1.08272e+02 -1.18911e+02        00000 
-1.05452e+02 -1.64814e+02        00000 
-1.19999e+02 -1.84932e+02        00000 
-7.34388e+01 -1.60265e+02        00000 
-8.57710e+01 -1.80180e+02        00000 
-4.33110e+01 -1.57212e+02        00000 
-5.35998e+01 -1.76904e+02        00000 
-1.43233e+01 -1.55682e+02        00000 
-2.27512e+01 -1.75082e+02        00000 
 1.42775e+01 -1.55680e+02        00000 
 7.52635e+00 -1.74713e+02        00000 
 4.32594e+01 -1.57215e+02        00000 
 3.79937e+01 -1.75807e+02        00000 
 7.33774e+01 -1.60277e+02        00000 
 6.94010e+01 -1.78360e+02        00000 
 1.05375e+02 -1.64816e+02        00000 
 1.02489e+02 -1.82364e+02        00000 
 1.39978e+02 -1.70711e+02        00000 
 1.37992e+02 -1.87864e+02        00000 
-1.26894e+02 -2.44482e+02        00000 