<?xml version="1.0" encoding="utf-8"?>
<VTKFile byte_order="LittleEndian" type="UnstructuredGrid" version="0.1">
   <UnstructuredGrid>
      <Piece NumberOfCells="1296" NumberOfPoints="685">
         <Points>
            <DataArray Name="Points" NumberOfComponents="3" format="ascii" type="Float32">
0.0000 0.0000 0.0000
0.0000 0.1111 0.0000
0.0000 0.2222 0.0000
0.0000 0.3333 0.0000
0.0000 0.4444 0.0000
0.0000 0.5556 0.0000
0.0000 0.6667 0.0000
0.0000 0.7778 0.0000
0.0000 0.8889 0.0000
0.0000 1.0000 0.0000
0.2222 0.0000 0.0000
0.2222 0.1111 0.0000
0.2222 0.2222 0.0000
0.2222 0.3333 0.0000
0.2222 0.4444 0.0000
0.2222 0.5556 0.0000
0.2222 0.6667 0.0000
0.2222 0.7778 0.0000
0.2222 0.8889 0.0000
0.2222 1.0000 0.0000
0.4444 0.0000 0.0000
0.4444 0.1111 0.0000
0.4444 0.2222 0.0000
0.4444 0.3333 0.0000
0.4444 0.4444 0.0000
0.4444 0.5556 0.0000
0.4444 0.6667 0.0000
0.4444 0.7778 0.0000
0.4444 0.8889 0.0000
0.4444 1.0000 0.0000
0.6667 0.0000 0.0000
0.6667 0.1111 0.0000
0.6667 0.2222 0.0000
0.6667 0.3333 0.0000
0.6667 0.4444 0.0000
0.6667 0.5556 0.0000
0.6667 0.6667 0.0000
0.6667 0.7778 0.0000
0.6667 0.8889 0.0000
0.6667 1.0000 0.0000
0.8889 0.0000 0.0000
0.8889 0.1111 0.0000
0.8889 0.2222 0.0000
0.8889 0.3333 0.0000
0.8889 0.4444 0.0000
0.8889 0.5556 0.0000
0.8889 0.6667 0.0000
0.8889 0.7778 0.0000
0.8889 0.8889 0.0000
0.8889 1.0000 0.0000
1.1111 0.0000 0.0000
1.1111 0.1111 0.0000
1.1111 0.2222 0.0000
1.1111 0.3333 0.0000
1.1111 0.4444 0.0000
1.1111 0.5556 0.0000
1.1111 0.6667 0.0000
1.1111 0.7778 0.0000
1.1111 0.8889 0.0000
1.1111 1.0000 0.0000
1.3333 0.0000 0.0000
1.3333 0.1111 0.0000
1.3333 0.2222 0.0000
1.3333 0.3333 0.0000
1.3333 0.4444 0.0000
1.3333 0.5556 0.0000
1.3333 0.6667 0.0000
1.3333 0.7778 0.0000
1.3333 0.8889 0.0000
1.3333 1.0000 0.0000
1.5556 0.0000 0.0000
1.5556 0.1111 0.0000
1.5556 0.2222 0.0000
1.5556 0.3333 0.0000
1.5556 0.4444 0.0000
1.5556 0.5556 0.0000
1.5556 0.6667 0.0000
1.5556 0.7778 0.0000
1.5556 0.8889 0.0000
1.5556 1.0000 0.0000
1.7778 0.0000 0.0000
1.7778 0.1111 0.0000
1.7778 0.2222 0.0000
1.7778 0.3333 0.0000
1.7778 0.4444 0.0000
1.7778 0.5556 0.0000
1.7778 0.6667 0.0000
1.7778 0.7778 0.0000
1.7778 0.8889 0.0000
1.7778 1.0000 0.0000
2.0000 0.0000 0.0000
2.0000 0.1111 0.0000
2.0000 0.2222 0.0000
2.0000 0.3333 0.0000
2.0000 0.4444 0.0000
2.0000 0.5556 0.0000
2.0000 0.6667 0.0000
2.0000 0.7778 0.0000
2.0000 0.8889 0.0000
2.0000 1.0000 0.0000
0.1111 0.0556 0.0000
0.1111 0.1667 0.0000
0.1111 0.2778 0.0000
0.1111 0.3889 0.0000
0.1111 0.5000 0.0000
0.1111 0.6111 0.0000
0.1111 0.7222 0.0000
0.1111 0.8333 0.0000
0.1111 0.9444 0.0000
0.3333 0.0556 0.0000
0.3333 0.1667 0.0000
0.3333 0.2778 0.0000
0.3333 0.3889 0.0000
0.3333 0.5000 0.0000
0.3333 0.6111 0.0000
0.3333 0.7222 0.0000
0.3333 0.8333 0.0000
0.3333 0.9444 0.0000
0.5556 0.0556 0.0000
0.5556 0.1667 0.0000
0.5556 0.2778 0.0000
0.5556 0.3889 0.0000
0.5556 0.5000 0.0000
0.5556 0.6111 0.0000
0.5556 0.7222 0.0000
0.5556 0.8333 0.0000
0.5556 0.9444 0.0000
0.7778 0.0556 0.0000
0.7778 0.1667 0.0000
0.7778 0.2778 0.0000
0.7778 0.3889 0.0000
0.7778 0.5000 0.0000
0.7778 0.6111 0.0000
0.7778 0.7222 0.0000
0.7778 0.8333 0.0000
0.7778 0.9444 0.0000
1.0000 0.0556 0.0000
1.0000 0.1667 0.0000
1.0000 0.2778 0.0000
1.0000 0.3889 0.0000
1.0000 0.5000 0.0000
1.0000 0.6111 0.0000
1.0000 0.7222 0.0000
1.0000 0.8333 0.0000
1.0000 0.9444 0.0000
1.2222 0.0556 0.0000
1.2222 0.1667 0.0000
1.2222 0.2778 0.0000
1.2222 0.3889 0.0000
1.2222 0.5000 0.0000
1.2222 0.6111 0.0000
1.2222 0.7222 0.0000
1.2222 0.8333 0.0000
1.2222 0.9444 0.0000
1.4444 0.0556 0.0000
1.4444 0.1667 0.0000
1.4444 0.2778 0.0000
1.4444 0.3889 0.0000
1.4444 0.5000 0.0000
1.4444 0.6111 0.0000
1.4444 0.7222 0.0000
1.4444 0.8333 0.0000
1.4444 0.9444 0.0000
1.6667 0.0556 0.0000
1.6667 0.1667 0.0000
1.6667 0.2778 0.0000
1.6667 0.3889 0.0000
1.6667 0.5000 0.0000
1.6667 0.6111 0.0000
1.6667 0.7222 0.0000
1.6667 0.8333 0.0000
1.6667 0.9444 0.0000
1.8889 0.0556 0.0000
1.8889 0.1667 0.0000
1.8889 0.2778 0.0000
1.8889 0.3889 0.0000
1.8889 0.5000 0.0000
1.8889 0.6111 0.0000
1.8889 0.7222 0.0000
1.8889 0.8333 0.0000
1.8889 0.9444 0.0000
0.0000 0.0556 0.0000
0.0556 0.0278 0.0000
0.0556 0.0833 0.0000
0.0000 0.1667 0.0000
0.0556 0.1389 0.0000
0.0556 0.1944 0.0000
0.0000 0.2778 0.0000
0.0556 0.2500 0.0000
0.0556 0.3056 0.0000
0.0000 0.3889 0.0000
0.0556 0.3611 0.0000
0.0556 0.4167 0.0000
0.0000 0.5000 0.0000
0.0556 0.4722 0.0000
0.0556 0.5278 0.0000
0.0000 0.6111 0.0000
0.0556 0.5833 0.0000
0.0556 0.6389 0.0000
0.0000 0.7222 0.0000
0.0556 0.6944 0.0000
0.0556 0.7500 0.0000
0.0000 0.8333 0.0000
0.0556 0.8056 0.0000
0.0556 0.8611 0.0000
0.0000 0.9444 0.0000
0.0556 0.9167 0.0000
0.0556 0.9722 0.0000
0.2222 0.0556 0.0000
0.2778 0.0278 0.0000
0.2778 0.0833 0.0000
0.2222 0.1667 0.0000
0.2778 0.1389 0.0000
0.2778 0.1944 0.0000
0.2222 0.2778 0.0000
0.2778 0.2500 0.0000
0.2778 0.3056 0.0000
0.2222 0.3889 0.0000
0.2778 0.3611 0.0000
0.2778 0.4167 0.0000
0.2222 0.5000 0.0000
0.2778 0.4722 0.0000
0.2778 0.5278 0.0000
0.2222 0.6111 0.0000
0.2778 0.5833 0.0000
0.2778 0.6389 0.0000
0.2222 0.7222 0.0000
0.2778 0.6944 0.0000
0.2778 0.7500 0.0000
0.2222 0.8333 0.0000
0.2778 0.8056 0.0000
0.2778 0.8611 0.0000
0.2222 0.9444 0.0000
0.2778 0.9167 0.0000
0.2778 0.9722 0.0000
0.4444 0.0556 0.0000
0.5000 0.0278 0.0000
0.5000 0.0833 0.0000
0.4444 0.1667 0.0000
0.5000 0.1389 0.0000
0.5000 0.1944 0.0000
0.4444 0.2778 0.0000
0.5000 0.2500 0.0000
0.5000 0.3056 0.0000
0.4444 0.3889 0.0000
0.5000 0.3611 0.0000
0.5000 0.4167 0.0000
0.4444 0.5000 0.0000
0.5000 0.4722 0.0000
0.5000 0.5278 0.0000
0.4444 0.6111 0.0000
0.5000 0.5833 0.0000
0.5000 0.6389 0.0000
0.4444 0.7222 0.0000
0.5000 0.6944 0.0000
0.5000 0.7500 0.0000
0.4444 0.8333 0.0000
0.5000 0.8056 0.0000
0.5000 0.8611 0.0000
0.4444 0.9444 0.0000
0.5000 0.9167 0.0000
0.5000 0.9722 0.0000
0.6667 0.0556 0.0000
0.7222 0.0278 0.0000
0.7222 0.0833 0.0000
0.6667 0.1667 0.0000
0.7222 0.1389 0.0000
0.7222 0.1944 0.0000
0.6667 0.2778 0.0000
0.7222 0.2500 0.0000
0.7222 0.3056 0.0000
0.6667 0.3889 0.0000
0.7222 0.3611 0.0000
0.7222 0.4167 0.0000
0.6667 0.5000 0.0000
0.7222 0.4722 0.0000
0.7222 0.5278 0.0000
0.6667 0.6111 0.0000
0.7222 0.5833 0.0000
0.7222 0.6389 0.0000
0.6667 0.7222 0.0000
0.7222 0.6944 0.0000
0.7222 0.7500 0.0000
0.6667 0.8333 0.0000
0.7222 0.8056 0.0000
0.7222 0.8611 0.0000
0.6667 0.9444 0.0000
0.7222 0.9167 0.0000
0.7222 0.9722 0.0000
0.8889 0.0556 0.0000
0.9444 0.0278 0.0000
0.9444 0.0833 0.0000
0.8889 0.1667 0.0000
0.9444 0.1389 0.0000
0.9444 0.1944 0.0000
0.8889 0.2778 0.0000
0.9444 0.2500 0.0000
0.9444 0.3056 0.0000
0.8889 0.3889 0.0000
0.9444 0.3611 0.0000
0.9444 0.4167 0.0000
0.8889 0.5000 0.0000
0.9444 0.4722 0.0000
0.9444 0.5278 0.0000
0.8889 0.6111 0.0000
0.9444 0.5833 0.0000
0.9444 0.6389 0.0000
0.8889 0.7222 0.0000
0.9444 0.6944 0.0000
0.9444 0.7500 0.0000
0.8889 0.8333 0.0000
0.9444 0.8056 0.0000
0.9444 0.8611 0.0000
0.8889 0.9444 0.0000
0.9444 0.9167 0.0000
0.9444 0.9722 0.0000
1.1111 0.0556 0.0000
1.1667 0.0278 0.0000
1.1667 0.0833 0.0000
1.1111 0.1667 0.0000
1.1667 0.1389 0.0000
1.1667 0.1944 0.0000
1.1111 0.2778 0.0000
1.1667 0.2500 0.0000
1.1667 0.3056 0.0000
1.1111 0.3889 0.0000
1.1667 0.3611 0.0000
1.1667 0.4167 0.0000
1.1111 0.5000 0.0000
1.1667 0.4722 0.0000
1.1667 0.5278 0.0000
1.1111 0.6111 0.0000
1.1667 0.5833 0.0000
1.1667 0.6389 0.0000
1.1111 0.7222 0.0000
1.1667 0.6944 0.0000
1.1667 0.7500 0.0000
1.1111 0.8333 0.0000
1.1667 0.8056 0.0000
1.1667 0.8611 0.0000
1.1111 0.9444 0.0000
1.1667 0.9167 0.0000
1.1667 0.9722 0.0000
1.3333 0.0556 0.0000
1.3889 0.0278 0.0000
1.3889 0.0833 0.0000
1.3333 0.1667 0.0000
1.3889 0.1389 0.0000
1.3889 0.1944 0.0000
1.3333 0.2778 0.0000
1.3889 0.2500 0.0000
1.3889 0.3056 0.0000
1.3333 0.3889 0.0000
1.3889 0.3611 0.0000
1.3889 0.4167 0.0000
1.3333 0.5000 0.0000
1.3889 0.4722 0.0000
1.3889 0.5278 0.0000
1.3333 0.6111 0.0000
1.3889 0.5833 0.0000
1.3889 0.6389 0.0000
1.3333 0.7222 0.0000
1.3889 0.6944 0.0000
1.3889 0.7500 0.0000
1.3333 0.8333 0.0000
1.3889 0.8056 0.0000
1.3889 0.8611 0.0000
1.3333 0.9444 0.0000
1.3889 0.9167 0.0000
1.3889 0.9722 0.0000
1.5556 0.0556 0.0000
1.6111 0.0278 0.0000
1.6111 0.0833 0.0000
1.5556 0.1667 0.0000
1.6111 0.1389 0.0000
1.6111 0.1944 0.0000
1.5556 0.2778 0.0000
1.6111 0.2500 0.0000
1.6111 0.3056 0.0000
1.5556 0.3889 0.0000
1.6111 0.3611 0.0000
1.6111 0.4167 0.0000
1.5556 0.5000 0.0000
1.6111 0.4722 0.0000
1.6111 0.5278 0.0000
1.5556 0.6111 0.0000
1.6111 0.5833 0.0000
1.6111 0.6389 0.0000
1.5556 0.7222 0.0000
1.6111 0.6944 0.0000
1.6111 0.7500 0.0000
1.5556 0.8333 0.0000
1.6111 0.8056 0.0000
1.6111 0.8611 0.0000
1.5556 0.9444 0.0000
1.6111 0.9167 0.0000
1.6111 0.9722 0.0000
1.7778 0.0556 0.0000
1.8333 0.0278 0.0000
1.8333 0.0833 0.0000
1.7778 0.1667 0.0000
1.8333 0.1389 0.0000
1.8333 0.1944 0.0000
1.7778 0.2778 0.0000
1.8333 0.2500 0.0000
1.8333 0.3056 0.0000
1.7778 0.3889 0.0000
1.8333 0.3611 0.0000
1.8333 0.4167 0.0000
1.7778 0.5000 0.0000
1.8333 0.4722 0.0000
1.8333 0.5278 0.0000
1.7778 0.6111 0.0000
1.8333 0.5833 0.0000
1.8333 0.6389 0.0000
1.7778 0.7222 0.0000
1.8333 0.6944 0.0000
1.8333 0.7500 0.0000
1.7778 0.8333 0.0000
1.8333 0.8056 0.0000
1.8333 0.8611 0.0000
1.7778 0.9444 0.0000
1.8333 0.9167 0.0000
1.8333 0.9722 0.0000
0.1111 0.1111 0.0000
0.1667 0.0833 0.0000
0.1111 0.2222 0.0000
0.1667 0.1944 0.0000
0.1111 0.3333 0.0000
0.1667 0.3056 0.0000
0.1111 0.4444 0.0000
0.1667 0.4167 0.0000
0.1111 0.5556 0.0000
0.1667 0.5278 0.0000
0.1111 0.6667 0.0000
0.1667 0.6389 0.0000
0.1111 0.7778 0.0000
0.1667 0.7500 0.0000
0.1111 0.8889 0.0000
0.1667 0.8611 0.0000
0.1111 1.0000 0.0000
0.1667 0.9722 0.0000
0.3333 0.1111 0.0000
0.3889 0.0833 0.0000
0.3333 0.2222 0.0000
0.3889 0.1944 0.0000
0.3333 0.3333 0.0000
0.3889 0.3056 0.0000
0.3333 0.4444 0.0000
0.3889 0.4167 0.0000
0.3333 0.5556 0.0000
0.3889 0.5278 0.0000
0.3333 0.6667 0.0000
0.3889 0.6389 0.0000
0.3333 0.7778 0.0000
0.3889 0.7500 0.0000
0.3333 0.8889 0.0000
0.3889 0.8611 0.0000
0.3333 1.0000 0.0000
0.3889 0.9722 0.0000
0.5556 0.1111 0.0000
[...]
         <PointData>
            <DataArray Name="fValues" NumberOfComponents="3" format="ascii" type="Float64">
-1.19508e-17  9.56067e-18        00000 
 4.12671e-18  1.70871e-18        00000 
 9.44833e-19 -6.05378e-19        00000 
-1.54117e-18 -5.13723e-19        00000 
-1.21278e-18 -6.86971e-19        00000 
-1.02745e-18  9.63231e-20        00000 
       00000 -2.01454e-19        00000 
-1.66809e-18 -1.60393e-19        00000 
-3.09577e-18  2.57981e-19        00000 
 2.98771e-18        00000        00000 
-1.01281e-01 -6.35726e-02        00000 
-8.07293e-02 -4.25862e-02        00000 
-6.40470e-02 -2.71609e-02        00000 
-5.27288e-02 -1.73312e-02        00000 
-4.43331e-02 -1.18648e-02        00000 
-3.98410e-02 -7.73206e-03        00000 
-3.72211e-02 -3.96322e-03        00000 
-3.21524e-02 -2.49127e-05        00000 
-2.59188e-02  4.94861e-03        00000 
-1.84013e-02  8.76702e-03        00000 
-1.81787e-01 -1.01554e-01        00000 
-1.58303e-01 -8.51055e-02        00000 
-1.32992e-01 -7.14835e-02        00000 
-1.10251e-01 -6.05016e-02        00000 
-9.35790e-02 -5.09746e-02        00000 
-8.07735e-02 -4.34822e-02        00000 
-7.12241e-02 -3.71876e-02        00000 
-5.92717e-02 -3.31530e-02        00000 
-4.31314e-02 -3.14991e-02        00000 
-2.51518e-02 -3.02767e-02        00000 
-2.53653e-01 -1.64489e-01        00000 
-2.21396e-01 -1.50383e-01        00000 
-1.91096e-01 -1.37455e-01        00000 
-1.61624e-01 -1.24512e-01        00000 
-1.36161e-01 -1.11831e-01        00000 
-1.14777e-01 -1.01478e-01        00000 
-9.65775e-02 -9.38761e-02        00000 
-7.63944e-02 -8.90396e-02        00000 
-5.28968e-02 -8.51968e-02        00000 
-2.64955e-02 -8.40297e-02        00000 
-3.03179e-01 -2.30391e-01        00000 
-2.70493e-01 -2.19142e-01        00000 
-2.37011e-01 -2.07491e-01        00000 
-2.05347e-01 -1.95208e-01        00000 
-1.73878e-01 -1.83876e-01        00000 
-1.41309e-01 -1.74147e-01        00000 
-1.13695e-01 -1.66926e-01        00000 
-8.67647e-02 -1.63357e-01        00000 
-5.43596e-02 -1.63160e-01        00000 
-1.65744e-02 -1.65004e-01        00000 
-3.41822e-01 -2.94717e-01        00000 
-3.07253e-01 -2.87519e-01        00000 
-2.72656e-01 -2.79323e-01        00000 
-2.36163e-01 -2.70720e-01        00000 
-1.98686e-01 -2.61821e-01        00000 
-1.62477e-01 -2.53874e-01        00000 
-1.25903e-01 -2.45839e-01        00000 
-8.78669e-02 -2.40884e-01        00000 
-4.78282e-02 -2.38872e-01        00000 
-9.18718e-03 -2.37876e-01        00000 
-3.74325e-01 -3.73790e-01        00000 
-3.31993e-01 -3.68315e-01        00000 
-2.93017e-01 -3.63287e-01        00000 
-2.53463e-01 -3.56858e-01        00000 
-2.14388e-01 -3.49430e-01        00000 
-1.76223e-01 -3.41557e-01        00000 
-1.33719e-01 -3.35328e-01        00000 
-9.00461e-02 -3.30249e-01        00000 
-4.70489e-02 -3.26801e-01        00000 
-2.12734e-03 -3.25013e-01        00000 
-3.95788e-01 -4.63292e-01        00000 
-3.50811e-01 -4.58242e-01        00000 
-3.09377e-01 -4.53050e-01        00000 
-2.71015e-01 -4.45790e-01        00000 
-2.28619e-01 -4.38624e-01        00000 
-1.83595e-01 -4.33781e-01        00000 
-1.37441e-01 -4.31951e-01        00000 
-9.42990e-02 -4.29402e-01        00000 
-5.24568e-02 -4.27950e-01        00000 
-2.56150e-03 -4.25815e-01        00000 
-4.14779e-01 -5.64897e-01        00000 
-3.65509e-01 -5.60417e-01        00000 
-3.20779e-01 -5.55522e-01        00000 
-2.80051e-01 -5.51495e-01        00000 
-2.35937e-01 -5.48255e-01        00000 
-1.87633e-01 -5.43254e-01        00000 
-1.41785e-01 -5.38174e-01        00000 
-9.91406e-02 -5.33180e-01        00000 
-5.81109e-02 -5.29772e-01        00000 
-1.68361e-02 -5.28237e-01        00000 
-4.20672e-01 -6.66154e-01        00000 
-3.72182e-01 -6.61669e-01        00000 
-3.29412e-01 -6.56947e-01        00000 
-2.85756e-01 -6.52193e-01        00000 
-2.40482e-01 -6.46933e-01        00000 
-1.92139e-01 -6.38888e-01        00000 
-1.47779e-01 -6.29152e-01        00000 
-1.05723e-01 -6.19933e-01        00000 
-6.31293e-02 -6.16241e-01        00000 
-1.72353e-02 -6.15726e-01        00000 
-4.34712e-02 -2.78732e-02        00000 
-3.23166e-02 -1.31794e-02        00000 
-2.66029e-02 -5.94137e-03        00000 
-2.28399e-02 -2.45041e-03        00000 
-2.11781e-02 -7.66470e-04        00000 
-1.97445e-02  1.16251e-04        00000 
-1.74028e-02  2.86991e-03        00000 
-1.45920e-02  5.97694e-03        00000 
-1.26776e-02  9.69869e-03        00000 
-1.32767e-01 -7.17725e-02        00000 
-1.10720e-01 -5.52113e-02        00000 
-9.03812e-02 -4.15223e-02        00000 
-7.56486e-02 -3.23730e-02        00000 
-6.52269e-02 -2.48316e-02        00000 
-5.88209e-02 -1.94740e-02        00000 
-5.25191e-02 -1.53328e-02        00000 
-4.25990e-02 -1.13678e-02        00000 
-2.95079e-02 -8.80699e-03        00000 
-2.06089e-01 -1.20720e-01        00000 
-1.77331e-01 -1.08040e-01        00000 
-1.48967e-01 -9.51370e-02        00000 
-1.25653e-01 -8.35303e-02        00000 
-1.06659e-01 -7.32863e-02        00000 
-9.20261e-02 -6.56566e-02        00000 
-7.83399e-02 -5.98221e-02        00000 
-5.92261e-02 -5.62017e-02        00000 
-3.88094e-02 -5.42517e-02        00000 
-2.63670e-01 -1.90176e-01        00000 
-2.31660e-01 -1.78883e-01        00000 
-2.00072e-01 -1.66567e-01        00000 
-1.71062e-01 -1.53025e-01        00000 
-1.43338e-01 -1.39993e-01        00000 
-1.18008e-01 -1.31584e-01        00000 
-9.61468e-02 -1.26229e-01        00000 
-7.06718e-02 -1.21880e-01        00000 
-3.96150e-02 -1.20546e-01        00000 
-3.06878e-01 -2.58103e-01        00000 
-2.73732e-01 -2.47795e-01        00000 
-2.39164e-01 -2.36587e-01        00000 
-2.04748e-01 -2.25831e-01        00000 
-1.70686e-01 -2.16771e-01        00000 
-1.36352e-01 -2.08353e-01        00000 
-1.04273e-01 -2.02623e-01        00000 
-7.02141e-02 -2.00870e-01        00000 
-3.23580e-02 -2.02432e-01        00000 
-3.39084e-01 -3.30638e-01        00000 
-3.02295e-01 -3.23644e-01        00000 
-2.64918e-01 -3.16427e-01        00000 
-2.26708e-01 -3.09463e-01        00000 
-1.88245e-01 -3.01905e-01        00000 
-1.50667e-01 -2.93523e-01        00000 
-1.10075e-01 -2.87069e-01        00000 
-6.78792e-02 -2.82496e-01        00000 
-2.58021e-02 -2.79896e-01        00000 
-3.63899e-01 -4.17062e-01        00000 
-3.21268e-01 -4.11597e-01        00000 
-2.81702e-01 -4.05251e-01        00000 
-2.42047e-01 -3.96304e-01        00000 
-2.01829e-01 -3.88739e-01        00000 
-1.59337e-01 -3.83470e-01        00000 
-1.13944e-01 -3.79856e-01        00000 
-7.00527e-02 -3.75951e-01        00000 
-2.56835e-02 -3.72230e-01        00000 
-3.81637e-01 -5.07366e-01        00000 
-3.36486e-01 -5.03281e-01        00000 
-2.96284e-01 -4.99936e-01        00000 
-2.55284e-01 -4.95939e-01        00000 
-2.09370e-01 -4.92110e-01        00000 
-1.61777e-01 -4.89106e-01        00000 
-1.17529e-01 -4.86530e-01        00000 
-7.55031e-02 -4.84137e-01        00000 
-3.39963e-02 -4.83011e-01        00000 
-3.92615e-01 -6.11526e-01        00000 
-3.47109e-01 -6.08764e-01        00000 
-3.03376e-01 -6.03230e-01        00000 
-2.59760e-01 -5.98294e-01        00000 
-2.13151e-01 -5.92497e-01        00000 
-1.65793e-01 -5.86319e-01        00000 
-1.22634e-01 -5.79280e-01        00000 
-8.13218e-02 -5.73627e-01        00000 
-3.89970e-02 -5.70278e-01        00000 
 2.68861e-19 -2.85860e-18        00000 
-2.22571e-02 -1.51664e-02        00000 
-1.83885e-02 -1.03900e-02        00000 
 3.74566e-18  2.54035e-18        00000 
-1.60472e-02 -7.51896e-03        00000 
-1.42117e-02 -5.16081e-03        00000 
 1.46367e-18 -1.70762e-18        00000 
-1.27637e-02 -3.78222e-03        00000 
-1.16080e-02 -3.28289e-03        00000 
 2.02129e-19  2.36468e-19        00000 
-1.09712e-02 -2.76949e-03        00000 
-1.03100e-02 -2.17633e-03        00000 
 4.87891e-19 -6.09864e-19        00000 
-1.01784e-02 -1.74663e-03        00000 
-9.53381e-03 -1.16228e-03        00000 
       00000  3.08254e-21        00000 
-9.43371e-03 -6.04521e-04        00000 
-8.99159e-03  1.78476e-04        00000 
 1.46367e-18 -1.82959e-19        00000 
-8.62063e-03  1.09237e-03        00000 
-8.28562e-03  1.85388e-03        00000 
-4.87891e-19  7.31836e-19        00000 
-7.57886e-03  2.54754e-03        00000 
-6.64069e-03  3.28868e-03        00000 
-1.22068e-18 -3.01698e-19        00000 
-6.03726e-03  4.30207e-03        00000 
-6.53139e-03  5.47679e-03        00000 
-9.06523e-02 -5.27491e-02        00000 
-1.17049e-01 -6.67727e-02        00000 
-1.07331e-01 -5.80172e-02        00000 
-7.10926e-02 -3.38852e-02        00000 
-9.65848e-02 -4.89300e-02        00000 
-8.72587e-02 -4.08533e-02        00000 
-5.79569e-02 -2.14895e-02        00000 
-7.83089e-02 -3.42488e-02        00000 
-7.08662e-02 -2.90646e-02        00000 
-4.80996e-02 -1.44331e-02        00000 
-6.48043e-02 -2.53395e-02        00000 
-5.95527e-02 -2.17536e-02        00000 
-4.15973e-02 -9.31245e-03        00000 
-5.55473e-02 -1.82796e-02        00000 
-5.19771e-02 -1.54116e-02        00000 
-3.86544e-02 -5.78367e-03        00000 
-5.00497e-02 -1.29988e-02        00000 
-4.81859e-02 -1.08871e-02        00000 
-3.49166e-02 -2.02224e-03        00000 
-4.56000e-02 -9.13271e-03        00000 
-4.25364e-02 -7.18557e-03        00000 
-2.95469e-02  2.65590e-03        00000 
-3.84284e-02 -4.69963e-03        00000 
-3.41628e-02 -2.62274e-03        00000 
-2.23380e-02  7.23079e-03        00000 
-2.90763e-02 -1.00125e-03        00000 
-2.32041e-02  1.04622e-03        00000 
-1.70638e-01 -9.25842e-02        00000 
-1.95234e-01 -1.09945e-01        00000 
-1.81946e-01 -1.02133e-01        00000 
-1.45784e-01 -7.80748e-02        00000 
-1.69079e-01 -9.54355e-02        00000 
-1.55584e-01 -8.92111e-02        00000 
-1.20729e-01 -6.56510e-02        00000 
-1.41709e-01 -8.36211e-02        00000 
-1.29034e-01 -7.75971e-02        00000 
-1.01433e-01 -5.55371e-02        00000 
-1.18812e-01 -7.24534e-02        00000 
-1.09334e-01 -6.75536e-02        00000 
-8.69610e-02 -4.69059e-02        00000 
-1.01415e-01 -6.30384e-02        00000 
-9.38402e-02 -5.87242e-02        00000 
-7.61148e-02 -3.99822e-02        00000 
-8.74542e-02 -5.49804e-02        00000 
-8.17101e-02 -5.14407e-02        00000 
-6.64779e-02 -3.51432e-02        00000 
-7.58765e-02 -4.88892e-02        00000 
-6.91137e-02 -4.67134e-02        00000 
-5.18846e-02 -3.23290e-02        00000 
-6.05702e-02 -4.50428e-02        00000 
-5.14953e-02 -4.40031e-02        00000 
-3.42315e-02 -3.07869e-02        00000 
-4.12794e-02 -4.29246e-02        00000 
-3.20626e-02 -4.21648e-02        00000 
-2.36834e-01 -1.57045e-01        00000 
-2.58781e-01 -1.76565e-01        00000 
-2.42985e-01 -1.71316e-01        00000 
-2.06227e-01 -1.43977e-01        00000 
-2.27259e-01 -1.64838e-01        00000 
-2.11918e-01 -1.59106e-01        00000 
-1.76385e-01 -1.31036e-01        00000 
-1.96309e-01 -1.52867e-01        00000 
-1.81136e-01 -1.46174e-01        00000 
-1.48590e-01 -1.18098e-01        00000 
-1.66927e-01 -1.39916e-01        00000 
-1.53463e-01 -1.32946e-01        00000 
-1.25365e-01 -1.05998e-01        00000 
-1.40678e-01 -1.26977e-01        00000 
-1.28204e-01 -1.20782e-01        00000 
-1.05979e-01 -9.68022e-02        00000 
-1.17307e-01 -1.16253e-01        00000 
-1.07053e-01 -1.12646e-01        00000 
-8.74328e-02 -9.11316e-02        00000 
-9.71454e-02 -1.10162e-01        00000 
-8.62151e-02 -1.07515e-01        00000 
-6.51346e-02 -8.67161e-02        00000 
-7.46990e-02 -1.05076e-01        00000 
-6.18258e-02 -1.03374e-01        00000 
-3.97054e-02 -8.43914e-02        00000 
-4.73515e-02 -1.01969e-01        00000 
-3.23421e-02 -1.02085e-01        00000 
-2.87016e-01 -2.24304e-01        00000 
-3.04802e-01 -2.43806e-01        00000 
-2.88913e-01 -2.39172e-01        00000 
-2.53780e-01 -2.13182e-01        00000 
-2.72550e-01 -2.33846e-01        00000 
-2.56139e-01 -2.28067e-01        00000 
-2.20871e-01 -2.01118e-01        00000 
-2.39265e-01 -2.22212e-01        00000 
-2.22325e-01 -2.15734e-01        00000 
-1.89884e-01 -1.89441e-01        00000 
-2.06243e-01 -2.10766e-01        00000 
-1.89910e-01 -2.05427e-01        00000 
-1.57683e-01 -1.78424e-01        00000 
-1.73635e-01 -2.00723e-01        00000 
-1.55994e-01 -1.95728e-01        00000 
-1.26967e-01 -1.69522e-01        00000 
-1.39777e-01 -1.91458e-01        00000 
-1.24556e-01 -1.87477e-01        00000 
-1.00860e-01 -1.64423e-01        00000 
-1.10291e-01 -1.84713e-01        00000 
-9.52890e-02 -1.83224e-01        00000 
-7.18053e-02 -1.62596e-01        00000 
-7.97392e-02 -1.82718e-01        00000 
-6.22955e-02 -1.83158e-01        00000 
-3.52358e-02 -1.64152e-01        00000 
-4.32439e-02 -1.83838e-01        00000 
-2.43094e-02 -1.84534e-01        00000 
-3.23974e-01 -2.90793e-01        00000 
-3.41005e-01 -3.12750e-01        00000 
-3.22556e-01 -3.08811e-01        00000 
-2.90083e-01 -2.83256e-01        00000 
-3.05505e-01 -3.05544e-01        00000 
-2.87837e-01 -3.01916e-01        00000 
-2.54613e-01 -2.74501e-01        00000 
-2.69104e-01 -2.97694e-01        00000 
-2.50375e-01 -2.94392e-01        00000 
-2.17424e-01 -2.65674e-01        00000 
-2.31525e-01 -2.90375e-01        00000 
-2.12666e-01 -2.86654e-01        00000 
-1.80586e-01 -2.57335e-01        00000 
-1.93998e-01 -2.82338e-01        00000 
-1.75737e-01 -2.78396e-01        00000 
-1.44264e-01 -2.48955e-01        00000 
-1.57045e-01 -2.73718e-01        00000 
-1.37952e-01 -2.70063e-01        00000 
-1.07304e-01 -2.42403e-01        00000 
-1.18613e-01 -2.66252e-01        00000 
-9.90035e-02 -2.64232e-01        00000 
-6.82237e-02 -2.39264e-01        00000 
-7.83846e-02 -2.61978e-01        00000 
-5.76472e-02 -2.60734e-01        00000 
-2.78300e-02 -2.37990e-01        00000 
-3.68849e-02 -2.59062e-01        00000 
-1.67716e-02 -2.58301e-01        00000 
-3.53139e-01 -3.70899e-01        00000 
-3.69728e-01 -3.94825e-01        00000 
-3.48013e-01 -3.92782e-01        00000 
-3.12437e-01 -3.65959e-01        00000 
-3.26989e-01 -3.89981e-01        00000 
-3.07173e-01 -3.87690e-01        00000 
-2.73600e-01 -3.59895e-01        00000 
-2.87565e-01 -3.84447e-01        00000 
-2.68014e-01 -3.81410e-01        00000 
-2.34201e-01 -3.52859e-01        00000 
-2.47821e-01 -3.77444e-01        00000 
-2.28339e-01 -3.73758e-01        00000 
-1.95819e-01 -3.44997e-01        00000 
-2.08819e-01 -3.69110e-01        00000 
-1.89466e-01 -3.65723e-01        00000 
-1.55880e-01 -3.38247e-01        00000 
-1.68494e-01 -3.62349e-01        00000 
-1.47069e-01 -3.59831e-01        00000 
-1.11813e-01 -3.32628e-01        00000 
-1.24607e-01 -3.56777e-01        00000 
-1.02132e-01 -3.55314e-01        00000 
-6.87541e-02 -3.28452e-01        00000 
-8.02366e-02 -3.52997e-01        00000 
-5.87574e-02 -3.51268e-01        00000 
-2.49344e-02 -3.25626e-01        00000 
-3.67872e-02 -3.49527e-01        00000 
-1.35469e-02 -3.48064e-01        00000 
-3.73511e-01 -4.61263e-01        00000 
-3.89935e-01 -4.84668e-01        00000 
-3.66002e-01 -4.82071e-01        00000 
-3.29432e-01 -4.56244e-01        00000 
-3.43928e-01 -4.79806e-01        00000 
-3.23339e-01 -4.77239e-01        00000 
-2.90449e-01 -4.49638e-01        00000 
-3.03905e-01 -4.74851e-01        00000 
-2.84480e-01 -4.72268e-01        00000 
-2.50636e-01 -4.42240e-01        00000 
-2.64050e-01 -4.69529e-01        00000 
-2.42961e-01 -4.67006e-01        00000 
-2.06707e-01 -4.35906e-01        00000 
-2.20574e-01 -4.64038e-01        00000 
-1.97334e-01 -4.62281e-01        00000 
-1.60865e-01 -4.32739e-01        00000 
-1.73003e-01 -4.60368e-01        00000 
-1.50198e-01 -4.59608e-01        00000 
-1.15481e-01 -4.30793e-01        00000 
-1.28088e-01 -4.58412e-01        00000 
-1.06394e-01 -4.58080e-01        00000 
-7.38468e-02 -4.29089e-01        00000 
-8.51606e-02 -4.56646e-01        00000 
-6.40570e-02 -4.56598e-01        00000 
-2.94733e-02 -4.27210e-01        00000 
-4.31568e-02 -4.55980e-01        00000 
-1.95204e-02 -4.55906e-01        00000 
-3.89141e-01 -5.63078e-01        00000 
-4.03942e-01 -5.88474e-01        00000 
-3.79772e-01 -5.86863e-01        00000 
-3.42284e-01 -5.57862e-01        00000 
-3.56344e-01 -5.84973e-01        00000 
-3.34022e-01 -5.82374e-01        00000 
-3.00340e-01 -5.53346e-01        00000 
-3.12754e-01 -5.79990e-01        00000 
-2.91520e-01 -5.78111e-01        00000 
-2.59076e-01 -5.49986e-01        00000 
-2.70582e-01 -5.76103e-01        00000 
-2.48368e-01 -5.74589e-01        00000 
-2.11510e-01 -5.46124e-01        00000 
-2.25043e-01 -5.71821e-01        00000 
-2.00265e-01 -5.68830e-01        00000 
-1.64496e-01 -5.41350e-01        00000 
-1.77093e-01 -5.66099e-01        00000 
-1.53502e-01 -5.62530e-01        00000 
-1.20147e-01 -5.36011e-01        00000 
-1.31841e-01 -5.59744e-01        00000 
-1.10437e-01 -5.56583e-01        00000 
-7.86814e-02 -5.31677e-01        00000 
-9.04796e-02 -5.54319e-01        00000 
-6.95461e-02 -5.51904e-01        00000 
-3.76291e-02 -5.29271e-01        00000 
-4.93103e-02 -5.50154e-01        00000 
-2.81655e-02 -5.49707e-01        00000 
-3.72642e-02 -1.98909e-02        00000 
-6.30494e-02 -3.56493e-02        00000 
-2.94687e-02 -9.16723e-03        00000 
-4.87550e-02 -1.92854e-02        00000 
-2.49485e-02 -4.53247e-03        00000 
-4.00602e-02 -9.89633e-03        00000 
-2.20307e-02 -1.89796e-03        00000 
-3.43964e-02 -5.19088e-03        00000 
-2.01530e-02 -7.28810e-04        00000 
-3.02337e-02 -2.78206e-03        00000 
-1.83477e-02  1.14049e-03        00000 
-2.84936e-02 -6.52123e-04        00000 
-1.60955e-02  4.42631e-03        00000 
-2.51672e-02  3.12571e-03        00000 
-1.34356e-02  7.62729e-03        00000 
-2.10411e-02  7.06980e-03        00000 
-1.48387e-02  1.26789e-02        00000 
-1.75499e-02  1.09145e-02        00000 
-1.21824e-01 -6.35791e-02        00000 
-1.46490e-01 -7.80094e-02        00000 
-1.00024e-01 -4.75244e-02        00000 
-1.22649e-01 -6.23263e-02        00000 
-8.21053e-02 -3.67624e-02        00000 
-1.00971e-01 -4.97954e-02        00000 
-6.99599e-02 -2.81493e-02        00000 
-8.52837e-02 -3.98893e-02        00000 
-6.13747e-02 -2.18984e-02        00000 
-7.34171e-02 -3.26174e-02        00000 
-5.55314e-02 -1.74196e-02        00000 
-6.56425e-02 -2.70287e-02        00000 
-4.77433e-02 -1.29585e-02        00000 
-5.68525e-02 -2.26408e-02        00000 
-3.63045e-02 -1.02246e-02        00000 
-4.40398e-02 -2.05159e-02        00000 
-2.08866e-02 -8.15285e-03        00000 
-2.82344e-02 -1.88664e-02        00000 
-1.91615e-01 -1.14153e-01        00000 
-2.14449e-01 -1.35166e-01        00000 
-1.63008e-01 -1.01579e-01        00000 
-1.84835e-01 -1.21504e-01        00000 
-1.36668e-01 -8.93254e-02        00000 
-1.56054e-01 -1.07697e-01        00000 
-1.15982e-01 -7.83918e-02        00000 
-1.31432e-01 -9.52579e-02        00000 
-9.89595e-02 -6.96370e-02        00000 
-1.10946e-01 -8.52056e-02        00000 
-8.53905e-02 -6.25620e-02        00000 
-9.54939e-02 -7.78149e-02        00000 
-6.93811e-02 -5.81201e-02        00000 
-7.83698e-02 -7.24857e-02        00000 
-4.91732e-02 -5.55741e-02        00000 
-5.70187e-02 -6.97700e-02        00000 
-2.77744e-02 -5.39891e-02        00000 
-3.43457e-02 -6.92419e-02        00000 
-2.47872e-01 -1.84548e-01        00000 
-2.67712e-01 -2.04599e-01        00000 
-2.15747e-01 -1.72413e-01        00000 
-2.34808e-01 -1.92547e-01        00000 
-1.85218e-01 -1.60031e-01        00000 
-2.03235e-01 -1.79689e-01        00000 
-1.57130e-01 -1.45899e-01        00000 
-1.73789e-01 -1.66463e-01        00000 
-1.29713e-01 -1.35347e-01        00000 
-1.42366e-01 -1.55718e-01        00000 
-1.06790e-01 -1.28553e-01        00000 
-1.16475e-01 -1.48012e-01        00000 
-8.41131e-02 -1.23869e-01        00000 
-9.25900e-02 -1.43362e-01        00000 
-5.60285e-02 -1.20887e-01        00000 
-6.40773e-02 -1.41358e-01        00000 
-2.11390e-02 -1.21012e-01        00000 
-2.88975e-02 -1.42849e-01        00000 
-2.90438e-01 -2.53419e-01        00000 