<?xml version="1.0" encoding="utf-8"?>
<VTKFile byte_order="LittleEndian" type="UnstructuredGrid" version="0.1">
   <UnstructuredGrid>
      <Piece NumberOfCells="1296" NumberOfPoints="685">
         <Points>
            <DataArray Name="Points" NumberOfComponents="3" format="ascii" type="Float32">
0.0000 0.0000 0.0000
0.0000 0.1111 0.0000
0.0000 0.2222 0.0000
0.0000 0.3333 0.0000
0.0000 0.4444 0.0000
0.0000 0.5556 0.0000
0.0000 0.6667 0.0000
0.0000 0.7778 0.0000
0.0000 0.8889 0.0000
0.0000 1.0000 0.0000
0.2222 0.0000 0.0000
0.2222 0.1111 0.0000
0.2222 0.2222 0.0000
0.2222 0.3333 0.0000
0.2222 0.4444 0.0000
0.2222 0.5556 0.0000
0.2222 0.6667 0.0000
0.2222 0.7778 0.0000
0.2222 0.8889 0.0000
0.2222 1.0000 0.0000
0.4444 0.0000 0.0000
0.4444 0.1111 0.0000
0.4444 0.2222 0.0000
0.4444 0.3333 0.0000
0.4444 0.4444 0.0000
0.4444 0.5556 0.0000
0.4444 0.6667 0.0000
0.4444 0.7778 0.0000
0.4444 0.8889 0.0000
0.4444 1.0000 0.0000
0.6667 0.0000 0.0000
0.6667 0.1111 0.0000
0.6667 0.2222 0.0000
0.6667 0.3333 0.0000
0.6667 0.4444 0.0000
0.6667 0.5556 0.0000
0.6667 0.6667 0.0000
0.6667 0.7778 0.0000
0.6667 0.8889 0.0000
0.6667 1.0000 0.0000
0.8889 0.0000 0.0000
0.8889 0.1111 0.0000
0.8889 0.2222 0.0000
0.8889 0.3333 0.0000
0.8889 0.4444 0.0000
0.8889 0.5556 0.0000
0.8889 0.6667 0.0000
0.8889 0.7778 0.0000
0.8889 0.8889 0.0000
0.8889 1.0000 0.0000
1.1111 0.0000 0.0000
1.1111 0.1111 0.0000
1.1111 0.2222 0.0000
1.1111 0.3333 0.0000
1.1111 0.4444 0.0000
1.1111 0.5556 0.0000
1.1111 0.6667 0.0000
1.1111 0.7778 0.0000
1.1111 0.8889 0.0000
1.1111 1.0000 0.0000
1.3333 0.0000 0.0000
1.3333 0.1111 0.0000
1.3333 0.2222 0.0000
1.3333 0.3333 0.0000
1.3333 0.4444 0.0000
1.3333 0.5556 0.0000
1.3333 0.6667 0.0000
1.3333 0.7778 0.0000
1.3333 0.8889 0.0000
1.3333 1.0000 0.0000
1.5556 0.0000 0.0000
1.5556 0.1111 0.0000
1.5556 0.2222 0.0000
1.5556 0.3333 0.0000
1.5556 0.4444 0.0000
1.5556 0.5556 0.0000
1.5556 0.6667 0.0000
1.5556 0.7778 0.0000
1.5556 0.8889 0.0000
1.5556 1.0000 0.0000
1.7778 0.0000 0.0000
1.7778 0.1111 0.0000
1.7778 0.2222 0.0000
1.7778 0.3333 0.0000
1.7778 0.4444 0.0000
1.7778 0.5556 0.0000
1.7778 0.6667 0.0000
1.7778 0.7778 0.0000
1.7778 0.8889 0.0000
1.7778 1.0000 0.0000
2.0000 0.0000 0.0000
2.0000 0.1111 0.0000
2.0000 0.2222 0.0000
2.0000 0.3333 0.0000
2.0000 0.4444 0.0000
2.0000 0.5556 0.0000
2.0000 0.6667 0.0000
2.0000 0.7778 0.0000
2.0000 0.8889 0.0000
2.0000 1.0000 0.0000
0.1111 0.0556 0.0000
0.1111 0.1667 0.0000
0.1111 0.2778 0.0000
0.1111 0.3889 0.0000
0.1111 0.5000 0.0000
0.1111 0.6111 0.0000
0.1111 0.7222 0.0000
0.1111 0.8333 0.0000
0.1111 0.9444 0.0000
0.3333 0.0556 0.0000
0.3333 0.1667 0.0000
0.3333 0.2778 0.0000
0.3333 0.3889 0.0000
0.3333 0.5000 0.0000
0.3333 0.6111 0.0000
0.3333 0.7222 0.0000
0.3333 0.8333 0.0000
0.3333 0.9444 0.0000
0.5556 0.0556 0.0000
0.5556 0.1667 0.0000
0.5556 0.2778 0.0000
0.5556 0.3889 0.0000
0.5556 0.5000 0.0000
0.5556 0.6111 0.0000
0.5556 0.7222 0.0000
0.5556 0.8333 0.0000
0.5556 0.9444 0.0000
0.7778 0.0556 0.0000
0.7778 0.1667 0.0000
0.7778 0.2778 0.0000
0.7778 0.3889 0.0000
0.7778 0.5000 0.0000
0.7778 0.6111 0.0000
0.7778 0.7222 0.0000
0.7778 0.8333 0.0000
0.7778 0.9444 0.0000
1.0000 0.0556 0.0000
1.0000 0.1667 0.0000
1.0000 0.2778 0.0000
1.0000 0.3889 0.0000
1.0000 0.5000 0.0000
1.0000 0.6111 0.0000
1.0000 0.7222 0.0000
1.0000 0.8333 0.0000
1.0000 0.9444 0.0000
1.2222 0.0556 0.0000
1.2222 0.1667 0.0000
1.2222 0.2778 0.0000
1.2222 0.3889 0.0000
1.2222 0.5000 0.0000
1.2222 0.6111 0.0000
1.2222 0.7222 0.0000
1.2222 0.8333 0.0000
1.2222 0.9444 0.0000
1.4444 0.0556 0.0000
1.4444 0.1667 0.0000
1.4444 0.2778 0.0000
1.4444 0.3889 0.0000
1.4444 0.5000 0.0000
1.4444 0.6111 0.0000
1.4444 0.7222 0.0000
1.4444 0.8333 0.0000
1.4444 0.9444 0.0000
1.6667 0.0556 0.0000
1.6667 0.1667 0.0000
1.6667 0.2778 0.0000
1.6667 0.3889 0.0000
1.6667 0.5000 0.0000
1.6667 0.6111 0.0000
1.6667 0.7222 0.0000
1.6667 0.8333 0.0000
1.6667 0.9444 0.0000
1.8889 0.0556 0.0000
1.8889 0.1667 0.0000
1.8889 0.2778 0.0000
1.8889 0.3889 0.0000
1.8889 0.5000 0.0000
1.8889 0.6111 0.0000
1.8889 0.7222 0.0000
1.8889 0.8333 0.0000
1.8889 0.9444 0.0000
0.0000 0.0556 0.0000
0.0556 0.0278 0.0000
0.0556 0.0833 0.0000
0.0000 0.1667 0.0000
0.0556 0.1389 0.0000
0.0556 0.1944 0.0000
0.0000 0.2778 0.0000
0.0556 0.2500 0.0000
0.0556 0.3056 0.0000
0.0000 0.3889 0.0000
0.0556 0.3611 0.0000
0.0556 0.4167 0.0000
0.0000 0.5000 0.0000
0.0556 0.4722 0.0000
0.0556 0.5278 0.0000
0.0000 0.6111 0.0000
0.0556 0.5833 0.0000
0.0556 0.6389 0.0000
0.0000 0.7222 0.0000
0.0556 0.6944 0.0000
0.0556 0.7500 0.0000
0.0000 0.8333 0.0000
0.0556 0.8056 0.0000
0.0556 0.8611 0.0000
0.0000 0.9444 0.0000
0.0556 0.9167 0.0000
0.0556 0.9722 0.0000
0.2222 0.0556 0.0000
0.2778 0.0278 0.0000
0.2778 0.0833 0.0000
0.2222 0.1667 0.0000
0.2778 0.1389 0.0000
0.2778 0.1944 0.0000
0.2222 0.2778 0.0000
0.2778 0.2500 0.0000
0.2778 0.3056 0.0000
0.2222 0.3889 0.0000
0.2778 0.3611 0.0000
0.2778 0.4167 0.0000
0.2222 0.5000 0.0000
0.2778 0.4722 0.0000
0.2778 0.5278 0.0000
0.2222 0.6111 0.0000
0.2778 0.5833 0.0000
0.2778 0.6389 0.0000
0.2222 0.7222 0.0000
0.2778 0.6944 0.0000
0.2778 0.7500 0.0000
0.2222 0.8333 0.0000
0.2778 0.8056 0.0000
0.2778 0.8611 0.0000
0.2222 0.9444 0.0000
0.2778 0.9167 0.0000
0.2778 0.9722 0.0000
0.4444 0.0556 0.0000
0.5000 0.0278 0.0000
0.5000 0.0833 0.0000
0.4444 0.1667 0.0000
0.5000 0.1389 0.0000
0.5000 0.1944 0.0000
0.4444 0.2778 0.0000
0.5000 0.2500 0.0000
0.5000 0.3056 0.0000
0.4444 0.3889 0.0000
0.5000 0.3611 0.0000
0.5000 0.4167 0.0000
0.4444 0.5000 0.0000
0.5000 0.4722 0.0000
0.5000 0.5278 0.0000
0.4444 0.6111 0.0000
0.5000 0.5833 0.0000
0.5000 0.6389 0.0000
0.4444 0.7222 0.0000
0.5000 0.6944 0.0000
0.5000 0.7500 0.0000
0.4444 0.8333 0.0000
0.5000 0.8056 0.0000
0.5000 0.8611 0.0000
0.4444 0.9444 0.0000
0.5000 0.9167 0.0000
0.5000 0.9722 0.0000
0.6667 0.0556 0.0000
0.7222 0.0278 0.0000
0.7222 0.0833 0.0000
0.6667 0.1667 0.0000
0.7222 0.1389 0.0000
0.7222 0.1944 0.0000
0.6667 0.2778 0.0000
0.7222 0.2500 0.0000
0.7222 0.3056 0.0000
0.6667 0.3889 0.0000
0.7222 0.3611 0.0000
0.7222 0.4167 0.0000
0.6667 0.5000 0.0000
0.7222 0.4722 0.0000
0.7222 0.5278 0.0000
0.6667 0.6111 0.0000
0.7222 0.5833 0.0000
0.7222 0.6389 0.0000
0.6667 0.7222 0.0000
0.7222 0.6944 0.0000
0.7222 0.7500 0.0000
0.6667 0.8333 0.0000
0.7222 0.8056 0.0000
0.7222 0.8611 0.0000
0.6667 0.9444 0.0000
0.7222 0.9167 0.0000
0.7222 0.9722 0.0000
0.8889 0.0556 0.0000
0.9444 0.0278 0.0000
0.9444 0.0833 0.0000
0.8889 0.1667 0.0000
0.9444 0.1389 0.0000
0.9444 0.1944 0.0000
0.8889 0.2778 0.0000
0.9444 0.2500 0.0000
0.9444 0.3056 0.0000
0.8889 0.3889 0.0000
0.9444 0.3611 0.0000
0.9444 0.4167 0.0000
0.8889 0.5000 0.0000
0.9444 0.4722 0.0000
0.9444 0.5278 0.0000
0.8889 0.6111 0.0000
0.9444 0.5833 0.0000
0.9444 0.6389 0.0000
0.8889 0.7222 0.0000
0.9444 0.6944 0.0000
0.9444 0.7500 0.0000
0.8889 0.8333 0.0000
0.9444 0.8056 0.0000
0.9444 0.8611 0.0000
0.8889 0.9444 0.0000
0.9444 0.9167 0.0000
0.9444 0.9722 0.0000
1.1111 0.0556 0.0000
1.1667 0.0278 0.0000
1.1667 0.0833 0.0000
1.1111 0.1667 0.0000
1.1667 0.1389 0.0000
1.1667 0.1944 0.0000
1.1111 0.2778 0.0000
1.1667 0.2500 0.0000
1.1667 0.3056 0.0000
1.1111 0.3889 0.0000
1.1667 0.3611 0.0000
1.1667 0.4167 0.0000
1.1111 0.5000 0.0000
1.1667 0.4722 0.0000
1.1667 0.5278 0.0000
1.1111 0.6111 0.0000
1.1667 0.5833 0.0000
1.1667 0.6389 0.0000
1.1111 0.7222 0.0000
1.1667 0.6944 0.0000
1.1667 0.7500 0.0000
1.1111 0.8333 0.0000
1.1667 0.8056 0.0000
1.1667 0.8611 0.0000
1.1111 0.9444 0.0000
1.1667 0.9167 0.0000
1.1667 0.9722 0.0000
1.3333 0.0556 0.0000
1.3889 0.0278 0.0000
1.3889 0.0833 0.0000
1.3333 0.1667 0.0000
1.3889 0.1389 0.0000
1.3889 0.1944 0.0000
1.3333 0.2778 0.0000
1.3889 0.2500 0.0000
1.3889 0.3056 0.0000
1.3333 0.3889 0.0000
1.3889 0.3611 0.0000
1.3889 0.4167 0.0000
1.3333 0.5000 0.0000
1.3889 0.4722 0.0000
1.3889 0.5278 0.0000
1.3333 0.6111 0.0000
1.3889 0.5833 0.0000
1.3889 0.6389 0.0000
1.3333 0.7222 0.0000
1.3889 0.6944 0.0000
1.3889 0.7500 0.0000
1.3333 0.8333 0.0000
1.3889 0.8056 0.0000
1.3889 0.8611 0.0000
1.3333 0.9444 0.0000
1.3889 0.9167 0.0000
1.3889 0.9722 0.0000
1.5556 0.0556 0.0000
1.6111 0.0278 0.0000
1.6111 0.0833 0.0000
1.5556 0.1667 0.0000
1.6111 0.1389 0.0000
1.6111 0.1944 0.0000
1.5556 0.2778 0.0000
1.6111 0.2500 0.0000
1.6111 0.3056 0.0000
1.5556 0.3889 0.0000
1.6111 0.3611 0.0000
1.6111 0.4167 0.0000
1.5556 0.5000 0.0000
1.6111 0.4722 0.0000
1.6111 0.5278 0.0000
1.5556 0.6111 0.0000
1.6111 0.5833 0.0000
1.6111 0.6389 0.0000
1.5556 0.7222 0.0000
1.6111 0.6944 0.0000
1.6111 0.7500 0.0000
1.5556 0.8333 0.0000
1.6111 0.8056 0.0000
1.6111 0.8611 0.0000
1.5556 0.9444 0.0000
1.6111 0.9167 0.0000
1.6111 0.9722 0.0000
1.7778 0.0556 0.0000
1.8333 0.0278 0.0000
1.8333 0.0833 0.0000
1.7778 0.1667 0.0000
1.8333 0.1389 0.0000
1.8333 0.1944 0.0000
1.7778 0.2778 0.0000
1.8333 0.2500 0.0000
1.8333 0.3056 0.0000
1.7778 0.3889 0.0000
1.8333 0.3611 0.0000
1.8333 0.4167 0.0000
1.7778 0.5000 0.0000
1.8333 0.4722 0.0000
1.8333 0.5278 0.0000
1.7778 0.6111 0.0000
1.8333 0.5833 0.0000
1.8333 0.6389 0.0000
1.7778 0.7222 0.0000
1.8333 0.6944 0.0000
1.8333 0.7500 0.0000
1.7778 0.8333 0.0000
1.8333 0.8056 0.0000
1.8333 0.8611 0.0000
1.7778 0.9444 0.0000
1.8333 0.9167 0.0000
1.8333 0.9722 0.0000
0.1111 0.1111 0.0000
0.1667 0.0833 0.0000
0.1111 0.2222 0.0000
0.1667 0.1944 0.0000
0.1111 0.3333 0.0000
0.1667 0.3056 0.0000
0.1111 0.4444 0.0000
0.1667 0.4167 0.0000
0.1111 0.5556 0.0000
0.1667 0.5278 0.0000
0.1111 0.6667 0.0000
0.1667 0.6389 0.0000
0.1111 0.7778 0.0000
0.1667 0.7500 0.0000
0.1111 0.8889 0.0000
0.1667 0.8611 0.0000
0.1111 1.0000 0.0000
0.1667 0.9722 0.0000
0.3333 0.1111 0.0000
0.3889 0.0833 0.0000
0.3333 0.2222 0.0000
0.3889 0.1944 0.0000
0.3333 0.3333 0.0000
0.3889 0.3056 0.0000
0.3333 0.4444 0.0000
0.3889 0.4167 0.0000
0.3333 0.5556 0.0000
0.3889 0.5278 0.0000
0.3333 0.6667 0.0000
0.3889 0.6389 0.0000
0.3333 0.7778 0.0000
0.3889 0.7500 0.0000
0.3333 0.8889 0.0000
0.3889 0.8611 0.0000
0.3333 1.0000 0.0000
0.3889 0.9722 0.0000
0.5556 0.1111 0.0000
[...]
         <PointData>
            <DataArray Name="fValues" NumberOfComponents="3" format="ascii" type="Float64">
-4.89506e-15 -2.44753e-15        00000 
 1.41959e-15  5.61232e-16        00000 
 3.71035e-16  3.17818e-16        00000 
-3.94539e-16 -3.94539e-16        00000 
-4.54360e-16 -1.35122e-16        00000 
-6.57565e-17 -3.28783e-17        00000 
 3.16138e-16 -3.34189e-16        00000 
-8.21213e-16  6.56971e-17        00000 
 1.58503e-15 -1.18878e-15        00000 
-1.22377e-15 -4.28318e-15        00000 
-4.22667e+01 -3.19332e+01        00000 
-2.88194e+01 -2.44778e+01        00000 
-1.88265e+01 -1.92182e+01        00000 
-1.08297e+01 -1.61219e+01        00000 
-3.66321e+00 -1.46609e+01        00000 
 3.27253e+00 -1.45599e+01        00000 
 1.04922e+01 -1.58751e+01        00000 
 1.85977e+01 -1.88472e+01        00000 
 2.85693e+01 -2.40284e+01        00000 
 4.18581e+01 -3.13883e+01        00000 
-7.69742e+01 -6.77085e+01        00000 
-5.68305e+01 -6.11799e+01        00000 
-3.89311e+01 -5.60588e+01        00000 
-2.28297e+01 -5.26035e+01        00000 
-7.75888e+00 -5.08365e+01        00000 
 6.95805e+00 -5.07475e+01        00000 
 2.20464e+01 -5.23770e+01        00000 
 3.82687e+01 -5.57009e+01        00000 
 5.63056e+01 -6.06355e+01        00000 
 7.65330e+01 -6.70586e+01        00000 
-1.08086e+02 -1.16998e+02        00000 
-8.13225e+01 -1.11290e+02        00000 
-5.66540e+01 -1.06919e+02        00000 
-3.35781e+01 -1.03982e+02        00000 
-1.14751e+01 -1.02522e+02        00000 
 1.02913e+01 -1.02509e+02        00000 
 3.23416e+01 -1.03948e+02        00000 
 5.54162e+01 -1.06841e+02        00000 
 8.02195e+01 -1.11108e+02        00000 
 1.07167e+02 -1.16623e+02        00000 
-1.35295e+02 -1.79274e+02        00000 
-1.02368e+02 -1.74403e+02        00000 
-7.17049e+01 -1.70762e+02        00000 
-4.26132e+01 -1.68329e+02        00000 
-1.45661e+01 -1.67117e+02        00000 
 1.31052e+01 -1.67151e+02        00000 
 4.11132e+01 -1.68383e+02        00000 
 7.00896e+01 -1.70857e+02        00000 
 1.00695e+02 -1.74543e+02        00000 
 1.33594e+02 -1.79295e+02        00000 
-1.57815e+02 -2.53070e+02        00000 
-1.19875e+02 -2.49108e+02        00000 
-8.41881e+01 -2.46052e+02        00000 
-5.01409e+01 -2.44033e+02        00000 
-1.71564e+01 -2.43030e+02        00000 
 1.54750e+01 -2.43021e+02        00000 
 4.84062e+01 -2.43990e+02        00000 
 8.23095e+01 -2.46004e+02        00000 
 1.17874e+02 -2.49038e+02        00000 
 1.55716e+02 -2.52941e+02        00000 
-1.75681e+02 -3.35594e+02        00000 
-1.33696e+02 -3.32611e+02        00000 
-9.39749e+01 -3.30407e+02        00000 
-5.60014e+01 -3.29004e+02        00000 
-1.91407e+01 -3.28353e+02        00000 
 1.73372e+01 -3.28370e+02        00000 
 5.41483e+01 -3.29083e+02        00000 
 9.20293e+01 -3.30545e+02        00000 
 1.31661e+02 -3.32783e+02        00000 
 1.73661e+02 -3.35797e+02        00000 
-1.88920e+02 -4.25738e+02        00000 
-1.43622e+02 -4.23681e+02        00000 
-1.00722e+02 -4.22276e+02        00000 
-5.98759e+01 -4.21444e+02        00000 
-2.04108e+01 -4.21067e+02        00000 
 1.86379e+01 -4.21088e+02        00000 
 5.81916e+01 -4.21490e+02        00000 
 9.89790e+01 -4.22360e+02        00000 
 1.41737e+02 -4.23829e+02        00000 
 1.86837e+02 -4.25906e+02        00000 
-1.97747e+02 -5.21439e+02        00000 
-1.49609e+02 -5.20316e+02        00000 
-1.04370e+02 -5.19651e+02        00000 
-6.18188e+01 -5.19161e+02        00000 
-2.09079e+01 -5.18892e+02        00000 
 1.94453e+01 -5.18892e+02        00000 
 6.03541e+01 -5.19096e+02        00000 
 1.02834e+02 -5.19473e+02        00000 
 1.47823e+02 -5.20068e+02        00000 
 1.95887e+02 -5.21183e+02        00000 
-2.03529e+02 -6.26811e+02        00000 
-1.52090e+02 -6.23978e+02        00000 
-1.06115e+02 -6.20633e+02        00000 
-6.29422e+01 -6.18063e+02        00000 
-2.12349e+01 -6.16637e+02        00000 
 1.98314e+01 -6.16488e+02        00000 
 6.14049e+01 -6.17719e+02        00000 
 1.04542e+02 -6.20240e+02        00000 
 1.50483e+02 -6.23586e+02        00000 
 2.01584e+02 -6.26404e+02        00000 
-1.71246e+01 -1.36597e+01        00000 
-1.09287e+01 -8.28856e+00        00000 
-6.81181e+00 -5.66995e+00        00000 
-3.34776e+00 -4.36225e+00        00000 
-9.44094e-02 -3.92285e+00        00000 
 3.17954e+00 -4.22674e+00        00000 
 6.70584e+00 -5.42273e+00        00000 
 1.08420e+01 -8.00701e+00        00000 
 1.69473e+01 -1.33368e+01        00000 
-5.14007e+01 -4.44946e+01        00000 
-3.58972e+01 -3.82341e+01        00000 
-2.27908e+01 -3.37826e+01        00000 
-1.12169e+01 -3.11656e+01        00000 
-3.04754e-01 -3.02604e+01        00000 
 1.06349e+01 -3.09855e+01        00000 
 2.23176e+01 -3.34493e+01        00000 
 3.55262e+01 -3.77846e+01        00000 
 5.10006e+01 -4.39435e+01        00000 
-8.09418e+01 -8.74694e+01        00000 
-5.85803e+01 -8.19972e+01        00000 
-3.80947e+01 -7.79861e+01        00000 
-1.89668e+01 -7.55584e+01        00000 
-5.31410e-01 -7.47258e+01        00000 
 1.79431e+01 -7.54681e+01        00000 
 3.70893e+01 -7.78133e+01        00000 
 5.76901e+01 -8.16718e+01        00000 
 8.02658e+01 -8.70214e+01        00000 
-1.06947e+02 -1.43810e+02        00000 
-7.81505e+01 -1.39132e+02        00000 
-5.12429e+01 -1.35780e+02        00000 
-2.55650e+01 -1.33791e+02        00000 
-6.59380e-01 -1.33151e+02        00000 
 2.42526e+01 -1.33820e+02        00000 
 4.98195e+01 -1.35848e+02        00000 
 7.66962e+01 -1.39189e+02        00000 
 1.05565e+02 -1.43761e+02        00000 
-1.29052e+02 -2.12514e+02        00000 
-9.46469e+01 -2.08632e+02        00000 
-6.22393e+01 -2.05877e+02        00000 
-3.11469e+01 -2.04245e+02        00000 
-7.85094e-01 -2.03700e+02        00000 
 2.95828e+01 -2.04265e+02        00000 
 6.05461e+01 -2.05943e+02        00000 
 9.28526e+01 -2.08723e+02        00000 
 1.27135e+02 -2.12578e+02        00000 
-1.46973e+02 -2.91471e+02        00000 
-1.08108e+02 -2.88397e+02        00000 
-7.12152e+01 -2.86223e+02        00000 
-3.56726e+01 -2.84930e+02        00000 
-8.75367e-01 -2.84495e+02        00000 
 3.38897e+01 -2.84935e+02        00000 
 6.93203e+01 -2.86223e+02        00000 
 1.06134e+02 -2.88437e+02        00000 
 1.44895e+02 -2.91544e+02        00000 
-1.60694e+02 -3.78501e+02        00000 
-1.18175e+02 -3.76351e+02        00000 
-7.77831e+01 -3.74934e+02        00000 
-3.89330e+01 -3.74153e+02        00000 
-9.30305e-01 -3.73899e+02        00000 
 3.70937e+01 -3.74166e+02        00000 
 7.59230e+01 -3.75001e+02        00000 
 1.16242e+02 -3.76502e+02        00000 
 1.58687e+02 -3.78709e+02        00000 
-1.70164e+02 -4.72072e+02        00000 
-1.24730e+02 -4.70798e+02        00000 
-8.17677e+01 -4.70047e+02        00000 
-4.07915e+01 -4.69630e+02        00000 
-8.09923e-01 -4.69491e+02        00000 
 3.92294e+01 -4.69590e+02        00000 
 8.02522e+01 -4.69993e+02        00000 
 1.23046e+02 -4.70758e+02        00000 
 1.68250e+02 -4.72000e+02        00000 
-1.75475e+02 -5.71276e+02        00000 
-1.27621e+02 -5.70468e+02        00000 
-8.34654e+01 -5.69427e+02        00000 
-4.15214e+01 -5.68579e+02        00000 
-6.83975e-01 -5.68224e+02        00000 
 4.00773e+01 -5.68454e+02        00000 
 8.19255e+01 -5.69171e+02        00000 
 1.26014e+02 -5.70134e+02        00000 
 1.73702e+02 -5.71010e+02        00000 
 1.04643e-15 -1.02042e-16        00000 
-9.34433e+00 -7.15678e+00        00000 
-7.09644e+00 -5.04055e+00        00000 
 4.37761e-16  6.96431e-16        00000 
-5.72831e+00 -3.70303e+00        00000 
-4.63980e+00 -2.79729e+00        00000 
 4.99600e-16  1.24900e-16        00000 
-3.69686e+00 -2.16523e+00        00000 
-2.81361e+00 -1.72025e+00        00000 
-2.98974e-16  2.25203e-17        00000 
-2.00725e+00 -1.39877e+00        00000 
-1.19444e+00 -1.18723e+00        00000 
-4.68375e-17 -3.74700e-16        00000 
-4.15910e-01 -1.07801e+00        00000 
 3.54168e-01 -1.06169e+00        00000 
 7.22104e-17  1.80598e-16        00000 
 1.13636e+00 -1.13483e+00        00000 
 1.93544e+00 -1.29936e+00        00000 
 8.74301e-16 -3.12250e-16        00000 
 2.76600e+00 -1.57328e+00        00000 
 3.65486e+00 -2.01573e+00        00000 
       00000  4.99600e-16        00000 
 4.60469e+00 -2.64364e+00        00000 
 5.67795e+00 -3.54757e+00        00000 
-1.33182e-15  1.52068e-15        00000 
 7.02932e+00 -4.87472e+00        00000 
 9.23918e+00 -6.98460e+00        00000 
-3.51690e+01 -2.80607e+01        00000 
-4.72778e+01 -3.79217e+01        00000 
-3.97367e+01 -3.41805e+01        00000 
-2.34753e+01 -2.15486e+01        00000 
-3.28874e+01 -3.09019e+01        00000 
-2.68179e+01 -2.81821e+01        00000 
-1.46773e+01 -1.74416e+01        00000 
-2.13157e+01 -2.59861e+01        00000 
-1.62553e+01 -2.43099e+01        00000 
-7.17744e+00 -1.52104e+01        00000 
-1.14888e+01 -2.30779e+01        00000 
-6.93118e+00 -2.22574e+01        00000 
-2.02919e-01 -1.44446e+01        00000 
-2.47007e+00 -2.18178e+01        00000 
 1.96609e+00 -2.17651e+01        00000 
 6.80740e+00 -1.50400e+01        00000 
 6.44684e+00 -2.21080e+01        00000 
 1.10318e+01 -2.28478e+01        00000 
 1.43908e+01 -1.71374e+01        00000 
 1.58483e+01 -2.40065e+01        00000 
 2.09616e+01 -2.56253e+01        00000 
 2.32471e+01 -2.11239e+01        00000 
 2.65012e+01 -2.77609e+01        00000 
 3.25865e+01 -3.04505e+01        00000 
 3.48314e+01 -2.75508e+01        00000 
 3.93943e+01 -3.36705e+01        00000 
 4.68730e+01 -3.73787e+01        00000 
-6.66034e+01 -6.43043e+01        00000 
-7.93900e+01 -7.73028e+01        00000 
-6.85054e+01 -7.39920e+01        00000 
-4.76259e+01 -5.84319e+01        00000 
-5.81730e+01 -7.10972e+01        00000 
-4.83556e+01 -6.86058e+01        00000 
-3.07061e+01 -5.41147e+01        00000 
-3.89899e+01 -6.65039e+01        00000 
-3.00200e+01 -6.48275e+01        00000 
-1.51913e+01 -5.15053e+01        00000 
-2.13630e+01 -6.35735e+01        00000 
-1.29205e+01 -6.27226e+01        00000 
-4.00097e-01 -5.05767e+01        00000 
-4.63106e+00 -6.22726e+01        00000 
 3.67736e+00 -6.22394e+01        00000 
 1.43910e+01 -5.13553e+01        00000 
 1.19885e+01 -6.26231e+01        00000 
 2.04391e+01 -6.34305e+01        00000 
 2.99597e+01 -5.38377e+01        00000 
 2.91329e+01 -6.46470e+01        00000 
 3.81350e+01 -6.62463e+01        00000 
 4.70255e+01 -5.79683e+01        00000 
 4.75614e+01 -6.82445e+01        00000 
 5.74710e+01 -7.06570e+01        00000 
 6.61208e+01 -6.36770e+01        00000 
 6.79051e+01 -7.34761e+01        00000 
 7.88812e+01 -7.67332e+01        00000 
-9.44102e+01 -1.13995e+02        00000 
-1.07955e+02 -1.30108e+02        00000 
-9.37761e+01 -1.27229e+02        00000 
-6.87584e+01 -1.08936e+02        00000 
-8.01688e+01 -1.24748e+02        00000 
-6.70556e+01 -1.22639e+02        00000 
-4.49538e+01 -1.05269e+02        00000 
-5.43676e+01 -1.20872e+02        00000 
-4.20332e+01 -1.19468e+02        00000 
-2.24344e+01 -1.03060e+02        00000 
-2.99809e+01 -1.18429e+02        00000 
-1.81441e+01 -1.17742e+02        00000 
-6.14635e-01 -1.02338e+02        00000 
-6.46456e+00 -1.17390e+02        00000 
 5.19910e+00 -1.17399e+02        00000 
 2.12115e+01 -1.03052e+02        00000 
 1.68896e+01 -1.17757e+02        00000 
 2.86869e+01 -1.18454e+02        00000 
 4.36773e+01 -1.05230e+02        00000 
 4.07061e+01 -1.19498e+02        00000 
 5.29910e+01 -1.20901e+02        00000 
 6.75661e+01 -1.08804e+02        00000 
 6.57076e+01 -1.22622e+02        00000 
 7.88731e+01 -1.24693e+02        00000 
 9.33796e+01 -1.13725e+02        00000 
 9.25618e+01 -1.27102e+02        00000 
 1.06801e+02 -1.29913e+02        00000 
-1.18523e+02 -1.76717e+02        00000 
-1.32560e+02 -1.95622e+02        00000 
-1.15439e+02 -1.93198e+02        00000 
-8.67733e+01 -1.72424e+02        00000 
-9.88717e+01 -1.91111e+02        00000 
-8.28786e+01 -1.89357e+02        00000 
-5.69944e+01 -1.69388e+02        00000 
-6.73231e+01 -1.87907e+02        00000 
-5.21212e+01 -1.86759e+02        00000 
-2.84729e+01 -1.67565e+02        00000 
-3.72076e+01 -1.85911e+02        00000 
-2.25382e+01 -1.85337e+02        00000 
-7.36822e-01 -1.66982e+02        00000 
-8.00776e+00 -1.85061e+02        00000 
 6.49158e+00 -1.85070e+02        00000 
 2.70258e+01 -1.67617e+02        00000 
 2.10279e+01 -1.85380e+02        00000 
 3.56905e+01 -1.85969e+02        00000 
 5.54419e+01 -1.69464e+02        00000 
 5.05373e+01 -1.86850e+02        00000 
 6.56776e+01 -1.88011e+02        00000 
 8.51234e+01 -1.72552e+02        00000 
 8.11840e+01 -1.89491e+02        00000 
 9.71329e+01 -1.91258e+02        00000 
 1.16834e+02 -1.76792e+02        00000 
 1.13648e+02 -1.93312e+02        00000 
 1.30734e+02 -1.95687e+02        00000 
-1.38527e+02 -2.50981e+02        00000 
-1.52701e+02 -2.72048e+02        00000 
-1.33197e+02 -2.70105e+02        00000 
-1.01784e+02 -2.47461e+02        00000 
-1.14303e+02 -2.68420e+02        00000 
-9.59241e+01 -2.66995e+02        00000 
-6.69790e+01 -2.44906e+02        00000 
-7.79925e+01 -2.65814e+02        00000 
-6.04367e+01 -2.64871e+02        00000 
-3.35489e+01 -2.43399e+02        00000 
-4.31843e+01 -2.64171e+02        00000 
-2.61694e+01 -2.63705e+02        00000 
-8.50386e-01 -2.42897e+02        00000 
-9.28893e+00 -2.63469e+02        00000 
 7.54722e+00 -2.63473e+02        00000 
 3.18606e+01 -2.43384e+02        00000 
 2.44354e+01 -2.63709e+02        00000 
 4.14182e+01 -2.64159e+02        00000 
 6.51923e+01 -2.44863e+02        00000 
 5.86189e+01 -2.64851e+02        00000 
 7.61065e+01 -2.65786e+02        00000 
 9.98573e+01 -2.47383e+02        00000 
 9.39773e+01 -2.66966e+02        00000 
 1.12326e+02 -2.68402e+02        00000 
 1.36448e+02 -2.50890e+02        00000 
 1.31146e+02 -2.70082e+02        00000 
 1.50612e+02 -2.72043e+02        00000 
-1.54384e+02 -3.34016e+02        00000 
-1.68472e+02 -3.56842e+02        00000 
-1.47037e+02 -3.55403e+02        00000 
-1.13577e+02 -3.31395e+02        00000 
-1.26194e+02 -3.54205e+02        00000 
-1.05902e+02 -3.53192e+02        00000 
-7.48308e+01 -3.29609e+02        00000 
-8.61129e+01 -3.52395e+02        00000 
-6.67367e+01 -3.51780e+02        00000 
-3.74913e+01 -3.28604e+02        00000 
-4.76770e+01 -3.51333e+02        00000 
-2.88781e+01 -3.51043e+02        00000 
-9.12783e-01 -3.28280e+02        00000 
-1.02064e+01 -3.50895e+02        00000 
 8.37474e+00 -3.50899e+02        00000 
 3.56427e+01 -3.28633e+02        00000 
 2.70276e+01 -3.51040e+02        00000 
 4.58339e+01 -3.51350e+02        00000 
 7.28901e+01 -3.29723e+02        00000 
 6.48526e+01 -3.51822e+02        00000 
 8.41855e+01 -3.52493e+02        00000 
 1.11580e+02 -3.31563e+02        00000 
 1.03960e+02 -3.53326e+02        00000 
 1.24206e+02 -3.54353e+02        00000 
 1.52321e+02 -3.34218e+02        00000 
 1.45020e+02 -3.55594e+02        00000 
 1.66436e+02 -3.57069e+02        00000 
-1.65943e+02 -4.24635e+02        00000 
-1.79752e+02 -4.48747e+02        00000 
-1.56768e+02 -4.47781e+02        00000 
-1.21895e+02 -4.22897e+02        00000 
-1.34388e+02 -4.47008e+02        00000 
-1.12628e+02 -4.46412e+02        00000 
-8.00708e+01 -4.21788e+02        00000 
-9.14164e+01 -4.45953e+02        00000 
-7.07193e+01 -4.45603e+02        00000 
-4.00308e+01 -4.21211e+02        00000 
-5.04572e+01 -4.45347e+02        00000 
-3.05302e+01 -4.45193e+02        00000 
-8.86438e-01 -4.21036e+02        00000 
-1.07220e+01 -4.45108e+02        00000 
 9.00795e+00 -4.45106e+02        00000 
 3.83061e+01 -4.21233e+02        00000 
 2.88313e+01 -4.45173e+02        00000 
 4.88341e+01 -4.45343e+02        00000 
 7.83967e+01 -4.21858e+02        00000 
 6.91295e+01 -4.45588e+02        00000 
 8.97842e+01 -4.45956e+02        00000 
 1.20076e+02 -4.23026e+02        00000 
 1.10914e+02 -4.46442e+02        00000 
 1.32588e+02 -4.47054e+02        00000 
 1.63976e+02 -4.24793e+02        00000 
 1.54877e+02 -4.47833e+02        00000 
 1.77753e+02 -4.48788e+02        00000 
-1.73394e+02 -5.20773e+02        00000 
-1.87011e+02 -5.46028e+02        00000 
-1.62388e+02 -5.45577e+02        00000 
-1.26610e+02 -5.19955e+02        00000 
-1.38699e+02 -5.45211e+02        00000 
-1.15906e+02 -5.44870e+02        00000 
-8.28230e+01 -5.19382e+02        00000 
-9.39136e+01 -5.44513e+02        00000 
-7.25629e+01 -5.44195e+02        00000 
-4.12429e+01 -5.18999e+02        00000 
-5.16889e+01 -5.43918e+02        00000 
-3.11548e+01 -5.43722e+02        00000 
-7.41868e-01 -5.18854e+02        00000 
-1.08329e+01 -5.43612e+02        00000 
 9.41406e+00 -5.43611e+02        00000 
 3.97546e+01 -5.18983e+02        00000 
 2.97153e+01 -5.43695e+02        00000 
 5.02175e+01 -5.43855e+02        00000 
 8.13474e+01 -5.19270e+02        00000 
 7.10599e+01 -5.44067e+02        00000 
 9.23998e+01 -5.44318e+02        00000 
 1.24960e+02 -5.19730e+02        00000 
 1.14321e+02 -5.44611e+02        00000 
 1.37022e+02 -5.44940e+02        00000 
 1.71545e+02 -5.20536e+02        00000 
 1.60607e+02 -5.45295e+02        00000 
 1.85204e+02 -5.45813e+02        00000 
-1.35672e+01 -1.04708e+01        00000 
-2.36245e+01 -1.89219e+01        00000 
-8.74391e+00 -6.76596e+00        00000 
-1.53471e+01 -1.33610e+01        00000 
-5.03814e+00 -4.88559e+00        00000 
-9.24006e+00 -1.03051e+01        00000 
-1.69971e+00 -4.05161e+00        00000 
-3.93167e+00 -8.80250e+00        00000 
 1.53204e+00 -3.98552e+00        00000 
 1.11385e+00 -8.44349e+00        00000 
 4.89655e+00 -4.68755e+00        00000 
 6.27517e+00 -9.20154e+00        00000 
 8.66909e+00 -6.49412e+00        00000 
 1.19726e+01 -1.12958e+01        00000 
 1.34322e+01 -1.01783e+01        00000 
 1.89120e+01 -1.53639e+01        00000 
 2.32786e+01 -1.80162e+01        00000 
 2.93874e+01 -2.25560e+01        00000 
-4.33337e+01 -4.11777e+01        00000 
-5.45726e+01 -5.24008e+01        00000 
-2.91050e+01 -3.57744e+01        00000 
-3.79027e+01 -4.66518e+01        00000 
-1.68861e+01 -3.22529e+01        00000 
-2.33072e+01 -4.26550e+01        00000 
-5.72732e+00 -3.05060e+01        00000 
-9.96474e+00 -4.04425e+01        00000 
 5.11298e+00 -3.04181e+01        00000 
 2.83985e+00 -3.99402e+01        00000 
 1.63295e+01 -3.19981e+01        00000 
 1.58480e+01 -4.11386e+01        00000 
 2.86811e+01 -3.53743e+01        00000 
 2.98194e+01 -4.40671e+01        00000 
 4.29455e+01 -4.06687e+01        00000 
 4.54970e+01 -4.87888e+01        00000 
 5.96293e+01 -4.75482e+01        00000 
 6.33779e+01 -5.52922e+01        00000 
-6.95061e+01 -8.45516e+01        00000 
-8.15899e+01 -9.89468e+01        00000 
-4.81332e+01 -7.97999e+01        00000 
-5.80759e+01 -9.39568e+01        00000 
-2.84122e+01 -7.65652e+01        00000 
-3.62734e+01 -9.04871e+01        00000 
-9.72361e+00 -7.49419e+01        00000 
-1.56584e+01 -8.85597e+01        00000 
 8.66306e+00 -7.48915e+01        00000 
 4.46136e+00 -8.81504e+01        00000 
 2.73817e+01 -7.64460e+01        00000 
 2.47424e+01 -8.92574e+01        00000 
 4.71644e+01 -7.95479e+01        00000 
 4.58618e+01 -9.18802e+01        00000 
 6.87158e+01 -8.41647e+01        00000 
 6.85882e+01 -9.60001e+01        00000 
 9.23937e+01 -9.01699e+01        00000 
 9.33492e+01 -1.01633e+02        00000 
-9.22828e+01 -1.41295e+02        00000 
-1.05070e+02 -1.58721e+02        00000 
-6.45053e+01 -1.37287e+02        00000 
-7.53264e+01 -1.54489e+02        00000 
-3.82876e+01 -1.34606e+02        00000 
-4.73088e+01 -1.51612e+02        00000 
-1.30763e+01 -1.33304e+02        00000 
-2.04231e+01 -1.50039e+02        00000 
 1.17666e+01 -1.33319e+02        00000 
 5.87653e+00 -1.49726e+02        00000 
 3.69083e+01 -1.34657e+02        00000 
 3.23266e+01 -1.50696e+02        00000 
 6.30452e+01 -1.37368e+02        00000 
 5.96203e+01 -1.52960e+02        00000 
 9.08610e+01 -1.41313e+02        00000 
 8.83702e+01 -1.56517e+02        00000 
 1.20929e+02 -1.46466e+02        00000 
 1.19259e+02 -1.61378e+02        00000 
-1.11578e+02 -2.10442e+02        00000 