<?xml version="1.0" encoding="utf-8"?>
<VTKFile byte_order="LittleEndian" type="UnstructuredGrid" version="0.1">
   <UnstructuredGrid>
      <Piece NumberOfCells="1296" NumberOfPoints="685">
         <Points>
            <DataArray Name="Points" NumberOfComponents="3" format="ascii" type="Float32">
0.0000 0.0000 0.0000
0.0000 0.1111 0.0000
0.0000 0.2222 0.0000
0.0000 0.3333 0.0000
0.0000 0.4444 0.0000
0.0000 0.5556 0.0000
0.0000 0.6667 0.0000
0.0000 0.7778 0.0000
0.0000 0.8889 0.0000
0.0000 1.0000 0.0000
0.2222 0.0000 0.0000
0.2222 0.1111 0.0000
0.2222 0.2222 0.0000
0.2222 0.3333 0.0000
0.2222 0.4444 0.0000
0.2222 0.5556 0.0000
0.2222 0.6667 0.0000
0.2222 0.7778 0.0000
0.2222 0.8889 0.0000
0.2222 1.0000 0.0000
0.4444 0.0000 0.0000
0.4444 0.1111 0.0000
0.4444 0.2222 0.0000
0.4444 0.3333 0.0000
0.4444 0.4444 0.0000
0.4444 0.5556 0.0000
0.4444 0.6667 0.0000
0.4444 0.7778 0.0000
0.4444 0.8889 0.0000
0.4444 1.0000 0.0000
0.6667 0.0000 0.0000
0.6667 0.1111 0.0000
0.6667 0.2222 0.0000
0.6667 0.3333 0.0000
0.6667 0.4444 0.0000
0.6667 0.5556 0.0000
0.6667 0.6667 0.0000
0.6667 0.7778 0.0000
0.6667 0.8889 0.0000
0.6667 1.0000 0.0000
0.8889 0.0000 0.0000
0.8889 0.1111 0.0000
0.8889 0.2222 0.0000
0.8889 0.3333 0.0000
0.8889 0.4444 0.0000
0.8889 0.5556 0.0000
0.8889 0.6667 0.0000
0.8889 0.7778 0.0000
0.8889 0.8889 0.0000
0.8889 1.0000 0.0000
1.1111 0.0000 0.0000
1.1111 0.1111 0.0000
1.1111 0.2222 0.0000
1.1111 0.3333 0.0000
1.1111 0.4444 0.0000
1.1111 0.5556 0.0000
1.1111 0.6667 0.0000
1.1111 0.7778 0.0000
1.1111 0.8889 0.0000
1.1111 1.0000 0.0000
1.3333 0.0000 0.0000
1.3333 0.1111 0.0000
1.3333 0.2222 0.0000
1.3333 0.3333 0.0000
1.3333 0.4444 0.0000
1.3333 0.5556 0.0000
1.3333 0.6667 0.0000
1.3333 0.7778 0.0000
1.3333 0.8889 0.0000
1.3333 1.0000 0.0000
1.5556 0.0000 0.0000
1.5556 0.1111 0.0000
1.5556 0.2222 0.0000
1.5556 0.3333 0.0000
1.5556 0.4444 0.0000
1.5556 0.5556 0.0000
1.5556 0.6667 0.0000
1.5556 0.7778 0.0000
1.5556 0.8889 0.0000
1.5556 1.0000 0.0000
1.7778 0.0000 0.0000
1.7778 0.1111 0.0000
1.7778 0.2222 0.0000
1.7778 0.3333 0.0000
1.7778 0.4444 0.0000
1.7778 0.5556 0.0000
1.7778 0.6667 0.0000
1.7778 0.7778 0.0000
1.7778 0.8889 0.0000
1.7778 1.0000 0.0000
2.0000 0.0000 0.0000
2.0000 0.1111 0.0000
2.0000 0.2222 0.0000
2.0000 0.3333 0.0000
2.0000 0.4444 0.0000
2.0000 0.5556 0.0000
2.0000 0.6667 0.0000
2.0000 0.7778 0.0000
2.0000 0.8889 0.0000
2.0000 1.0000 0.0000
0.1111 0.0556 0.0000
0.1111 0.1667 0.0000
0.1111 0.2778 0.0000
0.1111 0.3889 0.0000
0.1111 0.5000 0.0000
0.1111 0.6111 0.0000
0.1111 0.7222 0.0000
0.1111 0.8333 0.0000
0.1111 0.9444 0.0000
0.3333 0.0556 0.0000
0.3333 0.1667 0.0000
0.3333 0.2778 0.0000
0.3333 0.3889 0.0000
0.3333 0.5000 0.0000
0.3333 0.6111 0.0000
0.3333 0.7222 0.0000
0.3333 0.8333 0.0000
0.3333 0.9444 0.0000
0.5556 0.0556 0.0000
0.5556 0.1667 0.0000
0.5556 0.2778 0.0000
0.5556 0.3889 0.0000
0.5556 0.5000 0.0000
0.5556 0.6111 0.0000
0.5556 0.7222 0.0000
0.5556 0.8333 0.0000
0.5556 0.9444 0.0000
0.7778 0.0556 0.0000
0.7778 0.1667 0.0000
0.7778 0.2778 0.0000
0.7778 0.3889 0.0000
0.7778 0.5000 0.0000
0.7778 0.6111 0.0000
0.7778 0.7222 0.0000
0.7778 0.8333 0.0000
0.7778 0.9444 0.0000
1.0000 0.0556 0.0000
1.0000 0.1667 0.0000
1.0000 0.2778 0.0000
1.0000 0.3889 0.0000
1.0000 0.5000 0.0000
1.0000 0.6111 0.0000
1.0000 0.7222 0.0000
1.0000 0.8333 0.0000
1.0000 0.9444 0.0000
1.2222 0.0556 0.0000
1.2222 0.1667 0.0000
1.2222 0.2778 0.0000
1.2222 0.3889 0.0000
1.2222 0.5000 0.0000
1.2222 0.6111 0.0000
1.2222 0.7222 0.0000
1.2222 0.8333 0.0000
1.2222 0.9444 0.0000
1.4444 0.0556 0.0000
1.4444 0.1667 0.0000
1.4444 0.2778 0.0000
1.4444 0.3889 0.0000
1.4444 0.5000 0.0000
1.4444 0.6111 0.0000
1.4444 0.7222 0.0000
1.4444 0.8333 0.0000
1.4444 0.9444 0.0000
1.6667 0.0556 0.0000
1.6667 0.1667 0.0000
1.6667 0.2778 0.0000
1.6667 0.3889 0.0000
1.6667 0.5000 0.0000
1.6667 0.6111 0.0000
1.6667 0.7222 0.0000
1.6667 0.8333 0.0000
1.6667 0.9444 0.0000
1.8889 0.0556 0.0000
1.8889 0.1667 0.0000
1.8889 0.2778 0.0000
1.8889 0.3889 0.0000
1.8889 0.5000 0.0000
1.8889 0.6111 0.0000
1.8889 0.7222 0.0000
1.8889 0.8333 0.0000
1.8889 0.9444 0.0000
0.0000 0.0556 0.0000
0.0556 0.0278 0.0000
0.0556 0.0833 0.0000
0.0000 0.1667 0.0000
0.0556 0.1389 0.0000
0.0556 0.1944 0.0000
0.0000 0.2778 0.0000
0.0556 0.2500 0.0000
0.0556 0.3056 0.0000
0.0000 0.3889 0.0000
0.0556 0.3611 0.0000
0.0556 0.4167 0.0000
0.0000 0.5000 0.0000
0.0556 0.4722 0.0000
0.0556 0.5278 0.0000
0.0000 0.6111 0.0000
0.0556 0.5833 0.0000
0.0556 0.6389 0.0000
0.0000 0.7222 0.0000
0.0556 0.6944 0.0000
0.0556 0.7500 0.0000
0.0000 0.8333 0.0000
0.0556 0.8056 0.0000
0.0556 0.8611 0.0000
0.0000 0.9444 0.0000
0.0556 0.9167 0.0000
0.0556 0.9722 0.0000
0.2222 0.0556 0.0000
0.2778 0.0278 0.0000
0.2778 0.0833 0.0000
0.2222 0.1667 0.0000
0.2778 0.1389 0.0000
0.2778 0.1944 0.0000
0.2222 0.2778 0.0000
0.2778 0.2500 0.0000
0.2778 0.3056 0.0000
0.2222 0.3889 0.0000
0.2778 0.3611 0.0000
0.2778 0.4167 0.0000
0.2222 0.5000 0.0000
0.2778 0.4722 0.0000
0.2778 0.5278 0.0000
0.2222 0.6111 0.0000
0.2778 0.5833 0.0000
0.2778 0.6389 0.0000
0.2222 0.7222 0.0000
0.2778 0.6944 0.0000
0.2778 0.7500 0.0000
0.2222 0.8333 0.0000
0.2778 0.8056 0.0000
0.2778 0.8611 0.0000
0.2222 0.9444 0.0000
0.2778 0.9167 0.0000
0.2778 0.9722 0.0000
0.4444 0.0556 0.0000
0.5000 0.0278 0.0000
0.5000 0.0833 0.0000
0.4444 0.1667 0.0000
0.5000 0.1389 0.0000
0.5000 0.1944 0.0000
0.4444 0.2778 0.0000
0.5000 0.2500 0.0000
0.5000 0.3056 0.0000
0.4444 0.3889 0.0000
0.5000 0.3611 0.0000
0.5000 0.4167 0.0000
0.4444 0.5000 0.0000
0.5000 0.4722 0.0000
0.5000 0.5278 0.0000
0.4444 0.6111 0.0000
0.5000 0.5833 0.0000
0.5000 0.6389 0.0000
0.4444 0.7222 0.0000
0.5000 0.6944 0.0000
0.5000 0.7500 0.0000
0.4444 0.8333 0.0000
0.5000 0.8056 0.0000
0.5000 0.8611 0.0000
0.4444 0.9444 0.0000
0.5000 0.9167 0.0000
0.5000 0.9722 0.0000
0.6667 0.0556 0.0000
0.7222 0.0278 0.0000
0.7222 0.0833 0.0000
0.6667 0.1667 0.0000
0.7222 0.1389 0.0000
0.7222 0.1944 0.0000
0.6667 0.2778 0.0000
0.7222 0.2500 0.0000
0.7222 0.3056 0.0000
0.6667 0.3889 0.0000
0.7222 0.3611 0.0000
0.7222 0.4167 0.0000
0.6667 0.5000 0.0000
0.7222 0.4722 0.0000
0.7222 0.5278 0.0000
0.6667 0.6111 0.0000
0.7222 0.5833 0.0000
0.7222 0.6389 0.0000
0.6667 0.7222 0.0000
0.7222 0.6944 0.0000
0.7222 0.7500 0.0000
0.6667 0.8333 0.0000
0.7222 0.8056 0.0000
0.7222 0.8611 0.0000
0.6667 0.9444 0.0000
0.7222 0.9167 0.0000
0.7222 0.9722 0.0000
0.8889 0.0556 0.0000
0.9444 0.0278 0.0000
0.9444 0.0833 0.0000
0.8889 0.1667 0.0000
0.9444 0.1389 0.0000
0.9444 0.1944 0.0000
0.8889 0.2778 0.0000
0.9444 0.2500 0.0000
0.9444 0.3056 0.0000
0.8889 0.3889 0.0000
0.9444 0.3611 0.0000
0.9444 0.4167 0.0000
0.8889 0.5000 0.0000
0.9444 0.4722 0.0000
0.9444 0.5278 0.0000
0.8889 0.6111 0.0000
0.9444 0.5833 0.0000
0.9444 0.6389 0.0000
0.8889 0.7222 0.0000
0.9444 0.6944 0.0000
0.9444 0.7500 0.0000
0.8889 0.8333 0.0000
0.9444 0.8056 0.0000
0.9444 0.8611 0.0000
0.8889 0.9444 0.0000
0.9444 0.9167 0.0000
0.9444 0.9722 0.0000
1.1111 0.0556 0.0000
1.1667 0.0278 0.0000
1.1667 0.0833 0.0000
1.1111 0.1667 0.0000
1.1667 0.1389 0.0000
1.1667 0.1944 0.0000
1.1111 0.2778 0.0000
1.1667 0.2500 0.0000
1.1667 0.3056 0.0000
1.1111 0.3889 0.0000
1.1667 0.3611 0.0000
1.1667 0.4167 0.0000
1.1111 0.5000 0.0000
1.1667 0.4722 0.0000
1.1667 0.5278 0.0000
1.1111 0.6111 0.0000
1.1667 0.5833 0.0000
1.1667 0.6389 0.0000
1.1111 0.7222 0.0000
1.1667 0.6944 0.0000
1.1667 0.7500 0.0000
1.1111 0.8333 0.0000
1.1667 0.8056 0.0000
1.1667 0.8611 0.0000
1.1111 0.9444 0.0000
1.1667 0.9167 0.0000
1.1667 0.9722 0.0000
1.3333 0.0556 0.0000
1.3889 0.0278 0.0000
1.3889 0.0833 0.0000
1.3333 0.1667 0.0000
1.3889 0.1389 0.0000
1.3889 0.1944 0.0000
1.3333 0.2778 0.0000
1.3889 0.2500 0.0000
1.3889 0.3056 0.0000
1.3333 0.3889 0.0000
1.3889 0.3611 0.0000
1.3889 0.4167 0.0000
1.3333 0.5000 0.0000
1.3889 0.4722 0.0000
1.3889 0.5278 0.0000
1.3333 0.6111 0.0000
1.3889 0.5833 0.0000
1.3889 0.6389 0.0000
1.3333 0.7222 0.0000
1.3889 0.6944 0.0000
1.3889 0.7500 0.0000
1.3333 0.8333 0.0000
1.3889 0.8056 0.0000
1.3889 0.8611 0.0000
1.3333 0.9444 0.0000
1.3889 0.9167 0.0000
1.3889 0.9722 0.0000
1.5556 0.0556 0.0000
1.6111 0.0278 0.0000
1.6111 0.0833 0.0000
1.5556 0.1667 0.0000
1.6111 0.1389 0.0000
1.6111 0.1944 0.0000
1.5556 0.2778 0.0000
1.6111 0.2500 0.0000
1.6111 0.3056 0.0000
1.5556 0.3889 0.0000
1.6111 0.3611 0.0000
1.6111 0.4167 0.0000
1.5556 0.5000 0.0000
1.6111 0.4722 0.0000
1.6111 0.5278 0.0000
1.5556 0.6111 0.0000
1.6111 0.5833 0.0000
1.6111 0.6389 0.0000
1.5556 0.7222 0.0000
1.6111 0.6944 0.0000
1.6111 0.7500 0.0000
1.5556 0.8333 0.0000
1.6111 0.8056 0.0000
1.6111 0.8611 0.0000
1.5556 0.9444 0.0000
1.6111 0.9167 0.0000
1.6111 0.9722 0.0000
1.7778 0.0556 0.0000
1.8333 0.0278 0.0000
1.8333 0.0833 0.0000
1.7778 0.1667 0.0000
1.8333 0.1389 0.0000
1.8333 0.1944 0.0000
1.7778 0.2778 0.0000
1.8333 0.2500 0.0000
1.8333 0.3056 0.0000
1.7778 0.3889 0.0000
1.8333 0.3611 0.0000
1.8333 0.4167 0.0000
1.7778 0.5000 0.0000
1.8333 0.4722 0.0000
1.8333 0.5278 0.0000
1.7778 0.6111 0.0000
1.8333 0.5833 0.0000
1.8333 0.6389 0.0000
1.7778 0.7222 0.0000
1.8333 0.6944 0.0000
1.8333 0.7500 0.0000
1.7778 0.8333 0.0000
1.8333 0.8056 0.0000
1.8333 0.8611 0.0000
1.7778 0.9444 0.0000
1.8333 0.9167 0.0000
1.8333 0.9722 0.0000
0.1111 0.1111 0.0000
0.1667 0.0833 0.0000
0.1111 0.2222 0.0000
0.1667 0.1944 0.0000
0.1111 0.3333 0.0000
0.1667 0.3056 0.0000
0.1111 0.4444 0.0000
0.1667 0.4167 0.0000
0.1111 0.5556 0.0000
0.1667 0.5278 0.0000
0.1111 0.6667 0.0000
0.1667 0.6389 0.0000
0.1111 0.7778 0.0000
0.1667 0.7500 0.0000
0.1111 0.8889 0.0000
0.1667 0.8611 0.0000
0.1111 1.0000 0.0000
0.1667 0.9722 0.0000
0.3333 0.1111 0.0000
0.3889 0.0833 0.0000
0.3333 0.2222 0.0000
0.3889 0.1944 0.0000
0.3333 0.3333 0.0000
0.3889 0.3056 0.0000
0.3333 0.4444 0.0000
0.3889 0.4167 0.0000
0.3333 0.5556 0.0000
0.3889 0.5278 0.0000
0.3333 0.6667 0.0000
0.3889 0.6389 0.0000
0.3333 0.7778 0.0000
0.3889 0.7500 0.0000
0.3333 0.8889 0.0000
0.3889 0.8611 0.0000
0.3333 1.0000 0.0000
0.3889 0.9722 0.0000
0.5556 0.1111 0.0000
[...]
         <PointData>
            <DataArray Name="fValues" NumberOfComponents="3" format="ascii" type="Float64">
-1.22377e-15 -1.83565e-15        00000 
-4.95205e-17 -3.13630e-16        00000 
 2.91484e-16 -1.86082e-16        00000 
-5.91809e-16  2.79465e-16        00000 
-4.75763e-17  3.35226e-18        00000 
-3.28783e-17 -1.80830e-16        00000 
 7.10667e-16  8.45786e-17        00000 
-6.24122e-16 -4.76304e-16        00000 
 3.96259e-16 -9.24603e-16        00000 
       00000        00000        00000 
-2.69345e+01 -1.78319e+01        00000 
-1.90268e+01 -1.30136e+01        00000 
-1.25334e+01 -9.77708e+00        00000 
-7.01976e+00 -8.12308e+00        00000 
-2.37404e+00 -7.48024e+00        00000 
 2.53809e+00 -7.79017e+00        00000 
 7.60437e+00 -9.05118e+00        00000 
 1.24062e+01 -1.13803e+01        00000 
 1.84483e+01 -1.51052e+01        00000 
 2.64354e+01 -2.00686e+01        00000 
-5.10541e+01 -3.97723e+01        00000 
-3.77672e+01 -3.53261e+01        00000 
-2.56554e+01 -3.20066e+01        00000 
-1.46521e+01 -2.96708e+01        00000 
-4.11171e+00 -2.87561e+01        00000 
 6.12119e+00 -2.91138e+01        00000 
 1.64037e+01 -3.05544e+01        00000 
 2.67981e+01 -3.31345e+01        00000 
 3.79908e+01 -3.64966e+01        00000 
 5.03265e+01 -4.10424e+01        00000 
-7.28274e+01 -7.28108e+01        00000 
-5.46913e+01 -6.87669e+01        00000 
-3.76880e+01 -6.55395e+01        00000 
-2.16876e+01 -6.33107e+01        00000 
-6.29087e+00 -6.19173e+01        00000 
 9.30373e+00 -6.14141e+01        00000 
 2.47062e+01 -6.22139e+01        00000 
 3.99648e+01 -6.40964e+01        00000 
 5.62191e+01 -6.71571e+01        00000 
 7.34951e+01 -7.14669e+01        00000 
-9.16320e+01 -1.14598e+02        00000 
-6.93629e+01 -1.11274e+02        00000 
-4.82713e+01 -1.08651e+02        00000 
-2.83483e+01 -1.06535e+02        00000 
-9.04434e+00 -1.05122e+02        00000 
 1.06106e+01 -1.04393e+02        00000 
 3.06256e+01 -1.04469e+02        00000 
 5.07852e+01 -1.05617e+02        00000 
 7.13958e+01 -1.07804e+02        00000 
 9.32350e+01 -1.11101e+02        00000 
-1.07511e+02 -1.63481e+02        00000 
-8.19108e+01 -1.60533e+02        00000 
-5.77689e+01 -1.58192e+02        00000 
-3.47581e+01 -1.56517e+02        00000 
-1.20916e+01 -1.55558e+02        00000 
 1.12335e+01 -1.55072e+02        00000 
 3.51415e+01 -1.55467e+02        00000 
 5.91049e+01 -1.56563e+02        00000 
 8.35591e+01 -1.58699e+02        00000 
 1.09432e+02 -1.61724e+02        00000 
-1.22655e+02 -2.20878e+02        00000 
-9.35802e+01 -2.18123e+02        00000 
-6.61348e+01 -2.16134e+02        00000 
-4.01099e+01 -2.14828e+02        00000 
-1.43513e+01 -2.14055e+02        00000 
 1.16207e+01 -2.13566e+02        00000 
 3.82515e+01 -2.13405e+02        00000 
 6.55501e+01 -2.14025e+02        00000 
 9.33764e+01 -2.15263e+02        00000 
 1.22405e+02 -2.17325e+02        00000 
-1.34846e+02 -2.83510e+02        00000 
-1.03076e+02 -2.81515e+02        00000 
-7.30229e+01 -2.80278e+02        00000 
-4.46261e+01 -2.79342e+02        00000 
-1.71227e+01 -2.78615e+02        00000 
 1.05624e+01 -2.78211e+02        00000 
 3.93070e+01 -2.78155e+02        00000 
 6.89930e+01 -2.78295e+02        00000 
 9.97565e+01 -2.78799e+02        00000 
 1.31762e+02 -2.80042e+02        00000 
-1.43889e+02 -3.49708e+02        00000 
-1.09677e+02 -3.48721e+02        00000 
-7.78085e+01 -3.48349e+02        00000 
-4.78238e+01 -3.47985e+02        00000 
-1.86737e+01 -3.47944e+02        00000 
 1.03176e+01 -3.48280e+02        00000 
 3.96184e+01 -3.48578e+02        00000 
 7.04713e+01 -3.48745e+02        00000 
 1.03408e+02 -3.48788e+02        00000 
 1.38658e+02 -3.49235e+02        00000 
-1.50139e+02 -4.27362e+02        00000 
-1.12306e+02 -4.24915e+02        00000 
-7.94847e+01 -4.22305e+02        00000 
-4.85707e+01 -4.20861e+02        00000 
-1.87678e+01 -4.20417e+02        00000 
 1.03940e+01 -4.20753e+02        00000 
 4.05181e+01 -4.22200e+02        00000 
 7.17093e+01 -4.24584e+02        00000 
 1.04930e+02 -4.27410e+02        00000 
 1.43198e+02 -4.29940e+02        00000 
-1.09800e+01 -7.58836e+00        00000 
-7.39102e+00 -4.01838e+00        00000 
-4.59677e+00 -2.42912e+00        00000 
-2.24369e+00 -1.85561e+00        00000 
 4.30368e-02 -1.70766e+00        00000 
 2.37222e+00 -2.07956e+00        00000 
 4.52070e+00 -3.34174e+00        00000 
 6.93049e+00 -5.18545e+00        00000 
 1.07655e+01 -8.69464e+00        00000 
-3.37458e+01 -2.48585e+01        00000 
-2.38347e+01 -2.08750e+01        00000 
-1.49143e+01 -1.81707e+01        00000 
-7.01182e+00 -1.67116e+01        00000 
 4.26881e-01 -1.66533e+01        00000 
 8.17069e+00 -1.76080e+01        00000 
 1.57606e+01 -1.94664e+01        00000 
 2.38985e+01 -2.26373e+01        00000 
 3.31807e+01 -2.69435e+01        00000 
-5.41258e+01 -5.26864e+01        00000 
-3.90205e+01 -4.88133e+01        00000 
-2.50536e+01 -4.60897e+01        00000 
-1.15160e+01 -4.44580e+01        00000 
 1.39822e+00 -4.38478e+01        00000 
 1.42741e+01 -4.44419e+01        00000 
 2.72730e+01 -4.60827e+01        00000 
 4.02603e+01 -4.87377e+01        00000 
 5.46212e+01 -5.24509e+01        00000 
-7.23212e+01 -9.09701e+01        00000 
-5.26633e+01 -8.74310e+01        00000 
-3.39642e+01 -8.48154e+01        00000 
-1.63707e+01 -8.30587e+01        00000 
 1.22363e+00 -8.21036e+01        00000 
 1.91842e+01 -8.17733e+01        00000 
 3.69585e+01 -8.26937e+01        00000 
 5.49339e+01 -8.49312e+01        00000 
 7.38808e+01 -8.80009e+01        00000 
-8.75636e+01 -1.36590e+02        00000 
-6.42050e+01 -1.33903e+02        00000 
-4.23356e+01 -1.31728e+02        00000 
-2.12142e+01 -1.30010e+02        00000 
 1.15387e-01 -1.28965e+02        00000 
 2.18364e+01 -1.28691e+02        00000 
 4.39100e+01 -1.29380e+02        00000 
 6.62872e+01 -1.31024e+02        00000 
 8.94747e+01 -1.33462e+02        00000 
-1.01407e+02 -1.89563e+02        00000 
-7.48625e+01 -1.87014e+02        00000 
-4.96527e+01 -1.85229e+02        00000 
-2.52972e+01 -1.84036e+02        00000 
-1.01917e+00 -1.83609e+02        00000 
 2.42212e+01 -1.83586e+02        00000 
 4.97958e+01 -1.83968e+02        00000 
 7.56850e+01 -1.85272e+02        00000 
 1.02303e+02 -1.87321e+02        00000 
-1.13583e+02 -2.50435e+02        00000 
-8.40254e+01 -2.48478e+02        00000 
-5.59618e+01 -2.47201e+02        00000 
-2.90651e+01 -2.46381e+02        00000 
-2.33276e+00 -2.45676e+02        00000 
 2.49651e+01 -2.45182e+02        00000 
 5.32727e+01 -2.45103e+02        00000 
 8.21547e+01 -2.45585e+02        00000 
 1.11897e+02 -2.46838e+02        00000 
-1.23192e+02 -3.15179e+02        00000 
-9.10252e+01 -3.14023e+02        00000 
-6.09847e+01 -3.13186e+02        00000 
-3.23446e+01 -3.12632e+02        00000 
-4.01496e+00 -3.12482e+02        00000 
 2.47284e+01 -3.12633e+02        00000 
 5.45215e+01 -3.12609e+02        00000 
 8.55910e+01 -3.12797e+02        00000 
 1.18456e+02 -3.13479e+02        00000 
-1.28858e+02 -3.85631e+02        00000 
-9.45073e+01 -3.85205e+02        00000 
-6.33725e+01 -3.84697e+02        00000 
-3.33781e+01 -3.84514e+02        00000 
-4.15471e+00 -3.84677e+02        00000 
 2.49493e+01 -3.84979e+02        00000 
 5.51768e+01 -3.85832e+02        00000 
 8.71334e+01 -3.86759e+02        00000 
 1.22143e+02 -3.87301e+02        00000 
-2.51904e-16 -5.95246e-16        00000 
-5.90211e+00 -4.10117e+00        00000 
-4.61504e+00 -2.74288e+00        00000 
 1.45022e-15  6.55514e-16        00000 
-3.76649e+00 -1.82339e+00        00000 
-3.17389e+00 -1.26230e+00        00000 
-4.99600e-16  6.24500e-17        00000 
-2.58492e+00 -8.23311e-01        00000 
-1.91776e+00 -5.48592e-01        00000 
-1.79421e-16 -9.42338e-17        00000 
-1.35418e+00 -4.23730e-01        00000 
-8.16095e-01 -3.07102e-01        00000 
-4.68375e-17 -9.36751e-17        00000 
-2.92912e-01 -3.25274e-01        00000 
 2.63826e-01 -3.79528e-01        00000 
-1.18444e-16 -2.01447e-16        00000 
 7.86547e-01 -5.09322e-01        00000 
 1.26675e+00 -6.65578e-01        00000 
 2.49800e-16  3.74700e-16        00000 
 1.82166e+00 -9.70070e-01        00000 
 2.39337e+00 -1.33211e+00        00000 
       00000 -3.74700e-16        00000 
 2.93720e+00 -1.76182e+00        00000 
 3.54337e+00 -2.38145e+00        00000 
 7.10676e-16  1.08129e-15        00000 
 4.41318e+00 -3.20284e+00        00000 
 5.86815e+00 -4.57876e+00        00000 
-2.28569e+01 -1.53434e+01        00000 
-3.07554e+01 -2.11348e+01        00000 
-2.61356e+01 -1.86916e+01        00000 
-1.56828e+01 -1.12122e+01        00000 
-2.18587e+01 -1.65831e+01        00000 
-1.78282e+01 -1.49571e+01        00000 
-9.62315e+00 -8.79972e+00        00000 
-1.40474e+01 -1.37003e+01        00000 
-1.05255e+01 -1.27421e+01        00000 
-4.58002e+00 -7.64960e+00        00000 
-7.31158e+00 -1.21198e+01        00000 
-4.34598e+00 -1.17885e+01        00000 
 5.91539e-03 -7.52095e+00        00000 
-1.37972e+00 -1.17422e+01        00000 
 1.76999e+00 -1.19192e+01        00000 
 5.10224e+00 -8.32508e+00        00000 
 5.00803e+00 -1.23795e+01        00000 
 8.23284e+00 -1.30510e+01        00000 
 1.00210e+01 -1.00778e+01        00000 
 1.12927e+01 -1.39134e+01        00000 
 1.44333e+01 -1.51066e+01        00000 
 1.52085e+01 -1.30362e+01        00000 
 1.77410e+01 -1.66322e+01        00000 
 2.14806e+01 -1.86248e+01        00000 
 2.22366e+01 -1.74823e+01        00000 
 2.55607e+01 -2.08757e+01        00000 
 2.99768e+01 -2.33995e+01        00000 
-4.42951e+01 -3.74862e+01        00000 
-5.29954e+01 -4.60166e+01        00000 
-4.56913e+01 -4.37146e+01        00000 
-3.15955e+01 -3.35636e+01        00000 
-3.87157e+01 -4.17293e+01        00000 
-3.20458e+01 -4.00436e+01        00000 
-2.01554e+01 -3.07072e+01        00000 
-2.57592e+01 -3.86217e+01        00000 
-1.96405e+01 -3.75516e+01        00000 
-9.32569e+00 -2.89800e+01        00000 
-1.34642e+01 -3.66980e+01        00000 
-7.44327e+00 -3.62036e+01        00000 
 1.02786e+00 -2.88501e+01        00000 
-1.55628e+00 -3.60129e+01        00000 
 4.10007e+00 -3.61463e+01        00000 
 1.11517e+01 -2.97169e+01        00000 
 9.82236e+00 -3.64910e+01        00000 
 1.56185e+01 -3.71709e+01        00000 
 2.15761e+01 -3.17232e+01        00000 
 2.14983e+01 -3.80842e+01        00000 
 2.73282e+01 -3.92687e+01        00000 
 3.22289e+01 -3.47081e+01        00000 
 3.32734e+01 -4.06263e+01        00000 
 3.94718e+01 -4.22923e+01        00000 
 4.40167e+01 -3.85931e+01        00000 
 4.59552e+01 -4.41874e+01        00000 
 5.28483e+01 -4.64873e+01        00000 
-6.35557e+01 -7.07858e+01        00000 
-7.28604e+01 -8.18362e+01        00000 
-6.32988e+01 -7.96363e+01        00000 
-4.60799e+01 -6.70740e+01        00000 
-5.39327e+01 -7.77905e+01        00000 
-4.49067e+01 -7.61572e+01        00000 
-2.95916e+01 -6.42818e+01        00000 
-3.60890e+01 -7.48872e+01        00000 
-2.76041e+01 -7.38426e+01        00000 
-1.39336e+01 -6.24993e+01        00000 
-1.92769e+01 -7.29665e+01        00000 
-1.10097e+01 -7.22434e+01        00000 
 1.48567e+00 -6.15537e+01        00000 
-2.76879e+00 -7.16571e+01        00000 
 5.60301e+00 -7.13797e+01        00000 
 1.70371e+01 -6.17386e+01        00000 
 1.39945e+01 -7.14171e+01        00000 
 2.22950e+01 -7.16335e+01        00000 
 3.23913e+01 -6.29819e+01        00000 
 3.05851e+01 -7.21905e+01        00000 
 3.88331e+01 -7.30733e+01        00000 
 4.79470e+01 -6.54708e+01        00000 
 4.72751e+01 -7.41995e+01        00000 
 5.59862e+01 -7.57157e+01        00000 
 6.46975e+01 -6.91113e+01        00000 
 6.48869e+01 -7.74753e+01        00000 
 7.40860e+01 -7.94347e+01        00000 
-8.02706e+01 -1.12941e+02        00000 
-8.98960e+01 -1.25511e+02        00000 
-7.82206e+01 -1.23743e+02        00000 
-5.87371e+01 -1.09913e+02        00000 
-6.70275e+01 -1.22351e+02        00000 
-5.60499e+01 -1.21130e+02        00000 
-3.81881e+01 -1.07491e+02        00000 
-4.54402e+01 -1.20051e+02        00000 
-3.51748e+01 -1.19045e+02        00000 
-1.87804e+01 -1.05672e+02        00000 
-2.50135e+01 -1.18112e+02        00000 
-1.49151e+01 -1.17422e+02        00000 
 7.25482e-01 -1.04684e+02        00000 
-4.63392e+00 -1.16813e+02        00000 
 5.54581e+00 -1.16472e+02        00000 
 2.06100e+01 -1.04416e+02        00000 
 1.59204e+01 -1.16398e+02        00000 
 2.64816e+01 -1.16385e+02        00000 
 4.05829e+01 -1.04914e+02        00000 
 3.70067e+01 -1.16702e+02        00000 
 4.76017e+01 -1.17275e+02        00000 
 6.10978e+01 -1.06596e+02        00000 
 5.84206e+01 -1.18021e+02        00000 
 6.91844e+01 -1.19067e+02        00000 
 8.20078e+01 -1.09259e+02        00000 
 8.01572e+01 -1.20396e+02        00000 
 9.16771e+01 -1.21935e+02        00000 
-9.46223e+01 -1.61960e+02        00000 
-1.04778e+02 -1.76314e+02        00000 
-9.14583e+01 -1.74816e+02        00000 
-6.96814e+01 -1.59299e+02        00000 
-7.85303e+01 -1.73472e+02        00000 
-6.60634e+01 -1.72313e+02        00000 
-4.62191e+01 -1.57287e+02        00000 
-5.39768e+01 -1.71427e+02        00000 
-4.20797e+01 -1.70571e+02        00000 
-2.34294e+01 -1.55920e+02        00000 
-3.02935e+01 -1.70005e+02        00000 
-1.85340e+01 -1.69621e+02        00000 
-5.95906e-01 -1.55281e+02        00000 
-6.71772e+00 -1.69261e+02        00000 
 5.22911e+00 -1.69155e+02        00000 
 2.31179e+01 -1.55204e+02        00000 
 1.75310e+01 -1.69168e+02        00000 
 2.98464e+01 -1.69291e+02        00000 
 4.70861e+01 -1.55946e+02        00000 
 4.22939e+01 -1.69547e+02        00000 
 5.47498e+01 -1.70036e+02        00000 
 7.12002e+01 -1.57524e+02        00000 
 6.72887e+01 -1.70728e+02        00000 
 7.99663e+01 -1.71720e+02        00000 
 9.62255e+01 -1.60129e+02        00000 
 9.28494e+01 -1.72924e+02        00000 
 1.06140e+02 -1.74380e+02        00000 
-1.07773e+02 -2.19461e+02        00000 
-1.18235e+02 -2.35507e+02        00000 
-1.03390e+02 -2.34202e+02        00000 
-7.97029e+01 -2.16989e+02        00000 
-8.89979e+01 -2.33125e+02        00000 
-7.49305e+01 -2.32237e+02        00000 
-5.29972e+01 -2.15406e+02        00000 
-6.12200e+01 -2.31531e+02        00000 
-4.78595e+01 -2.30980e+02        00000 
-2.72247e+01 -2.14431e+02        00000 
-3.47005e+01 -2.30564e+02        00000 
-2.16071e+01 -2.30147e+02        00000 
-1.42408e+00 -2.13831e+02        00000 
-8.46431e+00 -2.29811e+02        00000 
 4.76045e+00 -2.29473e+02        00000 
 2.48251e+01 -2.13434e+02        00000 
 1.81282e+01 -2.29245e+02        00000 
 3.17484e+01 -2.29113e+02        00000 
 5.18052e+01 -2.13635e+02        00000 
 4.56119e+01 -2.29116e+02        00000 
 5.96639e+01 -2.29291e+02        00000 
 7.93759e+01 -2.14562e+02        00000 
 7.37977e+01 -2.29670e+02        00000 
 8.80073e+01 -2.30219e+02        00000 
 1.07730e+02 -2.16247e+02        00000 
 1.02495e+02 -2.31000e+02        00000 
 1.17448e+02 -2.31889e+02        00000 
-1.18759e+02 -2.82416e+02        00000 
-1.29226e+02 -2.99198e+02        00000 
-1.13082e+02 -2.98230e+02        00000 
-8.78135e+01 -2.80834e+02        00000 
-9.72514e+01 -2.97499e+02        00000 
-8.19078e+01 -2.96985e+02        00000 
-5.86202e+01 -2.79799e+02        00000 
-6.71068e+01 -2.96515e+02        00000 
-5.27733e+01 -2.96108e+02        00000 
-3.09319e+01 -2.78992e+02        00000 
-3.86651e+01 -2.95731e+02        00000 
-2.47618e+01 -2.95526e+02        00000 
-3.38106e+00 -2.78321e+02        00000 
-1.07477e+01 -2.95296e+02        00000 
 3.30258e+00 -2.95198e+02        00000 
 2.47669e+01 -2.78126e+02        00000 
 1.75385e+01 -2.95222e+02        00000 
 3.21049e+01 -2.95213e+02        00000 
 5.39439e+01 -2.78144e+02        00000 
 4.69170e+01 -2.95242e+02        00000 
 6.18154e+01 -2.95355e+02        00000 
 8.42319e+01 -2.78437e+02        00000 
 7.71844e+01 -2.95456e+02        00000 
 9.28410e+01 -2.95630e+02        00000 
 1.15495e+02 -2.79286e+02        00000 
 1.08935e+02 -2.96027e+02        00000 
 1.25344e+02 -2.96619e+02        00000 
-1.26607e+02 -3.49084e+02        00000 
-1.36861e+02 -3.67259e+02        00000 
-1.19101e+02 -3.66873e+02        00000 
-9.33740e+01 -3.48527e+02        00000 
-1.02239e+02 -3.66677e+02        00000 
-8.61336e+01 -3.66521e+02        00000 
-6.25647e+01 -3.48179e+02        00000 
-7.06624e+01 -3.66406e+02        00000 
-5.55327e+01 -3.66232e+02        00000 
-3.31248e+01 -3.47880e+02        00000 
-4.07484e+01 -3.66173e+02        00000 
-2.60037e+01 -3.66156e+02        00000 
-4.17949e+00 -3.48072e+02        00000 
-1.14088e+01 -3.66335e+02        00000 
 3.09468e+00 -3.66459e+02        00000 
 2.47983e+01 -3.48419e+02        00000 
 1.75792e+01 -3.66609e+02        00000 
 3.22262e+01 -3.66815e+02        00000 
 5.48505e+01 -3.48713e+02        00000 
 4.71827e+01 -3.67085e+02        00000 
 6.27450e+01 -3.67267e+02        00000 
 8.66432e+01 -3.48786e+02        00000 
 7.87156e+01 -3.67430e+02        00000 
 9.52444e+01 -3.67592e+02        00000 
 1.20755e+02 -3.48921e+02        00000 
 1.12572e+02 -3.67672e+02        00000 
 1.30781e+02 -3.67980e+02        00000 
-8.93611e+00 -5.46941e+00        00000 
-1.54486e+01 -1.01637e+01        00000 
-5.99296e+00 -3.10082e+00        00000 
-1.03170e+01 -6.56734e+00        00000 
-3.30602e+00 -2.01901e+00        00000 
-6.06596e+00 -4.84222e+00        00000 
-1.10141e+00 -1.71265e+00        00000 
-2.58467e+00 -4.16514e+00        00000 
 1.11097e+00 -1.82735e+00        00000 
 8.77859e-01 -4.08473e+00        00000 
 3.41760e+00 -2.59907e+00        00000 
 4.60611e+00 -4.99525e+00        00000 
 5.67732e+00 -4.18018e+00        00000 
 8.07253e+00 -6.87114e+00        00000 
 8.52038e+00 -6.63108e+00        00000 
 1.21586e+01 -9.75472e+00        00000 
 1.47874e+01 -1.16553e+01        00000 
 1.85926e+01 -1.44961e+01        00000 
-2.86767e+01 -2.26876e+01        00000 
-3.61191e+01 -2.97112e+01        00000 
-1.92540e+01 -1.93983e+01        00000 
-2.50572e+01 -2.59913e+01        00000 
-1.08066e+01 -1.72297e+01        00000 
-1.50741e+01 -2.34183e+01        00000 
-3.33962e+00 -1.65434e+01        00000 
-5.88832e+00 -2.22041e+01        00000 
 4.31056e+00 -1.70381e+01        00000 
 2.94673e+00 -2.24055e+01        00000 
 1.19207e+01 -1.83749e+01        00000 
 1.18824e+01 -2.36644e+01        00000 
 1.97045e+01 -2.09314e+01        00000 
 2.09237e+01 -2.59429e+01        00000 
 2.83731e+01 -2.46372e+01        00000 
 3.06415e+01 -2.92634e+01        00000 
 3.81834e+01 -2.94199e+01        00000 
 4.14449e+01 -3.38258e+01        00000 
-4.64283e+01 -5.06255e+01        00000 
-5.47354e+01 -6.04567e+01        00000 
-3.19728e+01 -4.73445e+01        00000 
-3.86858e+01 -5.68440e+01        00000 
-1.82725e+01 -4.51770e+01        00000 
-2.36363e+01 -5.44149e+01        00000 
-4.97819e+00 -4.40394e+01        00000 
-9.14272e+00 -5.28873e+01        00000 
 7.72372e+00 -4.40187e+01        00000 
 4.97139e+00 -5.22683e+01        00000 
 2.07285e+01 -4.51558e+01        00000 
 1.92913e+01 -5.29671e+01        00000 
 3.36408e+01 -4.72838e+01        00000 
 3.33508e+01 -5.47244e+01        00000 
 4.71995e+01 -5.04410e+01        00000 
 4.79730e+01 -5.75327e+01        00000 
 6.23011e+01 -5.47368e+01        00000 
 6.38769e+01 -6.17049e+01        00000 
-6.23678e+01 -8.91243e+01        00000 
-7.11903e+01 -1.00916e+02        00000 
-4.31668e+01 -8.60465e+01        00000 
-5.07526e+01 -9.77918e+01        00000 
-2.51043e+01 -8.38460e+01        00000 
-3.13617e+01 -9.54653e+01        00000 
-7.58166e+00 -8.25376e+01        00000 
-1.29222e+01 -9.38471e+01        00000 
 1.01398e+01 -8.18324e+01        00000 
 5.53707e+00 -9.29655e+01        00000 
 2.80453e+01 -8.21355e+01        00000 
 2.47246e+01 -9.28865e+01        00000 
 4.58056e+01 -8.36791e+01        00000 
 4.35808e+01 -9.38284e+01        00000 
 6.42443e+01 -8.63727e+01        00000 
 6.30132e+01 -9.60430e+01        00000 
 8.37642e+01 -8.99487e+01        00000 
 8.33327e+01 -9.93020e+01        00000 
-7.56946e+01 -1.35153e+02        00000 