<?xml version="1.0" encoding="utf-8"?>
<VTKFile byte_order="LittleEndian" type="UnstructuredGrid" version="0.1">
   <UnstructuredGrid>
      <Piece NumberOfCells="1296" NumberOfPoints="685">
         <Points>
            <DataArray Name="Points" NumberOfComponents="3" format="ascii" type="Float32">
0.0000 0.0000 0.0000
0.0000 0.1111 0.0000
0.0000 0.2222 0.0000
0.0000 0.3333 0.0000
0.0000 0.4444 0.0000
0.0000 0.5556 0.0000
0.0000 0.6667 0.0000
0.0000 0.7778 0.0000
0.0000 0.8889 0.0000
0.0000 1.0000 0.0000
0.2222 0.0000 0.0000
0.2222 0.1111 0.0000
0.2222 0.2222 0.0000
0.2222 0.3333 0.0000
0.2222 0.4444 0.0000
0.2222 0.5556 0.0000
0.2222 0.6667 0.0000
0.2222 0.7778 0.0000
0.2222 0.8889 0.0000
0.2222 1.0000 0.0000
0.4444 0.0000 0.0000
0.4444 0.1111 0.0000
0.4444 0.2222 0.0000
0.4444 0.3333 0.0000
0.4444 0.4444 0.0000
0.4444 0.5556 0.0000
0.4444 0.6667 0.0000
0.4444 0.7778 0.0000
0.4444 0.8889 0.0000
0.4444 1.0000 0.0000
0.6667 0.0000 0.0000
0.6667 0.1111 0.0000
0.6667 0.2222 0.0000
0.6667 0.3333 0.0000
0.6667 0.4444 0.0000
0.6667 0.5556 0.0000
0.6667 0.6667 0.0000
0.6667 0.7778 0.0000
0.6667 0.8889 0.0000
0.6667 1.0000 0.0000
0.8889 0.0000 0.0000
0.8889 0.1111 0.0000
0.8889 0.2222 0.0000
0.8889 0.3333 0.0000
0.8889 0.4444 0.0000
0.8889 0.5556 0.0000
0.8889 0.6667 0.0000
0.8889 0.7778 0.0000
0.8889 0.8889 0.0000
0.8889 1.0000 0.0000
1.1111 0.0000 0.0000
1.1111 0.1111 0.0000
1.1111 0.2222 0.0000
1.1111 0.3333 0.0000
1.1111 0.4444 0.0000
1.1111 0.5556 0.0000
1.1111 0.6667 0.0000
1.1111 0.7778 0.0000
1.1111 0.8889 0.0000
1.1111 1.0000 0.0000
1.3333 0.0000 0.0000
1.3333 0.1111 0.0000
1.3333 0.2222 0.0000
1.3333 0.3333 0.0000
1.3333 0.4444 0.0000
1.3333 0.5556 0.0000
1.3333 0.6667 0.0000
1.3333 0.7778 0.0000
1.3333 0.8889 0.0000
1.3333 1.0000 0.0000
1.5556 0.0000 0.0000
1.5556 0.1111 0.0000
1.5556 0.2222 0.0000
1.5556 0.3333 0.0000
1.5556 0.4444 0.0000
1.5556 0.5556 0.0000
1.5556 0.6667 0.0000
1.5556 0.7778 0.0000
1.5556 0.8889 0.0000
1.5556 1.0000 0.0000
1.7778 0.0000 0.0000
1.7778 0.1111 0.0000
1.7778 0.2222 0.0000
1.7778 0.3333 0.0000
1.7778 0.4444 0.0000
1.7778 0.5556 0.0000
1.7778 0.6667 0.0000
1.7778 0.7778 0.0000
1.7778 0.8889 0.0000
1.7778 1.0000 0.0000
2.0000 0.0000 0.0000
2.0000 0.1111 0.0000
2.0000 0.2222 0.0000
2.0000 0.3333 0.0000
2.0000 0.4444 0.0000
2.0000 0.5556 0.0000
2.0000 0.6667 0.0000
2.0000 0.7778 0.0000
2.0000 0.8889 0.0000
2.0000 1.0000 0.0000
0.1111 0.0556 0.0000
0.1111 0.1667 0.0000
0.1111 0.2778 0.0000
0.1111 0.3889 0.0000
0.1111 0.5000 0.0000
0.1111 0.6111 0.0000
0.1111 0.7222 0.0000
0.1111 0.8333 0.0000
0.1111 0.9444 0.0000
0.3333 0.0556 0.0000
0.3333 0.1667 0.0000
0.3333 0.2778 0.0000
0.3333 0.3889 0.0000
0.3333 0.5000 0.0000
0.3333 0.6111 0.0000
0.3333 0.7222 0.0000
0.3333 0.8333 0.0000
0.3333 0.9444 0.0000
0.5556 0.0556 0.0000
0.5556 0.1667 0.0000
0.5556 0.2778 0.0000
0.5556 0.3889 0.0000
0.5556 0.5000 0.0000
0.5556 0.6111 0.0000
0.5556 0.7222 0.0000
0.5556 0.8333 0.0000
0.5556 0.9444 0.0000
0.7778 0.0556 0.0000
0.7778 0.1667 0.0000
0.7778 0.2778 0.0000
0.7778 0.3889 0.0000
0.7778 0.5000 0.0000
0.7778 0.6111 0.0000
0.7778 0.7222 0.0000
0.7778 0.8333 0.0000
0.7778 0.9444 0.0000
1.0000 0.0556 0.0000
1.0000 0.1667 0.0000
1.0000 0.2778 0.0000
1.0000 0.3889 0.0000
1.0000 0.5000 0.0000
1.0000 0.6111 0.0000
1.0000 0.7222 0.0000
1.0000 0.8333 0.0000
1.0000 0.9444 0.0000
1.2222 0.0556 0.0000
1.2222 0.1667 0.0000
1.2222 0.2778 0.0000
1.2222 0.3889 0.0000
1.2222 0.5000 0.0000
1.2222 0.6111 0.0000
1.2222 0.7222 0.0000
1.2222 0.8333 0.0000
1.2222 0.9444 0.0000
1.4444 0.0556 0.0000
1.4444 0.1667 0.0000
1.4444 0.2778 0.0000
1.4444 0.3889 0.0000
1.4444 0.5000 0.0000
1.4444 0.6111 0.0000
1.4444 0.7222 0.0000
1.4444 0.8333 0.0000
1.4444 0.9444 0.0000
1.6667 0.0556 0.0000
1.6667 0.1667 0.0000
1.6667 0.2778 0.0000
1.6667 0.3889 0.0000
1.6667 0.5000 0.0000
1.6667 0.6111 0.0000
1.6667 0.7222 0.0000
1.6667 0.8333 0.0000
1.6667 0.9444 0.0000
1.8889 0.0556 0.0000
1.8889 0.1667 0.0000
1.8889 0.2778 0.0000
1.8889 0.3889 0.0000
1.8889 0.5000 0.0000
1.8889 0.6111 0.0000
1.8889 0.7222 0.0000
1.8889 0.8333 0.0000
1.8889 0.9444 0.0000
0.0000 0.0556 0.0000
0.0556 0.0278 0.0000
0.0556 0.0833 0.0000
0.0000 0.1667 0.0000
0.0556 0.1389 0.0000
0.0556 0.1944 0.0000
0.0000 0.2778 0.0000
0.0556 0.2500 0.0000
0.0556 0.3056 0.0000
0.0000 0.3889 0.0000
0.0556 0.3611 0.0000
0.0556 0.4167 0.0000
0.0000 0.5000 0.0000
0.0556 0.4722 0.0000
0.0556 0.5278 0.0000
0.0000 0.6111 0.0000
0.0556 0.5833 0.0000
0.0556 0.6389 0.0000
0.0000 0.7222 0.0000
0.0556 0.6944 0.0000
0.0556 0.7500 0.0000
0.0000 0.8333 0.0000
0.0556 0.8056 0.0000
0.0556 0.8611 0.0000
0.0000 0.9444 0.0000
0.0556 0.9167 0.0000
0.0556 0.9722 0.0000
0.2222 0.0556 0.0000
0.2778 0.0278 0.0000
0.2778 0.0833 0.0000
0.2222 0.1667 0.0000
0.2778 0.1389 0.0000
0.2778 0.1944 0.0000
0.2222 0.2778 0.0000
0.2778 0.2500 0.0000
0.2778 0.3056 0.0000
0.2222 0.3889 0.0000
0.2778 0.3611 0.0000
0.2778 0.4167 0.0000
0.2222 0.5000 0.0000
0.2778 0.4722 0.0000
0.2778 0.5278 0.0000
0.2222 0.6111 0.0000
0.2778 0.5833 0.0000
0.2778 0.6389 0.0000
0.2222 0.7222 0.0000
0.2778 0.6944 0.0000
0.2778 0.7500 0.0000
0.2222 0.8333 0.0000
0.2778 0.8056 0.0000
0.2778 0.8611 0.0000
0.2222 0.9444 0.0000
0.2778 0.9167 0.0000
0.2778 0.9722 0.0000
0.4444 0.0556 0.0000
0.5000 0.0278 0.0000
0.5000 0.0833 0.0000
0.4444 0.1667 0.0000
0.5000 0.1389 0.0000
0.5000 0.1944 0.0000
0.4444 0.2778 0.0000
0.5000 0.2500 0.0000
0.5000 0.3056 0.0000
0.4444 0.3889 0.0000
0.5000 0.3611 0.0000
0.5000 0.4167 0.0000
0.4444 0.5000 0.0000
0.5000 0.4722 0.0000
0.5000 0.5278 0.0000
0.4444 0.6111 0.0000
0.5000 0.5833 0.0000
0.5000 0.6389 0.0000
0.4444 0.7222 0.0000
0.5000 0.6944 0.0000
0.5000 0.7500 0.0000
0.4444 0.8333 0.0000
0.5000 0.8056 0.0000
0.5000 0.8611 0.0000
0.4444 0.9444 0.0000
0.5000 0.9167 0.0000
0.5000 0.9722 0.0000
0.6667 0.0556 0.0000
0.7222 0.0278 0.0000
0.7222 0.0833 0.0000
0.6667 0.1667 0.0000
0.7222 0.1389 0.0000
0.7222 0.1944 0.0000
0.6667 0.2778 0.0000
0.7222 0.2500 0.0000
0.7222 0.3056 0.0000
0.6667 0.3889 0.0000
0.7222 0.3611 0.0000
0.7222 0.4167 0.0000
0.6667 0.5000 0.0000
0.7222 0.4722 0.0000
0.7222 0.5278 0.0000
0.6667 0.6111 0.0000
0.7222 0.5833 0.0000
0.7222 0.6389 0.0000
0.6667 0.7222 0.0000
0.7222 0.6944 0.0000
0.7222 0.7500 0.0000
0.6667 0.8333 0.0000
0.7222 0.8056 0.0000
0.7222 0.8611 0.0000
0.6667 0.9444 0.0000
0.7222 0.9167 0.0000
0.7222 0.9722 0.0000
0.8889 0.0556 0.0000
0.9444 0.0278 0.0000
0.9444 0.0833 0.0000
0.8889 0.1667 0.0000
0.9444 0.1389 0.0000
0.9444 0.1944 0.0000
0.8889 0.2778 0.0000
0.9444 0.2500 0.0000
0.9444 0.3056 0.0000
0.8889 0.3889 0.0000
0.9444 0.3611 0.0000
0.9444 0.4167 0.0000
0.8889 0.5000 0.0000
0.9444 0.4722 0.0000
0.9444 0.5278 0.0000
0.8889 0.6111 0.0000
0.9444 0.5833 0.0000
0.9444 0.6389 0.0000
0.8889 0.7222 0.0000
0.9444 0.6944 0.0000
0.9444 0.7500 0.0000
0.8889 0.8333 0.0000
0.9444 0.8056 0.0000
0.9444 0.8611 0.0000
0.8889 0.9444 0.0000
0.9444 0.9167 0.0000
0.9444 0.9722 0.0000
1.1111 0.0556 0.0000
1.1667 0.0278 0.0000
1.1667 0.0833 0.0000
1.1111 0.1667 0.0000
1.1667 0.1389 0.0000
1.1667 0.1944 0.0000
1.1111 0.2778 0.0000
1.1667 0.2500 0.0000
1.1667 0.3056 0.0000
1.1111 0.3889 0.0000
1.1667 0.3611 0.0000
1.1667 0.4167 0.0000
1.1111 0.5000 0.0000
1.1667 0.4722 0.0000
1.1667 0.5278 0.0000
1.1111 0.6111 0.0000
1.1667 0.5833 0.0000
1.1667 0.6389 0.0000
1.1111 0.7222 0.0000
1.1667 0.6944 0.0000
1.1667 0.7500 0.0000
1.1111 0.8333 0.0000
1.1667 0.8056 0.0000
1.1667 0.8611 0.0000
1.1111 0.9444 0.0000
1.1667 0.9167 0.0000
1.1667 0.9722 0.0000
1.3333 0.0556 0.0000
1.3889 0.0278 0.0000
1.3889 0.0833 0.0000
1.3333 0.1667 0.0000
1.3889 0.1389 0.0000
1.3889 0.1944 0.0000
1.3333 0.2778 0.0000
1.3889 0.2500 0.0000
1.3889 0.3056 0.0000
1.3333 0.3889 0.0000
1.3889 0.3611 0.0000
1.3889 0.4167 0.0000
1.3333 0.5000 0.0000
1.3889 0.4722 0.0000
1.3889 0.5278 0.0000
1.3333 0.6111 0.0000
1.3889 0.5833 0.0000
1.3889 0.6389 0.0000
1.3333 0.7222 0.0000
1.3889 0.6944 0.0000
1.3889 0.7500 0.0000
1.3333 0.8333 0.0000
1.3889 0.8056 0.0000
1.3889 0.8611 0.0000
1.3333 0.9444 0.0000
1.3889 0.9167 0.0000
1.3889 0.9722 0.0000
1.5556 0.0556 0.0000
1.6111 0.0278 0.0000
1.6111 0.0833 0.0000
1.5556 0.1667 0.0000
1.6111 0.1389 0.0000
1.6111 0.1944 0.0000
1.5556 0.2778 0.0000
1.6111 0.2500 0.0000
1.6111 0.3056 0.0000
1.5556 0.3889 0.0000
1.6111 0.3611 0.0000
1.6111 0.4167 0.0000
1.5556 0.5000 0.0000
1.6111 0.4722 0.0000
1.6111 0.5278 0.0000
1.5556 0.6111 0.0000
1.6111 0.5833 0.0000
1.6111 0.6389 0.0000
1.5556 0.7222 0.0000
1.6111 0.6944 0.0000
1.6111 0.7500 0.0000
1.5556 0.8333 0.0000
1.6111 0.8056 0.0000
1.6111 0.8611 0.0000
1.5556 0.9444 0.0000
1.6111 0.9167 0.0000
1.6111 0.9722 0.0000
1.7778 0.0556 0.0000
1.8333 0.0278 0.0000
1.8333 0.0833 0.0000
1.7778 0.1667 0.0000
1.8333 0.1389 0.0000
1.8333 0.1944 0.0000
1.7778 0.2778 0.0000
1.8333 0.2500 0.0000
1.8333 0.3056 0.0000
1.7778 0.3889 0.0000
1.8333 0.3611 0.0000
1.8333 0.4167 0.0000
1.7778 0.5000 0.0000
1.8333 0.4722 0.0000
1.8333 0.5278 0.0000
1.7778 0.6111 0.0000
1.8333 0.5833 0.0000
1.8333 0.6389 0.0000
1.7778 0.7222 0.0000
1.8333 0.6944 0.0000
1.8333 0.7500 0.0000
1.7778 0.8333 0.0000
1.8333 0.8056 0.0000
1.8333 0.8611 0.0000
1.7778 0.9444 0.0000
1.8333 0.9167 0.0000
1.8333 0.9722 0.0000
0.1111 0.1111 0.0000
0.1667 0.0833 0.0000
0.1111 0.2222 0.0000
0.1667 0.1944 0.0000
0.1111 0.3333 0.0000
0.1667 0.3056 0.0000
0.1111 0.4444 0.0000
0.1667 0.4167 0.0000
0.1111 0.5556 0.0000
0.1667 0.5278 0.0000
0.1111 0.6667 0.0000
0.1667 0.6389 0.0000
0.1111 0.7778 0.0000
0.1667 0.7500 0.0000
0.1111 0.8889 0.0000
0.1667 0.8611 0.0000
0.1111 1.0000 0.0000
0.1667 0.9722 0.0000
0.3333 0.1111 0.0000
0.3889 0.0833 0.0000
0.3333 0.2222 0.0000
0.3889 0.1944 0.0000
0.3333 0.3333 0.0000
0.3889 0.3056 0.0000
0.3333 0.4444 0.0000
0.3889 0.4167 0.0000
0.3333 0.5556 0.0000
0.3889 0.5278 0.0000
0.3333 0.6667 0.0000
0.3889 0.6389 0.0000
0.3333 0.7778 0.0000
0.3889 0.7500 0.0000
0.3333 0.8889 0.0000
0.3889 0.8611 0.0000
0.3333 1.0000 0.0000
0.3889 0.9722 0.0000
0.5556 0.1111 0.0000
[...]
         <PointData>
            <DataArray Name="fValues" NumberOfComponents="3" format="ascii" type="Float64">
 1.22377e-15 -1.83565e-15        00000 
 1.15548e-15  7.92328e-16        00000 
 9.96809e-16  1.34863e-16        00000 
-7.89078e-16 -7.89078e-16        00000 
-1.84374e-17  2.11966e-16        00000 
-3.94539e-16  1.31513e-16        00000 
 4.75497e-16 -7.13761e-16        00000 
 1.05115e-15 -8.86910e-16        00000 
 1.05669e-15 -7.92517e-16        00000 
       00000 -4.28318e-15        00000 
-4.97172e+01 -3.78007e+01        00000 
-3.38298e+01 -2.90652e+01        00000 
-2.20531e+01 -2.29179e+01        00000 
-1.25719e+01 -1.93572e+01        00000 
-4.09308e+00 -1.77417e+01        00000 
 4.09834e+00 -1.77394e+01        00000 
 1.25784e+01 -1.93537e+01        00000 
 2.20603e+01 -2.29136e+01        00000 
 3.38343e+01 -2.90622e+01        00000 
 4.97204e+01 -3.77980e+01        00000 
-9.04947e+01 -8.03306e+01        00000 
-6.66011e+01 -7.27403e+01        00000 
-4.54120e+01 -6.68286e+01        00000 
-2.63724e+01 -6.28684e+01        00000 
-8.64616e+00 -6.09034e+01        00000 
 8.64595e+00 -6.09026e+01        00000 
 2.63711e+01 -6.28658e+01        00000 
 4.54128e+01 -6.68237e+01        00000 
 6.66054e+01 -7.27318e+01        00000 
 9.05013e+01 -8.03209e+01        00000 
-1.26504e+02 -1.39037e+02        00000 
-9.48113e+01 -1.32502e+02        00000 
-6.57600e+01 -1.27458e+02        00000 
-3.86555e+01 -1.24053e+02        00000 
-1.27514e+01 -1.22338e+02        00000 
 1.27439e+01 -1.22338e+02        00000 
 3.86450e+01 -1.24052e+02        00000 
 6.57490e+01 -1.27459e+02        00000 
 9.48020e+01 -1.32502e+02        00000 
 1.26495e+02 -1.39032e+02        00000 
-1.57180e+02 -2.12532e+02        00000 
-1.18697e+02 -2.07075e+02        00000 
-8.28771e+01 -2.02886e+02        00000 
-4.89620e+01 -2.00077e+02        00000 
-1.61987e+01 -1.98667e+02        00000 
 1.61784e+01 -1.98666e+02        00000 
 4.89419e+01 -2.00074e+02        00000 
 8.28539e+01 -2.02883e+02        00000 
 1.18669e+02 -2.07070e+02        00000 
 1.57142e+02 -2.12520e+02        00000 
-1.82316e+02 -2.98446e+02        00000 
-1.38254e+02 -2.94078e+02        00000 
-9.68523e+01 -2.90732e+02        00000 
-5.73526e+01 -2.88498e+02        00000 
-1.90001e+01 -2.87382e+02        00000 
 1.89687e+01 -2.87380e+02        00000 
 5.73192e+01 -2.88491e+02        00000 
 9.68157e+01 -2.90719e+02        00000 
 1.38210e+02 -2.94060e+02        00000 
 1.82268e+02 -2.98424e+02        00000 
-2.01899e+02 -3.94274e+02        00000 
-1.53479e+02 -3.90991e+02        00000 
-1.07696e+02 -3.88504e+02        00000 
-6.38338e+01 -3.86870e+02        00000 
-2.11580e+01 -3.86065e+02        00000 
 2.11142e+01 -3.86062e+02        00000 
 6.37864e+01 -3.86862e+02        00000 
 1.07643e+02 -3.88491e+02        00000 
 1.53426e+02 -3.90976e+02        00000 
 2.01849e+02 -3.94258e+02        00000 
-2.16068e+02 -4.97551e+02        00000 
-1.64382e+02 -4.95325e+02        00000 
-1.15290e+02 -4.93751e+02        00000 
-6.82784e+01 -4.92792e+02        00000 
-2.26223e+01 -4.92341e+02        00000 
 2.25657e+01 -4.92338e+02        00000 
 6.82221e+01 -4.92784e+02        00000 
 1.15233e+02 -4.93740e+02        00000 
 1.64327e+02 -4.95314e+02        00000 
 2.16011e+02 -4.97539e+02        00000 
-2.25486e+02 -6.06271e+02        00000 
-1.70897e+02 -6.05067e+02        00000 
-1.19365e+02 -6.04344e+02        00000 
-7.05318e+01 -6.03831e+02        00000 
-2.33497e+01 -6.03545e+02        00000 
 2.32836e+01 -6.03542e+02        00000 
 7.04679e+01 -6.03823e+02        00000 
 1.19305e+02 -6.04333e+02        00000 
 1.70840e+02 -6.05056e+02        00000 
 2.25431e+02 -6.06262e+02        00000 
-2.31295e+02 -7.24492e+02        00000 
-1.73610e+02 -7.21673e+02        00000 
-1.21247e+02 -7.18317e+02        00000 
-7.17291e+01 -7.15740e+02        00000 
-2.37653e+01 -7.14367e+02        00000 
 2.36947e+01 -7.14366e+02        00000 
 7.16626e+01 -7.15739e+02        00000 
 1.21188e+02 -7.18317e+02        00000 
 1.73557e+02 -7.21674e+02        00000 
 2.31240e+02 -7.24493e+02        00000 
-2.01196e+01 -1.60902e+01        00000 
-1.28412e+01 -9.81511e+00        00000 
-7.98683e+00 -6.77199e+00        00000 
-3.86289e+00 -5.31916e+00        00000 
 2.11327e-03 -4.88406e+00        00000 
 3.86648e+00 -5.31832e+00        00000 
 7.99170e+00 -6.77017e+00        00000 
 1.28444e+01 -9.81357e+00        00000 
 2.01221e+01 -1.60888e+01        00000 
-6.03724e+01 -5.28261e+01        00000 
-4.20663e+01 -4.55376e+01        00000 
-2.65687e+01 -4.03964e+01        00000 
-1.28738e+01 -3.74460e+01        00000 
 1.66367e-03 -3.64913e+01        00000 
 1.28777e+01 -3.74438e+01        00000 
 2.65744e+01 -4.03918e+01        00000 
 4.20723e+01 -4.55320e+01        00000 
 6.03773e+01 -5.28206e+01        00000 
-9.48263e+01 -1.03998e+02        00000 
-6.83306e+01 -9.76832e+01        00000 
-4.41722e+01 -9.30764e+01        00000 
-2.16636e+01 -9.02881e+01        00000 
-2.28981e-03 -8.93563e+01        00000 
 2.16596e+01 -9.02879e+01        00000 
 4.41661e+01 -9.30765e+01        00000 
 6.83269e+01 -9.76811e+01        00000 
 9.48277e+01 -1.03994e+02        00000 
-1.24530e+02 -1.70926e+02        00000 
-9.07189e+01 -1.65587e+02        00000 
-5.91900e+01 -1.61722e+02        00000 
-2.92061e+01 -1.59388e+02        00000 
-7.14215e-03 -1.58607e+02        00000 
 2.91924e+01 -1.59387e+02        00000 
 5.91749e+01 -1.61723e+02        00000 
 9.07014e+01 -1.65588e+02        00000 
 1.24510e+02 -1.70923e+02        00000 
-1.49346e+02 -2.51508e+02        00000 
-1.09350e+02 -2.47141e+02        00000 
-7.16331e+01 -2.43994e+02        00000 
-3.54406e+01 -2.42102e+02        00000 
-1.26716e-02 -2.41469e+02        00000 
 3.54162e+01 -2.42098e+02        00000 
 7.16074e+01 -2.43987e+02        00000 
 1.09319e+02 -2.47132e+02        00000 
 1.49306e+02 -2.51495e+02        00000 
-1.69220e+02 -3.43266e+02        00000 
-1.24255e+02 -3.39872e+02        00000 
-8.15608e+01 -3.37440e+02        00000 
-4.04014e+01 -3.35989e+02        00000 
-1.85136e-02 -3.35506e+02        00000 
 4.03625e+01 -3.35983e+02        00000 
 8.15170e+01 -3.37429e+02        00000 
 1.24207e+02 -3.39856e+02        00000 
 1.69171e+02 -3.43248e+02        00000 
-1.84185e+02 -4.43679e+02        00000 
-1.35405e+02 -4.41267e+02        00000 
-8.89161e+01 -4.39600e+02        00000 
-4.40468e+01 -4.38638e+02        00000 
-2.48551e-02 -4.38324e+02        00000 
 4.39956e+01 -4.38632e+02        00000 
 8.88616e+01 -4.39588e+02        00000 
 1.35349e+02 -4.41253e+02        00000 
 1.84131e+02 -4.43666e+02        00000 
-1.94416e+02 -5.50358e+02        00000 
-1.42667e+02 -5.48957e+02        00000 
-9.34768e+01 -5.48113e+02        00000 
-4.62419e+01 -5.47652e+02        00000 
-3.04810e-02 -5.47502e+02        00000 
 4.61806e+01 -5.47648e+02        00000 
 9.34181e+01 -5.48105e+02        00000 
 1.42610e+02 -5.48946e+02        00000 
 1.94359e+02 -5.50346e+02        00000 
-2.00088e+02 -6.62595e+02        00000 
-1.45881e+02 -6.61713e+02        00000 
-9.53832e+01 -6.60646e+02        00000 
-4.71635e+01 -6.59821e+02        00000 
-3.48749e-02 -6.59515e+02        00000 
 4.70950e+01 -6.59817e+02        00000 
 9.53202e+01 -6.60640e+02        00000 
 1.45825e+02 -6.61707e+02        00000 
 2.00034e+02 -6.62591e+02        00000 
-2.10087e-16 -1.70951e-15        00000 
-1.09958e+01 -8.40241e+00        00000 
-8.34715e+00 -5.91647e+00        00000 
 1.83227e-15  1.97592e-15        00000 
-6.73279e+00 -4.35947e+00        00000 
-5.45678e+00 -3.30400e+00        00000 
-2.49800e-16        00000        00000 
-4.33752e+00 -2.56659e+00        00000 
-3.30624e+00 -2.05095e+00        00000 
-1.21827e-16 -5.34928e-16        00000 
-2.32946e+00 -1.70070e+00        00000 
-1.38503e+00 -1.48265e+00        00000 
 6.24500e-17  3.12250e-16        00000 
-4.58657e-01 -1.37850e+00        00000 
 4.61255e-01 -1.37839e+00        00000 
 4.56506e-17 -1.30840e-16        00000 
 1.38739e+00 -1.48299e+00        00000 
 2.33132e+00 -1.70030e+00        00000 
 8.74301e-16 -1.24900e-16        00000 
 3.30896e+00 -2.05015e+00        00000 
 4.33991e+00 -2.56619e+00        00000 
 4.99600e-16        00000        00000 
 5.45866e+00 -3.30382e+00        00000 
 6.73429e+00 -4.35889e+00        00000 
-1.75757e-15  1.44094e-16        00000 
 8.34842e+00 -5.91586e+00        00000 
 1.09970e+01 -8.40182e+00        00000 
-4.13057e+01 -3.32496e+01        00000 
-5.55712e+01 -4.49644e+01        00000 
-4.66518e+01 -4.05895e+01        00000 
-2.75308e+01 -2.56230e+01        00000 
-3.85828e+01 -3.67626e+01        00000 
-3.13997e+01 -3.35862e+01        00000 
-1.71276e+01 -2.08601e+01        00000 
-2.49075e+01 -3.10530e+01        00000 
-1.89192e+01 -2.91152e+01        00000 
-8.25850e+00 -1.83347e+01        00000 
-1.32844e+01 -2.77170e+01        00000 
-7.88202e+00 -2.68113e+01        00000 
 2.67122e-03 -1.75461e+01        00000 
-2.61181e+00 -2.63659e+01        00000 
 2.61631e+00 -2.63650e+01        00000 
 8.26409e+00 -1.83319e+01        00000 
 7.88710e+00 -2.68089e+01        00000 
 1.32903e+01 -2.77136e+01        00000 
 1.71349e+01 -2.08563e+01        00000 
 1.89263e+01 -2.91112e+01        00000 
 2.49146e+01 -3.10484e+01        00000 
 2.75362e+01 -2.56190e+01        00000 
 3.14060e+01 -3.35813e+01        00000 
 3.85883e+01 -3.67586e+01        00000 
 4.13094e+01 -3.32465e+01        00000 
 4.66566e+01 -4.05855e+01        00000 
 5.55752e+01 -4.49606e+01        00000 
-7.81862e+01 -7.63567e+01        00000 
-9.32131e+01 -9.17975e+01        00000 
-8.02703e+01 -8.79598e+01        00000 
-5.56950e+01 -6.95513e+01        00000 
-6.80192e+01 -8.46194e+01        00000 
-5.64019e+01 -8.17478e+01        00000 
-3.56722e+01 -6.45977e+01        00000 
-4.53468e+01 -7.93454e+01        00000 
-3.47676e+01 -7.74201e+01        00000 
-1.74001e+01 -6.16382e+01        00000 
-2.45644e+01 -7.59764e+01        00000 
-1.46311e+01 -7.50147e+01        00000 
-4.16333e-04 -6.06584e+01        00000 
-4.86057e+00 -7.45341e+01        00000 
 4.85735e+00 -7.45338e+01        00000 
 1.73996e+01 -6.16368e+01        00000 
 1.46286e+01 -7.50139e+01        00000 
 2.45616e+01 -7.59752e+01        00000 
 3.56713e+01 -6.45947e+01        00000 
 3.47641e+01 -7.74192e+01        00000 
 4.53434e+01 -7.93434e+01        00000 
 5.56973e+01 -6.95443e+01        00000 
 5.64001e+01 -8.17437e+01        00000 
 6.80196e+01 -8.46136e+01        00000 
 7.81917e+01 -7.63468e+01        00000 
 8.02736e+01 -8.79527e+01        00000 
 9.32189e+01 -9.17893e+01        00000 
-1.10282e+02 -1.35605e+02        00000 
-1.26015e+02 -1.54647e+02        00000 
-1.09284e+02 -1.51362e+02        00000 
-7.99987e+01 -1.29780e+02        00000 
-9.32548e+01 -1.48518e+02        00000 
-7.78402e+01 -1.46086e+02        00000 
-5.20099e+01 -1.25547e+02        00000 
-6.29541e+01 -1.44056e+02        00000 
-4.85050e+01 -1.42426e+02        00000 
-2.56016e+01 -1.22982e+02        00000 
-3.43991e+01 -1.41201e+02        00000 
-2.05414e+01 -1.40382e+02        00000 
-4.39874e-03 -1.22123e+02        00000 
-6.83391e+00 -1.39971e+02        00000 
 6.82305e+00 -1.39971e+02        00000 
 2.55924e+01 -1.22982e+02        00000 
 2.05305e+01 -1.40382e+02        00000 
 3.43872e+01 -1.41201e+02        00000 
 5.19982e+01 -1.25547e+02        00000 
 4.84924e+01 -1.42427e+02        00000 
 6.29406e+01 -1.44057e+02        00000 
 7.99881e+01 -1.29781e+02        00000 
 7.78269e+01 -1.46088e+02        00000 
 9.32409e+01 -1.48519e+02        00000 
 1.10273e+02 -1.35603e+02        00000 
 1.09271e+02 -1.51360e+02        00000 
 1.26001e+02 -1.54643e+02        00000 
-1.37555e+02 -2.09664e+02        00000 
-1.53686e+02 -2.31729e+02        00000 
-1.33710e+02 -2.29011e+02        00000 
-1.00502e+02 -2.04811e+02        00000 
-1.14440e+02 -2.26663e+02        00000 
-9.57881e+01 -2.24659e+02        00000 
-6.57278e+01 -2.01307e+02        00000 
-7.76575e+01 -2.22992e+02        00000 
-5.99562e+01 -2.21659e+02        00000 
-3.24839e+01 -1.99197e+02        00000 
-4.25893e+01 -2.20657e+02        00000 
-2.54629e+01 -2.19989e+02        00000 
-1.03139e-02 -1.98491e+02        00000 
-8.47898e+00 -2.19654e+02        00000 
 8.45594e+00 -2.19654e+02        00000 
 3.24644e+01 -1.99195e+02        00000 
 2.54402e+01 -2.19987e+02        00000 
 4.25680e+01 -2.20653e+02        00000 
 6.57073e+01 -2.01305e+02        00000 
 5.99340e+01 -2.21653e+02        00000 
 7.76338e+01 -2.22987e+02        00000 
 1.00477e+02 -2.04807e+02        00000 
 9.57610e+01 -2.24654e+02        00000 
 1.14411e+02 -2.26656e+02        00000 
 1.37523e+02 -2.09656e+02        00000 
 1.33675e+02 -2.29002e+02        00000 
 1.53647e+02 -2.31718e+02        00000 
-1.59901e+02 -2.96149e+02        00000 
-1.76113e+02 -3.20612e+02        00000 
-1.53501e+02 -3.18465e+02        00000 
-1.17269e+02 -2.92267e+02        00000 
-1.31595e+02 -3.16612e+02        00000 
-1.10304e+02 -3.15033e+02        00000 
-7.69114e+01 -2.89475e+02        00000 
-8.95335e+01 -3.13723e+02        00000 
-6.91928e+01 -3.12678e+02        00000 
-3.80804e+01 -2.87801e+02        00000 
-4.91875e+01 -3.11896e+02        00000 
-2.94228e+01 -3.11375e+02        00000 
-1.58187e-02 -2.87242e+02        00000 
-9.80272e+00 -3.11114e+02        00000 
 9.76874e+00 -3.11113e+02        00000 
 3.80487e+01 -2.87796e+02        00000 
 2.93882e+01 -3.11371e+02        00000 
 4.91515e+01 -3.11889e+02        00000 
 7.68770e+01 -2.89466e+02        00000 
 6.91544e+01 -3.12669e+02        00000 
 8.94930e+01 -3.13711e+02        00000 
 1.17229e+02 -2.92252e+02        00000 
 1.10261e+02 -3.15019e+02        00000 
 1.31550e+02 -3.16594e+02        00000 
 1.59854e+02 -2.96129e+02        00000 
 1.53454e+02 -3.18446e+02        00000 
 1.76066e+02 -3.20593e+02        00000 
-1.77311e+02 -3.92546e+02        00000 
-1.93312e+02 -4.18780e+02        00000 
-1.68666e+02 -4.17199e+02        00000 
-1.30304e+02 -3.89640e+02        00000 
-1.44715e+02 -4.15845e+02        00000 
-1.21374e+02 -4.14703e+02        00000 
-8.55701e+01 -3.87581e+02        00000 
-9.85624e+01 -4.13768e+02        00000 
-7.61921e+01 -4.13031e+02        00000 
-4.23963e+01 -3.86367e+02        00000 
-5.41726e+01 -4.12486e+02        00000 
-3.24096e+01 -4.12127e+02        00000 
-2.20753e-02 -3.85964e+02        00000 
-1.08009e+01 -4.11947e+02        00000 
 1.07547e+01 -4.11946e+02        00000 
 4.23501e+01 -3.86361e+02        00000 
 3.23619e+01 -4.12122e+02        00000 
 5.41242e+01 -4.12478e+02        00000 
 8.55188e+01 -3.87570e+02        00000 
 7.61407e+01 -4.13020e+02        00000 
 9.85082e+01 -4.13755e+02        00000 
 1.30250e+02 -3.89626e+02        00000 
 1.21320e+02 -4.14690e+02        00000 
 1.44660e+02 -4.15830e+02        00000 
 1.77259e+02 -3.92530e+02        00000 
 1.68613e+02 -4.17185e+02        00000 
 1.93260e+02 -4.18766e+02        00000 
-1.89871e+02 -4.96366e+02        00000 
-2.05458e+02 -5.23798e+02        00000 
-1.79275e+02 -5.22759e+02        00000 
-1.39539e+02 -4.94454e+02        00000 
-1.53753e+02 -5.21912e+02        00000 
-1.28866e+02 -5.21242e+02        00000 
-9.15637e+01 -4.93202e+02        00000 
-1.04567e+02 -5.20722e+02        00000 
-8.07769e+01 -5.20329e+02        00000 
-4.53337e+01 -4.92509e+02        00000 
-5.74017e+01 -5.20047e+02        00000 
-3.43297e+01 -5.19864e+02        00000 
-2.81352e-02 -4.92285e+02        00000 
-1.14423e+01 -5.19773e+02        00000 
 1.13833e+01 -5.19772e+02        00000 
 4.52774e+01 -4.92503e+02        00000 
 3.42705e+01 -5.19860e+02        00000 
 5.73434e+01 -5.20041e+02        00000 
 9.15083e+01 -4.93191e+02        00000 
 8.07199e+01 -5.20321e+02        00000 
 1.04510e+02 -5.20713e+02        00000 
 1.39483e+02 -4.94443e+02        00000 
 1.28810e+02 -5.21232e+02        00000 
 1.53697e+02 -5.21902e+02        00000 
 1.89815e+02 -4.96355e+02        00000 
 1.79218e+02 -5.22748e+02        00000 
 2.05402e+02 -5.23786e+02        00000 
-1.97873e+02 -6.05574e+02        00000 
-2.13195e+02 -6.34126e+02        00000 
-1.85352e+02 -6.33608e+02        00000 
-1.44738e+02 -6.04673e+02        00000 
-1.58477e+02 -6.33210e+02        00000 
-1.32534e+02 -6.32840e+02        00000 
-9.46734e+01 -6.04063e+02        00000 
-1.07385e+02 -6.32483e+02        00000 
-8.28776e+01 -6.32158e+02        00000 
-4.68031e+01 -6.03655e+02        00000 
-5.88622e+01 -6.31887e+02        00000 
-3.51933e+01 -6.31693e+02        00000 
-3.29257e-02 -6.03506e+02        00000 
-1.17313e+01 -6.31591e+02        00000 
 1.16631e+01 -6.31590e+02        00000 
 4.67385e+01 -6.03650e+02        00000 
 3.51258e+01 -6.31689e+02        00000 
 5.87964e+01 -6.31881e+02        00000 
 9.46116e+01 -6.04053e+02        00000 
 8.28137e+01 -6.32150e+02        00000 
 1.07324e+02 -6.32474e+02        00000 
 1.44679e+02 -6.04662e+02        00000 
 1.32475e+02 -6.32830e+02        00000 
 1.58422e+02 -6.33201e+02        00000 
 1.97816e+02 -6.05564e+02        00000 
 1.85297e+02 -6.33600e+02        00000 
 2.13141e+02 -6.34119e+02        00000 
-1.59232e+01 -1.23631e+01        00000 
-2.77341e+01 -2.23811e+01        00000 
-1.02726e+01 -8.03117e+00        00000 
-1.80141e+01 -1.59048e+01        00000 
-5.87210e+00 -5.89604e+00        00000 
-1.07786e+01 -1.23770e+01        00000 
-1.91553e+00 -4.99084e+00        00000 
-4.48522e+00 -1.06986e+01        00000 
 1.91988e+00 -4.99042e+00        00000 
 1.49059e+00 -1.03836e+01        00000 
 5.87657e+00 -5.89452e+00        00000 
 7.56746e+00 -1.13461e+01        00000 
 1.02774e+01 -8.02964e+00        00000 
 1.42257e+01 -1.38561e+01        00000 
 1.59255e+01 -1.23616e+01        00000 
 2.23851e+01 -1.86733e+01        00000 
 2.77485e+01 -2.16503e+01        00000 
 3.49140e+01 -2.71775e+01        00000 
-5.08368e+01 -4.89459e+01        00000 
-6.40554e+01 -6.22377e+01        00000 
-3.40223e+01 -4.26826e+01        00000 
-4.43303e+01 -5.55697e+01        00000 
-1.95629e+01 -3.86597e+01        00000 
-2.70498e+01 -5.10027e+01        00000 
-6.38705e+00 -3.67284e+01        00000 
-1.13253e+01 -4.85233e+01        00000 
 6.39057e+00 -3.67274e+01        00000 
 3.75884e+00 -4.80335e+01        00000 
 1.95675e+01 -3.86567e+01        00000 
 1.90543e+01 -4.95064e+01        00000 
 3.40282e+01 -4.26771e+01        00000 
 3.54381e+01 -5.30144e+01        00000 
 5.08424e+01 -4.89404e+01        00000 
 5.38529e+01 -5.86409e+01        00000 
 7.06547e+01 -5.70642e+01        00000 
 7.49838e+01 -6.63344e+01        00000 
-8.12492e+01 -1.00639e+02        00000 
-9.53471e+01 -1.17738e+02        00000 
-5.59985e+01 -9.51574e+01        00000 
-6.75657e+01 -1.11995e+02        00000 
-3.27601e+01 -9.14509e+01        00000 
-4.19275e+01 -1.07996e+02        00000 
-1.07799e+01 -8.95895e+01        00000 
-1.77107e+01 -1.05760e+02        00000 
 1.07756e+01 -8.95893e+01        00000 
 5.88268e+00 -1.05311e+02        00000 
 3.27547e+01 -9.14514e+01        00000 
 2.96833e+01 -1.06655e+02        00000 
 5.59932e+01 -9.51564e+01        00000 
 5.45127e+01 -1.09778e+02        00000 
 8.12478e+01 -1.00635e+02        00000 
 8.11413e+01 -1.14646e+02        00000 
 1.09145e+02 -1.07698e+02        00000 
 1.10238e+02 -1.21297e+02        00000 
-1.07294e+02 -1.68080e+02        00000 
-1.22074e+02 -1.88556e+02        00000 
-7.47143e+01 -1.63465e+02        00000 
-8.72456e+01 -1.83743e+02        00000 
-4.40517e+01 -1.60362e+02        00000 
-5.45107e+01 -1.80415e+02        00000 
-1.45571e+01 -1.58802e+02        00000 
-2.31237e+01 -1.78562e+02        00000 
 1.45437e+01 -1.58802e+02        00000 
 7.68034e+00 -1.78189e+02        00000 
 4.40372e+01 -1.60362e+02        00000 
 3.86788e+01 -1.79303e+02        00000 
 7.46980e+01 -1.63467e+02        00000 
 7.06436e+01 -1.81895e+02        00000 
 1.07275e+02 -1.68079e+02        00000 
 1.04329e+02 -1.85958e+02        00000 
 1.42506e+02 -1.74072e+02        00000 
 1.40475e+02 -1.91551e+02        00000 
-1.29017e+02 -2.49178e+02        00000 