<?xml version="1.0" encoding="utf-8"?>
<VTKFile byte_order="LittleEndian" type="UnstructuredGrid" version="0.1">
   <UnstructuredGrid>
      <Piece NumberOfCells="1296" NumberOfPoints="685">
         <Points>
            <DataArray Name="Points" NumberOfComponents="3" format="ascii" type="Float32">
0.0000 0.0000 0.0000
0.0000 0.1111 0.0000
0.0000 0.2222 0.0000
0.0000 0.3333 0.0000
0.0000 0.4444 0.0000
0.0000 0.5556 0.0000
0.0000 0.6667 0.0000
0.0000 0.7778 0.0000
0.0000 0.8889 0.0000
0.0000 1.0000 0.0000
0.2222 0.0000 0.0000
0.2222 0.1111 0.0000
0.2222 0.2222 0.0000
0.2222 0.3333 0.0000
0.2222 0.4444 0.0000
0.2222 0.5556 0.0000
0.2222 0.6667 0.0000
0.2222 0.7778 0.0000
0.2222 0.8889 0.0000
0.2222 1.0000 0.0000
0.4444 0.0000 0.0000
0.4444 0.1111 0.0000
0.4444 0.2222 0.0000
0.4444 0.3333 0.0000
0.4444 0.4444 0.0000
0.4444 0.5556 0.0000
0.4444 0.6667 0.0000
0.4444 0.7778 0.0000
0.4444 0.8889 0.0000
0.4444 1.0000 0.0000
0.6667 0.0000 0.0000
0.6667 0.1111 0.0000
0.6667 0.2222 0.0000
0.6667 0.3333 0.0000
0.6667 0.4444 0.0000
0.6667 0.5556 0.0000
0.6667 0.6667 0.0000
0.6667 0.7778 0.0000
0.6667 0.8889 0.0000
0.6667 1.0000 0.0000
0.8889 0.0000 0.0000
0.8889 0.1111 0.0000
0.8889 0.2222 0.0000
0.8889 0.3333 0.0000
0.8889 0.4444 0.0000
0.8889 0.5556 0.0000
0.8889 0.6667 0.0000
0.8889 0.7778 0.0000
0.8889 0.8889 0.0000
0.8889 1.0000 0.0000
1.1111 0.0000 0.0000
1.1111 0.1111 0.0000
1.1111 0.2222 0.0000
1.1111 0.3333 0.0000
1.1111 0.4444 0.0000
1.1111 0.5556 0.0000
1.1111 0.6667 0.0000
1.1111 0.7778 0.0000
1.1111 0.8889 0.0000
1.1111 1.0000 0.0000
1.3333 0.0000 0.0000
1.3333 0.1111 0.0000
1.3333 0.2222 0.0000
1.3333 0.3333 0.0000
1.3333 0.4444 0.0000
1.3333 0.5556 0.0000
1.3333 0.6667 0.0000
1.3333 0.7778 0.0000
1.3333 0.8889 0.0000
1.3333 1.0000 0.0000
1.5556 0.0000 0.0000
1.5556 0.1111 0.0000
1.5556 0.2222 0.0000
1.5556 0.3333 0.0000
1.5556 0.4444 0.0000
1.5556 0.5556 0.0000
1.5556 0.6667 0.0000
1.5556 0.7778 0.0000
1.5556 0.8889 0.0000
1.5556 1.0000 0.0000
1.7778 0.0000 0.0000
1.7778 0.1111 0.0000
1.7778 0.2222 0.0000
1.7778 0.3333 0.0000
1.7778 0.4444 0.0000
1.7778 0.5556 0.0000
1.7778 0.6667 0.0000
1.7778 0.7778 0.0000
1.7778 0.8889 0.0000
1.7778 1.0000 0.0000
2.0000 0.0000 0.0000
2.0000 0.1111 0.0000
2.0000 0.2222 0.0000
2.0000 0.3333 0.0000
2.0000 0.4444 0.0000
2.0000 0.5556 0.0000
2.0000 0.6667 0.0000
2.0000 0.7778 0.0000
2.0000 0.8889 0.0000
2.0000 1.0000 0.0000
0.1111 0.0556 0.0000
0.1111 0.1667 0.0000
0.1111 0.2778 0.0000
0.1111 0.3889 0.0000
0.1111 0.5000 0.0000
0.1111 0.6111 0.0000
0.1111 0.7222 0.0000
0.1111 0.8333 0.0000
0.1111 0.9444 0.0000
0.3333 0.0556 0.0000
0.3333 0.1667 0.0000
0.3333 0.2778 0.0000
0.3333 0.3889 0.0000
0.3333 0.5000 0.0000
0.3333 0.6111 0.0000
0.3333 0.7222 0.0000
0.3333 0.8333 0.0000
0.3333 0.9444 0.0000
0.5556 0.0556 0.0000
0.5556 0.1667 0.0000
0.5556 0.2778 0.0000
0.5556 0.3889 0.0000
0.5556 0.5000 0.0000
0.5556 0.6111 0.0000
0.5556 0.7222 0.0000
0.5556 0.8333 0.0000
0.5556 0.9444 0.0000
0.7778 0.0556 0.0000
0.7778 0.1667 0.0000
0.7778 0.2778 0.0000
0.7778 0.3889 0.0000
0.7778 0.5000 0.0000
0.7778 0.6111 0.0000
0.7778 0.7222 0.0000
0.7778 0.8333 0.0000
0.7778 0.9444 0.0000
1.0000 0.0556 0.0000
1.0000 0.1667 0.0000
1.0000 0.2778 0.0000
1.0000 0.3889 0.0000
1.0000 0.5000 0.0000
1.0000 0.6111 0.0000
1.0000 0.7222 0.0000
1.0000 0.8333 0.0000
1.0000 0.9444 0.0000
1.2222 0.0556 0.0000
1.2222 0.1667 0.0000
1.2222 0.2778 0.0000
1.2222 0.3889 0.0000
1.2222 0.5000 0.0000
1.2222 0.6111 0.0000
1.2222 0.7222 0.0000
1.2222 0.8333 0.0000
1.2222 0.9444 0.0000
1.4444 0.0556 0.0000
1.4444 0.1667 0.0000
1.4444 0.2778 0.0000
1.4444 0.3889 0.0000
1.4444 0.5000 0.0000
1.4444 0.6111 0.0000
1.4444 0.7222 0.0000
1.4444 0.8333 0.0000
1.4444 0.9444 0.0000
1.6667 0.0556 0.0000
1.6667 0.1667 0.0000
1.6667 0.2778 0.0000
1.6667 0.3889 0.0000
1.6667 0.5000 0.0000
1.6667 0.6111 0.0000
1.6667 0.7222 0.0000
1.6667 0.8333 0.0000
1.6667 0.9444 0.0000
1.8889 0.0556 0.0000
1.8889 0.1667 0.0000
1.8889 0.2778 0.0000
1.8889 0.3889 0.0000
1.8889 0.5000 0.0000
1.8889 0.6111 0.0000
1.8889 0.7222 0.0000
1.8889 0.8333 0.0000
1.8889 0.9444 0.0000
0.0000 0.0556 0.0000
0.0556 0.0278 0.0000
0.0556 0.0833 0.0000
0.0000 0.1667 0.0000
0.0556 0.1389 0.0000
0.0556 0.1944 0.0000
0.0000 0.2778 0.0000
0.0556 0.2500 0.0000
0.0556 0.3056 0.0000
0.0000 0.3889 0.0000
0.0556 0.3611 0.0000
0.0556 0.4167 0.0000
0.0000 0.5000 0.0000
0.0556 0.4722 0.0000
0.0556 0.5278 0.0000
0.0000 0.6111 0.0000
0.0556 0.5833 0.0000
0.0556 0.6389 0.0000
0.0000 0.7222 0.0000
0.0556 0.6944 0.0000
0.0556 0.7500 0.0000
0.0000 0.8333 0.0000
0.0556 0.8056 0.0000
0.0556 0.8611 0.0000
0.0000 0.9444 0.0000
0.0556 0.9167 0.0000
0.0556 0.9722 0.0000
0.2222 0.0556 0.0000
0.2778 0.0278 0.0000
0.2778 0.0833 0.0000
0.2222 0.1667 0.0000
0.2778 0.1389 0.0000
0.2778 0.1944 0.0000
0.2222 0.2778 0.0000
0.2778 0.2500 0.0000
0.2778 0.3056 0.0000
0.2222 0.3889 0.0000
0.2778 0.3611 0.0000
0.2778 0.4167 0.0000
0.2222 0.5000 0.0000
0.2778 0.4722 0.0000
0.2778 0.5278 0.0000
0.2222 0.6111 0.0000
0.2778 0.5833 0.0000
0.2778 0.6389 0.0000
0.2222 0.7222 0.0000
0.2778 0.6944 0.0000
0.2778 0.7500 0.0000
0.2222 0.8333 0.0000
0.2778 0.8056 0.0000
0.2778 0.8611 0.0000
0.2222 0.9444 0.0000
0.2778 0.9167 0.0000
0.2778 0.9722 0.0000
0.4444 0.0556 0.0000
0.5000 0.0278 0.0000
0.5000 0.0833 0.0000
0.4444 0.1667 0.0000
0.5000 0.1389 0.0000
0.5000 0.1944 0.0000
0.4444 0.2778 0.0000
0.5000 0.2500 0.0000
0.5000 0.3056 0.0000
0.4444 0.3889 0.0000
0.5000 0.3611 0.0000
0.5000 0.4167 0.0000
0.4444 0.5000 0.0000
0.5000 0.4722 0.0000
0.5000 0.5278 0.0000
0.4444 0.6111 0.0000
0.5000 0.5833 0.0000
0.5000 0.6389 0.0000
0.4444 0.7222 0.0000
0.5000 0.6944 0.0000
0.5000 0.7500 0.0000
0.4444 0.8333 0.0000
0.5000 0.8056 0.0000
0.5000 0.8611 0.0000
0.4444 0.9444 0.0000
0.5000 0.9167 0.0000
0.5000 0.9722 0.0000
0.6667 0.0556 0.0000
0.7222 0.0278 0.0000
0.7222 0.0833 0.0000
0.6667 0.1667 0.0000
0.7222 0.1389 0.0000
0.7222 0.1944 0.0000
0.6667 0.2778 0.0000
0.7222 0.2500 0.0000
0.7222 0.3056 0.0000
0.6667 0.3889 0.0000
0.7222 0.3611 0.0000
0.7222 0.4167 0.0000
0.6667 0.5000 0.0000
0.7222 0.4722 0.0000
0.7222 0.5278 0.0000
0.6667 0.6111 0.0000
0.7222 0.5833 0.0000
0.7222 0.6389 0.0000
0.6667 0.7222 0.0000
0.7222 0.6944 0.0000
0.7222 0.7500 0.0000
0.6667 0.8333 0.0000
0.7222 0.8056 0.0000
0.7222 0.8611 0.0000
0.6667 0.9444 0.0000
0.7222 0.9167 0.0000
0.7222 0.9722 0.0000
0.8889 0.0556 0.0000
0.9444 0.0278 0.0000
0.9444 0.0833 0.0000
0.8889 0.1667 0.0000
0.9444 0.1389 0.0000
0.9444 0.1944 0.0000
0.8889 0.2778 0.0000
0.9444 0.2500 0.0000
0.9444 0.3056 0.0000
0.8889 0.3889 0.0000
0.9444 0.3611 0.0000
0.9444 0.4167 0.0000
0.8889 0.5000 0.0000
0.9444 0.4722 0.0000
0.9444 0.5278 0.0000
0.8889 0.6111 0.0000
0.9444 0.5833 0.0000
0.9444 0.6389 0.0000
0.8889 0.7222 0.0000
0.9444 0.6944 0.0000
0.9444 0.7500 0.0000
0.8889 0.8333 0.0000
0.9444 0.8056 0.0000
0.9444 0.8611 0.0000
0.8889 0.9444 0.0000
0.9444 0.9167 0.0000
0.9444 0.9722 0.0000
1.1111 0.0556 0.0000
1.1667 0.0278 0.0000
1.1667 0.0833 0.0000
1.1111 0.1667 0.0000
1.1667 0.1389 0.0000
1.1667 0.1944 0.0000
1.1111 0.2778 0.0000
1.1667 0.2500 0.0000
1.1667 0.3056 0.0000
1.1111 0.3889 0.0000
1.1667 0.3611 0.0000
1.1667 0.4167 0.0000
1.1111 0.5000 0.0000
1.1667 0.4722 0.0000
1.1667 0.5278 0.0000
1.1111 0.6111 0.0000
1.1667 0.5833 0.0000
1.1667 0.6389 0.0000
1.1111 0.7222 0.0000
1.1667 0.6944 0.0000
1.1667 0.7500 0.0000
1.1111 0.8333 0.0000
1.1667 0.8056 0.0000
1.1667 0.8611 0.0000
1.1111 0.9444 0.0000
1.1667 0.9167 0.0000
1.1667 0.9722 0.0000
1.3333 0.0556 0.0000
1.3889 0.0278 0.0000
1.3889 0.0833 0.0000
1.3333 0.1667 0.0000
1.3889 0.1389 0.0000
1.3889 0.1944 0.0000
1.3333 0.2778 0.0000
1.3889 0.2500 0.0000
1.3889 0.3056 0.0000
1.3333 0.3889 0.0000
1.3889 0.3611 0.0000
1.3889 0.4167 0.0000
1.3333 0.5000 0.0000
1.3889 0.4722 0.0000
1.3889 0.5278 0.0000
1.3333 0.6111 0.0000
1.3889 0.5833 0.0000
1.3889 0.6389 0.0000
1.3333 0.7222 0.0000
1.3889 0.6944 0.0000
1.3889 0.7500 0.0000
1.3333 0.8333 0.0000
1.3889 0.8056 0.0000
1.3889 0.8611 0.0000
1.3333 0.9444 0.0000
1.3889 0.9167 0.0000
1.3889 0.9722 0.0000
1.5556 0.0556 0.0000
1.6111 0.0278 0.0000
1.6111 0.0833 0.0000
1.5556 0.1667 0.0000
1.6111 0.1389 0.0000
1.6111 0.1944 0.0000
1.5556 0.2778 0.0000
1.6111 0.2500 0.0000
1.6111 0.3056 0.0000
1.5556 0.3889 0.0000
1.6111 0.3611 0.0000
1.6111 0.4167 0.0000
1.5556 0.5000 0.0000
1.6111 0.4722 0.0000
1.6111 0.5278 0.0000
1.5556 0.6111 0.0000
1.6111 0.5833 0.0000
1.6111 0.6389 0.0000
1.5556 0.7222 0.0000
1.6111 0.6944 0.0000
1.6111 0.7500 0.0000
1.5556 0.8333 0.0000
1.6111 0.8056 0.0000
1.6111 0.8611 0.0000
1.5556 0.9444 0.0000
1.6111 0.9167 0.0000
1.6111 0.9722 0.0000
1.7778 0.0556 0.0000
1.8333 0.0278 0.0000
1.8333 0.0833 0.0000
1.7778 0.1667 0.0000
1.8333 0.1389 0.0000
1.8333 0.1944 0.0000
1.7778 0.2778 0.0000
1.8333 0.2500 0.0000
1.8333 0.3056 0.0000
1.7778 0.3889 0.0000
1.8333 0.3611 0.0000
1.8333 0.4167 0.0000
1.7778 0.5000 0.0000
1.8333 0.4722 0.0000
1.8333 0.5278 0.0000
1.7778 0.6111 0.0000
1.8333 0.5833 0.0000
1.8333 0.6389 0.0000
1.7778 0.7222 0.0000
1.8333 0.6944 0.0000
1.8333 0.7500 0.0000
1.7778 0.8333 0.0000
1.8333 0.8056 0.0000
1.8333 0.8611 0.0000
1.7778 0.9444 0.0000
1.8333 0.9167 0.0000
1.8333 0.9722 0.0000
0.1111 0.1111 0.0000
0.1667 0.0833 0.0000
0.1111 0.2222 0.0000
0.1667 0.1944 0.0000
0.1111 0.3333 0.0000
0.1667 0.3056 0.0000
0.1111 0.4444 0.0000
0.1667 0.4167 0.0000
0.1111 0.5556 0.0000
0.1667 0.5278 0.0000
0.1111 0.6667 0.0000
0.1667 0.6389 0.0000
0.1111 0.7778 0.0000
0.1667 0.7500 0.0000
0.1111 0.8889 0.0000
0.1667 0.8611 0.0000
0.1111 1.0000 0.0000
0.1667 0.9722 0.0000
0.3333 0.1111 0.0000
0.3889 0.0833 0.0000
0.3333 0.2222 0.0000
0.3889 0.1944 0.0000
0.3333 0.3333 0.0000
0.3889 0.3056 0.0000
0.3333 0.4444 0.0000
0.3889 0.4167 0.0000
0.3333 0.5556 0.0000
0.3889 0.5278 0.0000
0.3333 0.6667 0.0000
0.3889 0.6389 0.0000
0.3333 0.7778 0.0000
0.3889 0.7500 0.0000
0.3333 0.8889 0.0000
0.3889 0.8611 0.0000
0.3333 1.0000 0.0000
0.3889 0.9722 0.0000
0.5556 0.1111 0.0000
[...]
         <PointData>
            <DataArray Name="fValues" NumberOfComponents="3" format="ascii" type="Float64">
       00000 -1.22377e-15        00000 
 1.32055e-16 -2.64109e-16        00000 
 2.17387e-15  4.23930e-16        00000 
-2.63026e-16  1.97270e-16        00000 
-5.39843e-16  6.49823e-17        00000 
       00000  1.97270e-16        00000 
 3.19748e-16 -4.95094e-17        00000 
 1.97091e-16  1.08400e-15        00000 
 1.32086e-15  7.92517e-16        00000 
       00000 -3.67130e-15        00000 
-4.97778e+01 -3.78407e+01        00000 
-3.38746e+01 -2.90940e+01        00000 
-2.20837e+01 -2.29397e+01        00000 
-1.25886e+01 -1.93785e+01        00000 
-4.10201e+00 -1.77640e+01        00000 
 4.09945e+00 -1.77660e+01        00000 
 1.25891e+01 -1.93850e+01        00000 
 2.20761e+01 -2.29513e+01        00000 
 3.38639e+01 -2.91087e+01        00000 
 4.97714e+01 -3.78552e+01        00000 
-9.06099e+01 -8.04160e+01        00000 
-6.66837e+01 -7.28163e+01        00000 
-4.54629e+01 -6.68990e+01        00000 
-2.63986e+01 -6.29343e+01        00000 
-8.65158e+00 -6.09701e+01        00000 
 8.66138e+00 -6.09742e+01        00000 
 2.64063e+01 -6.29439e+01        00000 
 4.54663e+01 -6.69114e+01        00000 
 6.66786e+01 -7.28308e+01        00000 
 9.05961e+01 -8.04313e+01        00000 
-1.26651e+02 -1.39202e+02        00000 
-9.49167e+01 -1.32665e+02        00000 
-6.58273e+01 -1.27616e+02        00000 
-3.86865e+01 -1.24207e+02        00000 
-1.27518e+01 -1.22489e+02        00000 
 1.27762e+01 -1.22485e+02        00000 
 3.87069e+01 -1.24200e+02        00000 
 6.58403e+01 -1.27607e+02        00000 
 9.49243e+01 -1.32656e+02        00000 
 1.26650e+02 -1.39197e+02        00000 
-1.57335e+02 -2.12793e+02        00000 
-1.18812e+02 -2.07335e+02        00000 
-8.29507e+01 -2.03144e+02        00000 
-4.89979e+01 -2.00330e+02        00000 
-1.62008e+01 -1.98915e+02        00000 
 1.62151e+01 -1.98909e+02        00000 
 4.90169e+01 -2.00314e+02        00000 
 8.29690e+01 -2.03123e+02        00000 
 1.18826e+02 -2.07312e+02        00000 
 1.57348e+02 -2.12770e+02        00000 
-1.82481e+02 -2.98792e+02        00000 
-1.38375e+02 -2.94423e+02        00000 
-9.69363e+01 -2.91076e+02        00000 
-5.73992e+01 -2.88839e+02        00000 
-1.90080e+01 -2.87721e+02        00000 
 1.90055e+01 -2.87718e+02        00000 
 5.74056e+01 -2.88832e+02        00000 
 9.69490e+01 -2.91064e+02        00000 
 1.38392e+02 -2.94411e+02        00000 
 1.82499e+02 -2.98782e+02        00000 
-2.02085e+02 -3.94729e+02        00000 
-1.53614e+02 -3.91441e+02        00000 
-1.07787e+02 -3.88952e+02        00000 
-6.38867e+01 -3.87320e+02        00000 
-2.11685e+01 -3.86516e+02        00000 
 2.11495e+01 -3.86512e+02        00000 
 6.38758e+01 -3.87310e+02        00000 
 1.07787e+02 -3.88940e+02        00000 
 1.53619e+02 -3.91425e+02        00000 
 2.02092e+02 -3.94708e+02        00000 
-2.16272e+02 -4.98113e+02        00000 
-1.64533e+02 -4.95885e+02        00000 
-1.15392e+02 -4.94308e+02        00000 
-6.83385e+01 -4.93348e+02        00000 
-2.26408e+01 -4.92897e+02        00000 
 2.25940e+01 -4.92895e+02        00000 
 6.83024e+01 -4.93343e+02        00000 
 1.15368e+02 -4.94297e+02        00000 
 1.64514e+02 -4.95868e+02        00000 
 2.16248e+02 -4.98091e+02        00000 
-2.25703e+02 -6.06932e+02        00000 
-1.71066e+02 -6.05724e+02        00000 
-1.19486e+02 -6.04999e+02        00000 
-7.06041e+01 -6.04483e+02        00000 
-2.33710e+01 -6.04199e+02        00000 
 2.33139e+01 -6.04201e+02        00000 
 7.05454e+01 -6.04486e+02        00000 
 1.19431e+02 -6.04998e+02        00000 
 1.71017e+02 -6.05717e+02        00000 
 2.25658e+02 -6.06917e+02        00000 
-2.31518e+02 -7.25249e+02        00000 
-1.73786e+02 -7.22430e+02        00000 
-1.21376e+02 -7.19076e+02        00000 
-7.18022e+01 -7.16503e+02        00000 
-2.37855e+01 -7.15131e+02        00000 
 2.37268e+01 -7.15129e+02        00000 
 7.17435e+01 -7.16502e+02        00000 
 1.21314e+02 -7.19079e+02        00000 
 1.73724e+02 -7.22437e+02        00000 
 2.31461e+02 -7.25257e+02        00000 
-2.01448e+01 -1.61076e+01        00000 
-1.28598e+01 -9.82423e+00        00000 
-7.99948e+00 -6.77902e+00        00000 
-3.86983e+00 -5.32888e+00        00000 
-5.15513e-04 -4.89498e+00        00000 
 3.86900e+00 -5.33044e+00        00000 
 7.99636e+00 -6.78600e+00        00000 
 1.28532e+01 -9.83162e+00        00000 
 2.01408e+01 -1.61123e+01        00000 
-6.04487e+01 -5.28768e+01        00000 
-4.21208e+01 -4.55817e+01        00000 
-2.66008e+01 -4.04370e+01        00000 
-1.28893e+01 -3.74857e+01        00000 
 4.51685e-04 -3.65345e+01        00000 
 1.28926e+01 -3.74933e+01        00000 
 2.66009e+01 -4.04480e+01        00000 
 4.21134e+01 -4.55981e+01        00000 
 6.04373e+01 -5.28971e+01        00000 
-9.49409e+01 -1.04118e+02        00000 
-6.84080e+01 -9.77965e+01        00000 
-4.42171e+01 -9.31845e+01        00000 
-2.16786e+01 -9.03931e+01        00000 
 9.75107e-03 -8.94611e+01        00000 
 2.16958e+01 -9.03956e+01        00000 
 4.42285e+01 -9.31874e+01        00000 
 6.84118e+01 -9.77985e+01        00000 
 9.49378e+01 -1.04120e+02        00000 
-1.24661e+02 -1.71141e+02        00000 
-9.08107e+01 -1.65798e+02        00000 
-5.92412e+01 -1.61929e+02        00000 
-2.92239e+01 -1.59590e+02        00000 
 1.07071e-02 -1.58804e+02        00000 
 2.92462e+01 -1.59580e+02        00000 
 5.92618e+01 -1.61914e+02        00000 
 9.08253e+01 -1.65781e+02        00000 
 1.24670e+02 -1.71121e+02        00000 
-1.49483e+02 -2.51812e+02        00000 
-1.09449e+02 -2.47445e+02        00000 
-7.16934e+01 -2.44295e+02        00000 
-3.54647e+01 -2.42397e+02        00000 
 1.95701e-03 -2.41761e+02        00000 
 3.54725e+01 -2.42387e+02        00000 
 7.17075e+01 -2.44278e+02        00000 
 1.09465e+02 -2.47426e+02        00000 
 1.49499e+02 -2.51794e+02        00000 
-1.69370e+02 -3.43663e+02        00000 
-1.24362e+02 -3.40265e+02        00000 
-8.16295e+01 -3.37832e+02        00000 
-4.04309e+01 -3.36381e+02        00000 
-6.52600e-03 -3.35900e+02        00000 
 4.04260e+01 -3.36377e+02        00000 
 8.16336e+01 -3.37823e+02        00000 
 1.24372e+02 -3.40253e+02        00000 
 1.69384e+02 -3.43646e+02        00000 
-1.84353e+02 -4.44185e+02        00000 
-1.35523e+02 -4.41771e+02        00000 
-8.89907e+01 -4.40105e+02        00000 
-4.40829e+01 -4.39146e+02        00000 
-1.70148e-02 -4.38832e+02        00000 
 4.40537e+01 -4.39139e+02        00000 
 8.89761e+01 -4.40093e+02        00000 
 1.35516e+02 -4.41756e+02        00000 
 1.84346e+02 -4.44167e+02        00000 
-1.94603e+02 -5.50970e+02        00000 
-1.42802e+02 -5.49567e+02        00000 
-9.35653e+01 -5.48720e+02        00000 
-4.62863e+01 -5.48257e+02        00000 
-2.77927e-02 -5.48109e+02        00000 
 4.62328e+01 -5.48259e+02        00000 
 9.35200e+01 -5.48716e+02        00000 
 1.42765e+02 -5.49556e+02        00000 
 1.94567e+02 -5.50953e+02        00000 
-2.00285e+02 -6.63303e+02        00000 
-1.46032e+02 -6.62422e+02        00000 
-9.54833e+01 -6.61354e+02        00000 
-4.72095e+01 -6.60531e+02        00000 
-2.78895e-02 -6.60227e+02        00000 
 4.71519e+01 -6.60531e+02        00000 
 9.54227e+01 -6.61355e+02        00000 
 1.45972e+02 -6.62424e+02        00000 
 2.00230e+02 -6.63304e+02        00000 
-5.45825e-16 -7.34703e-16        00000 
-1.10095e+01 -8.41199e+00        00000 
-8.35828e+00 -5.92298e+00        00000 
 2.13569e-15  1.17835e-15        00000 
-6.74197e+00 -4.36400e+00        00000 
-5.46529e+00 -3.30783e+00        00000 
-4.99600e-16  1.24900e-16        00000 
-4.34524e+00 -2.56976e+00        00000 
-3.31201e+00 -2.05401e+00        00000 
-2.84726e-16 -5.10431e-16        00000 
-2.33384e+00 -1.70486e+00        00000 
-1.38841e+00 -1.48758e+00        00000 
 1.87350e-16  3.74700e-16        00000 
-4.61640e-01 -1.38403e+00        00000 
 4.59993e-01 -1.38422e+00        00000 
-6.15342e-16 -4.91349e-16        00000 
 1.38701e+00 -1.48893e+00        00000 
 2.33191e+00 -1.70650e+00        00000 
 1.87350e-15 -1.24900e-16        00000 
 3.31017e+00 -2.05714e+00        00000 
 4.34221e+00 -2.57328e+00        00000 
-4.99600e-16 -2.49800e-16        00000 
 5.46182e+00 -3.31100e+00        00000 
 6.73876e+00 -4.36709e+00        00000 
 2.81659e-16  6.38629e-16        00000 
 8.35533e+00 -5.92479e+00        00000 
 1.10082e+01 -8.41347e+00        00000 
-4.13582e+01 -3.32841e+01        00000 
-5.56413e+01 -4.50092e+01        00000 
-4.67125e+01 -4.06292e+01        00000 
-2.75687e+01 -2.56476e+01        00000 
-3.86346e+01 -3.67979e+01        00000 
-3.14412e+01 -3.36186e+01        00000 
-1.71503e+01 -2.08813e+01        00000 
-2.49395e+01 -3.10845e+01        00000 
-1.89429e+01 -2.91456e+01        00000 
-8.27058e+00 -1.83565e+01        00000 
-1.33013e+01 -2.77473e+01        00000 
-7.89385e+00 -2.68425e+01        00000 
-1.92400e-03 -1.75703e+01        00000 
-2.61817e+00 -2.63990e+01        00000 
 2.61631e+00 -2.64002e+01        00000 
 8.27083e+00 -1.83610e+01        00000 
 7.89401e+00 -2.68467e+01        00000 
 1.33035e+01 -2.77540e+01        00000 
 1.71481e+01 -2.08905e+01        00000 
 1.89432e+01 -2.91545e+01        00000 
 2.49357e+01 -3.10957e+01        00000 
 2.75582e+01 -2.56606e+01        00000 
 3.14328e+01 -3.36325e+01        00000 
 3.86241e+01 -3.68149e+01        00000 
 4.13482e+01 -3.32984e+01        00000 
 4.67009e+01 -4.06476e+01        00000 
 5.56299e+01 -4.50277e+01        00000 
-7.82854e+01 -7.64373e+01        00000 
-9.33305e+01 -9.18986e+01        00000 
-8.03693e+01 -8.80572e+01        00000 
-5.57615e+01 -6.96242e+01        00000 
-6.81001e+01 -8.47131e+01        00000 
-5.64652e+01 -8.18385e+01        00000 
-3.57109e+01 -6.46658e+01        00000 
-4.53960e+01 -7.94335e+01        00000 
-3.48034e+01 -7.75062e+01        00000 
-1.74163e+01 -6.17035e+01        00000 
-2.45866e+01 -7.60605e+01        00000 
-1.46403e+01 -7.50985e+01        00000 
 5.02294e-03 -6.07280e+01        00000 
-4.85632e+00 -7.46190e+01        00000 
 4.87150e+00 -7.46210e+01        00000 
 1.74242e+01 -6.17115e+01        00000 
 1.46534e+01 -7.51032e+01        00000 
 2.45973e+01 -7.60675e+01        00000 
 3.57160e+01 -6.46769e+01        00000 
 3.48119e+01 -7.75137e+01        00000 
 4.54022e+01 -7.94418e+01        00000 
 5.57599e+01 -6.96377e+01        00000 
 5.64690e+01 -8.18465e+01        00000 
 6.80992e+01 -8.47214e+01        00000 
 7.82757e+01 -7.64514e+01        00000 
 8.03643e+01 -8.80652e+01        00000 
 9.33214e+01 -9.19070e+01        00000 
-1.10407e+02 -1.35770e+02        00000 
-1.26154e+02 -1.54838e+02        00000 
-1.09403e+02 -1.51550e+02        00000 
-8.00847e+01 -1.29940e+02        00000 
-9.33535e+01 -1.48705e+02        00000 
-7.79201e+01 -1.46270e+02        00000 
-5.20584e+01 -1.25702e+02        00000 
-6.30140e+01 -1.44238e+02        00000 
-4.85464e+01 -1.42608e+02        00000 
-2.56174e+01 -1.23135e+02        00000 
-3.44236e+01 -1.41381e+02        00000 
-2.05496e+01 -1.40559e+02        00000 
 1.21904e-02 -1.22272e+02        00000 
-6.82529e+00 -1.40146e+02        00000 
 6.84941e+00 -1.40144e+02        00000 
 2.56402e+01 -1.23130e+02        00000 
 2.05734e+01 -1.40553e+02        00000 
 3.44461e+01 -1.41371e+02        00000 
 5.20757e+01 -1.25694e+02        00000 
 4.85667e+01 -1.42596e+02        00000 
 6.30312e+01 -1.44226e+02        00000 
 8.00948e+01 -1.29931e+02        00000 
 7.79343e+01 -1.46257e+02        00000 
 9.33656e+01 -1.48692e+02        00000 
 1.10411e+02 -1.35761e+02        00000 
 1.09411e+02 -1.51537e+02        00000 
 1.26160e+02 -1.54823e+02        00000 
-1.37689e+02 -2.09925e+02        00000 
-1.53834e+02 -2.32012e+02        00000 
-1.33835e+02 -2.29293e+02        00000 
-1.00598e+02 -2.05070e+02        00000 
-1.14547e+02 -2.26945e+02        00000 
-9.58739e+01 -2.24941e+02        00000 
-6.57822e+01 -2.01562e+02        00000 
-7.77239e+01 -2.23273e+02        00000 
-6.00043e+01 -2.21936e+02        00000 
-3.25041e+01 -1.99446e+02        00000 
-4.26199e+01 -2.20932e+02        00000 
-2.54754e+01 -2.20261e+02        00000 
 6.79773e-03 -1.98736e+02        00000 
-8.47272e+00 -2.19924e+02        00000 
 8.48171e+00 -2.19921e+02        00000 
 3.25200e+01 -1.99436e+02        00000 
 2.54852e+01 -2.20253e+02        00000 
 4.26337e+01 -2.20919e+02        00000 
 6.58006e+01 -2.01544e+02        00000 
 6.00203e+01 -2.21919e+02        00000 
 7.77408e+01 -2.23253e+02        00000 
 1.00614e+02 -2.05048e+02        00000 
 9.58916e+01 -2.24920e+02        00000 
 1.14563e+02 -2.26924e+02        00000 
 1.37702e+02 -2.09900e+02        00000 
 1.33850e+02 -2.29272e+02        00000 
 1.53847e+02 -2.31990e+02        00000 
-1.60044e+02 -2.96495e+02        00000 
-1.76272e+02 -3.20984e+02        00000 
-1.53636e+02 -3.18835e+02        00000 
-1.17371e+02 -2.92612e+02        00000 
-1.31709e+02 -3.16981e+02        00000 
-1.10398e+02 -3.15401e+02        00000 
-7.69775e+01 -2.89818e+02        00000 
-8.96106e+01 -3.14091e+02        00000 
-6.92513e+01 -3.13044e+02        00000 
-3.81082e+01 -2.88141e+02        00000 
-4.92268e+01 -3.12261e+02        00000 
-2.94419e+01 -3.11741e+02        00000 
-2.89014e-03 -2.87581e+02        00000 
-9.80084e+00 -3.11479e+02        00000 
 9.79287e+00 -3.11479e+02        00000 
 3.81094e+01 -2.88135e+02        00000 
 2.94375e+01 -3.11737e+02        00000 
 4.92262e+01 -3.12256e+02        00000 
 7.69868e+01 -2.89808e+02        00000 
 6.92555e+01 -3.13036e+02        00000 
 8.96190e+01 -3.14080e+02        00000 
 1.17386e+02 -2.92600e+02        00000 
 1.10411e+02 -3.15390e+02        00000 
 1.31724e+02 -3.16968e+02        00000 
 1.60060e+02 -2.96484e+02        00000 
 1.53652e+02 -3.18822e+02        00000 
 1.76289e+02 -3.20970e+02        00000 
-1.77469e+02 -3.92998e+02        00000 
-1.93489e+02 -4.19260e+02        00000 
-1.68817e+02 -4.17677e+02        00000 
-1.30416e+02 -3.90089e+02        00000 
-1.44842e+02 -4.16322e+02        00000 
-1.21478e+02 -4.15181e+02        00000 
-8.56414e+01 -3.88031e+02        00000 
-9.86452e+01 -4.14246e+02        00000 
-7.62555e+01 -4.13511e+02        00000 
-4.24280e+01 -3.86817e+02        00000 
-5.42170e+01 -4.12967e+02        00000 
-3.24331e+01 -4.12608e+02        00000 
-1.04796e-02 -3.86415e+02        00000 
-1.08030e+01 -4.12428e+02        00000 
 1.07755e+01 -4.12426e+02        00000 
 4.24114e+01 -3.86809e+02        00000 
 3.24076e+01 -4.12601e+02        00000 
 5.41970e+01 -4.12958e+02        00000 
 8.56362e+01 -3.88019e+02        00000 
 7.62425e+01 -4.13499e+02        00000 
 9.86388e+01 -4.14232e+02        00000 
 1.30419e+02 -3.90075e+02        00000 
 1.21476e+02 -4.15167e+02        00000 
 1.44840e+02 -4.16307e+02        00000 
 1.77476e+02 -3.92980e+02        00000 
 1.68817e+02 -4.17662e+02        00000 
 1.93490e+02 -4.19242e+02        00000 
-1.90049e+02 -4.96927e+02        00000 
-2.05654e+02 -5.24386e+02        00000 
-1.79444e+02 -5.23345e+02        00000 
-1.39665e+02 -4.95013e+02        00000 
-1.53896e+02 -5.22497e+02        00000 
-1.28985e+02 -5.21826e+02        00000 
-9.16445e+01 -4.93759e+02        00000 
-1.04662e+02 -5.21304e+02        00000 
-8.08519e+01 -5.20911e+02        00000 
-4.53748e+01 -4.93065e+02        00000 
-5.74552e+01 -5.20627e+02        00000 
-3.43618e+01 -5.20444e+02        00000 
-2.46249e-02 -4.92841e+02        00000 
-1.14514e+01 -5.20354e+02        00000 
 1.13981e+01 -5.20354e+02        00000 
 4.53309e+01 -4.93061e+02        00000 
 3.43105e+01 -5.20444e+02        00000 
 5.74089e+01 -5.20626e+02        00000 
 9.16146e+01 -4.93750e+02        00000 
 8.08112e+01 -5.20907e+02        00000 
 1.04627e+02 -5.21298e+02        00000 
 1.39645e+02 -4.94998e+02        00000 
 1.28955e+02 -5.21816e+02        00000 
 1.53868e+02 -5.22484e+02        00000 
 1.90027e+02 -4.96908e+02        00000 
 1.79416e+02 -5.23328e+02        00000 
 2.05624e+02 -5.24366e+02        00000 
-1.98066e+02 -6.06233e+02        00000 
-2.13403e+02 -6.34810e+02        00000 
-1.85536e+02 -6.34291e+02        00000 
-1.44882e+02 -6.05329e+02        00000 
-1.58638e+02 -6.33892e+02        00000 
-1.32670e+02 -6.33521e+02        00000 
-9.47690e+01 -6.04717e+02        00000 
-1.07496e+02 -6.33164e+02        00000 
-8.29633e+01 -6.32837e+02        00000 
-4.68500e+01 -6.04308e+02        00000 
-5.89226e+01 -6.32567e+02        00000 
-3.52271e+01 -6.32374e+02        00000 
-2.83818e-02 -6.04163e+02        00000 
-1.17381e+01 -6.32274e+02        00000 
 1.16821e+01 -6.32275e+02        00000 
 4.67915e+01 -6.04311e+02        00000 
 3.51692e+01 -6.32376e+02        00000 
 5.88628e+01 -6.32569e+02        00000 
 9.47125e+01 -6.04719e+02        00000 
 8.29029e+01 -6.32840e+02        00000 
 1.07437e+02 -6.33165e+02        00000 
 1.44830e+02 -6.05325e+02        00000 
 1.32612e+02 -6.33521e+02        00000 
 1.58581e+02 -6.33890e+02        00000 
 1.98019e+02 -6.06221e+02        00000 
 1.85483e+02 -6.34286e+02        00000 
 2.13353e+02 -6.34804e+02        00000 
-1.59441e+01 -1.23758e+01        00000 
-2.77702e+01 -2.24040e+01        00000 
-1.02891e+01 -8.03906e+00        00000 
-1.80403e+01 -1.59196e+01        00000 
-5.88096e+00 -5.90417e+00        00000 
-1.07936e+01 -1.23904e+01        00000 
-1.92088e+00 -5.00124e+00        00000 
-4.49395e+00 -1.07138e+01        00000 
 1.91858e+00 -5.00202e+00        00000 
 1.48805e+00 -1.04001e+01        00000 
 5.87980e+00 -5.90854e+00        00000 
 7.57319e+00 -1.13666e+01        00000 
 1.02833e+01 -8.04656e+00        00000 
 1.42351e+01 -1.38816e+01        00000 
 1.59380e+01 -1.23818e+01        00000 
 2.24023e+01 -1.87042e+01        00000 
 2.77781e+01 -2.16788e+01        00000 
 3.49484e+01 -2.72177e+01        00000 
-5.09025e+01 -4.89928e+01        00000 
-6.41364e+01 -6.22990e+01        00000 
-3.40646e+01 -4.27250e+01        00000 
-4.43838e+01 -5.56239e+01        00000 
-1.95854e+01 -3.86995e+01        00000 
-2.70793e+01 -5.10528e+01        00000 
-6.39581e+00 -3.67698e+01        00000 
-1.13365e+01 -4.85731e+01        00000 
 6.39780e+00 -3.67740e+01        00000 
 3.76526e+00 -4.80880e+01        00000 
 1.95883e+01 -3.87091e+01        00000 
 1.90780e+01 -4.95680e+01        00000 
 3.40611e+01 -4.27387e+01        00000 
 3.54771e+01 -5.30853e+01        00000 
 5.08926e+01 -4.90114e+01        00000 
 5.39091e+01 -5.87226e+01        00000 
 7.07258e+01 -5.71459e+01        00000 
 7.50607e+01 -6.64274e+01        00000 
-8.13447e+01 -1.00755e+02        00000 
-9.54577e+01 -1.17878e+02        00000 
-5.60595e+01 -9.52681e+01        00000 
-6.76385e+01 -1.12130e+02        00000 
-3.27899e+01 -9.15578e+01        00000 
-4.19663e+01 -1.08127e+02        00000 
-1.07806e+01 -8.96943e+01        00000 
-1.77186e+01 -1.05887e+02        00000 
 1.07990e+01 -8.96955e+01        00000 
 5.90327e+00 -1.05436e+02        00000 
 3.28036e+01 -9.15610e+01        00000 
 2.97323e+01 -1.06782e+02        00000 
 5.60668e+01 -9.52704e+01        00000 
 5.45890e+01 -1.09907e+02        00000 
 8.13447e+01 -1.00757e+02        00000 
 8.12445e+01 -1.14779e+02        00000 
 1.09268e+02 -1.07830e+02        00000 
 1.10371e+02 -1.21441e+02        00000 
-1.07406e+02 -1.68293e+02        00000 
-1.22198e+02 -1.88793e+02        00000 
-7.47860e+01 -1.63674e+02        00000 
-8.73284e+01 -1.83977e+02        00000 
-4.40857e+01 -1.60567e+02        00000 
-5.45538e+01 -1.80646e+02        00000 
-1.45574e+01 -1.59002e+02        00000 
-2.31335e+01 -1.78786e+02        00000 
 1.45791e+01 -1.58997e+02        00000 
 7.70601e+00 -1.78409e+02        00000 
 4.41076e+01 -1.60554e+02        00000 
 3.87435e+01 -1.79518e+02        00000 
 7.48029e+01 -1.63658e+02        00000 
 7.07435e+01 -1.82109e+02        00000 
 1.07417e+02 -1.68274e+02        00000 
 1.04470e+02 -1.86174e+02        00000 
 1.42688e+02 -1.74274e+02        00000 
 1.40657e+02 -1.91773e+02        00000 
-1.29134e+02 -2.49482e+02        00000 