<?xml version="1.0" encoding="utf-8"?>
<VTKFile byte_order="LittleEndian" type="UnstructuredGrid" version="0.1">
   <UnstructuredGrid>
      <Piece NumberOfCells="1296" NumberOfPoints="685">
         <Points>
            <DataArray Name="Points" NumberOfComponents="3" format="ascii" type="Float32">
0.0000 0.0000 0.0000
0.0000 0.1111 0.0000
0.0000 0.2222 0.0000
0.0000 0.3333 0.0000
0.0000 0.4444 0.0000
0.0000 0.5556 0.0000
0.0000 0.6667 0.0000
0.0000 0.7778 0.0000
0.0000 0.8889 0.0000
0.0000 1.0000 0.0000
0.2222 0.0000 0.0000
0.2222 0.1111 0.0000
0.2222 0.2222 0.0000
0.2222 0.3333 0.0000
0.2222 0.4444 0.0000
0.2222 0.5556 0.0000
0.2222 0.6667 0.0000
0.2222 0.7778 0.0000
0.2222 0.8889 0.0000
0.2222 1.0000 0.0000
0.4444 0.0000 0.0000
0.4444 0.1111 0.0000
0.4444 0.2222 0.0000
0.4444 0.3333 0.0000
0.4444 0.4444 0.0000
0.4444 0.5556 0.0000
0.4444 0.6667 0.0000
0.4444 0.7778 0.0000
0.4444 0.8889 0.0000
0.4444 1.0000 0.0000
0.6667 0.0000 0.0000
0.6667 0.1111 0.0000
0.6667 0.2222 0.0000
0.6667 0.3333 0.0000
0.6667 0.4444 0.0000
0.6667 0.5556 0.0000
0.6667 0.6667 0.0000
0.6667 0.7778 0.0000
0.6667 0.8889 0.0000
0.6667 1.0000 0.0000
0.8889 0.0000 0.0000
0.8889 0.1111 0.0000
0.8889 0.2222 0.0000
0.8889 0.3333 0.0000
0.8889 0.4444 0.0000
0.8889 0.5556 0.0000
0.8889 0.6667 0.0000
0.8889 0.7778 0.0000
0.8889 0.8889 0.0000
0.8889 1.0000 0.0000
1.1111 0.0000 0.0000
1.1111 0.1111 0.0000
1.1111 0.2222 0.0000
1.1111 0.3333 0.0000
1.1111 0.4444 0.0000
1.1111 0.5556 0.0000
1.1111 0.6667 0.0000
1.1111 0.7778 0.0000
1.1111 0.8889 0.0000
1.1111 1.0000 0.0000
1.3333 0.0000 0.0000
1.3333 0.1111 0.0000
1.3333 0.2222 0.0000
1.3333 0.3333 0.0000
1.3333 0.4444 0.0000
1.3333 0.5556 0.0000
1.3333 0.6667 0.0000
1.3333 0.7778 0.0000
1.3333 0.8889 0.0000
1.3333 1.0000 0.0000
1.5556 0.0000 0.0000
1.5556 0.1111 0.0000
1.5556 0.2222 0.0000
1.5556 0.3333 0.0000
1.5556 0.4444 0.0000
1.5556 0.5556 0.0000
1.5556 0.6667 0.0000
1.5556 0.7778 0.0000
1.5556 0.8889 0.0000
1.5556 1.0000 0.0000
1.7778 0.0000 0.0000
1.7778 0.1111 0.0000
1.7778 0.2222 0.0000
1.7778 0.3333 0.0000
1.7778 0.4444 0.0000
1.7778 0.5556 0.0000
1.7778 0.6667 0.0000
1.7778 0.7778 0.0000
1.7778 0.8889 0.0000
1.7778 1.0000 0.0000
2.0000 0.0000 0.0000
2.0000 0.1111 0.0000
2.0000 0.2222 0.0000
2.0000 0.3333 0.0000
2.0000 0.4444 0.0000
2.0000 0.5556 0.0000
2.0000 0.6667 0.0000
2.0000 0.7778 0.0000
2.0000 0.8889 0.0000
2.0000 1.0000 0.0000
0.1111 0.0556 0.0000
0.1111 0.1667 0.0000
0.1111 0.2778 0.0000
0.1111 0.3889 0.0000
0.1111 0.5000 0.0000
0.1111 0.6111 0.0000
0.1111 0.7222 0.0000
0.1111 0.8333 0.0000
0.1111 0.9444 0.0000
0.3333 0.0556 0.0000
0.3333 0.1667 0.0000
0.3333 0.2778 0.0000
0.3333 0.3889 0.0000
0.3333 0.5000 0.0000
0.3333 0.6111 0.0000
0.3333 0.7222 0.0000
0.3333 0.8333 0.0000
0.3333 0.9444 0.0000
0.5556 0.0556 0.0000
0.5556 0.1667 0.0000
0.5556 0.2778 0.0000
0.5556 0.3889 0.0000
0.5556 0.5000 0.0000
0.5556 0.6111 0.0000
0.5556 0.7222 0.0000
0.5556 0.8333 0.0000
0.5556 0.9444 0.0000
0.7778 0.0556 0.0000
0.7778 0.1667 0.0000
0.7778 0.2778 0.0000
0.7778 0.3889 0.0000
0.7778 0.5000 0.0000
0.7778 0.6111 0.0000
0.7778 0.7222 0.0000
0.7778 0.8333 0.0000
0.7778 0.9444 0.0000
1.0000 0.0556 0.0000
1.0000 0.1667 0.0000
1.0000 0.2778 0.0000
1.0000 0.3889 0.0000
1.0000 0.5000 0.0000
1.0000 0.6111 0.0000
1.0000 0.7222 0.0000
1.0000 0.8333 0.0000
1.0000 0.9444 0.0000
1.2222 0.0556 0.0000
1.2222 0.1667 0.0000
1.2222 0.2778 0.0000
1.2222 0.3889 0.0000
1.2222 0.5000 0.0000
1.2222 0.6111 0.0000
1.2222 0.7222 0.0000
1.2222 0.8333 0.0000
1.2222 0.9444 0.0000
1.4444 0.0556 0.0000
1.4444 0.1667 0.0000
1.4444 0.2778 0.0000
1.4444 0.3889 0.0000
1.4444 0.5000 0.0000
1.4444 0.6111 0.0000
1.4444 0.7222 0.0000
1.4444 0.8333 0.0000
1.4444 0.9444 0.0000
1.6667 0.0556 0.0000
1.6667 0.1667 0.0000
1.6667 0.2778 0.0000
1.6667 0.3889 0.0000
1.6667 0.5000 0.0000
1.6667 0.6111 0.0000
1.6667 0.7222 0.0000
1.6667 0.8333 0.0000
1.6667 0.9444 0.0000
1.8889 0.0556 0.0000
1.8889 0.1667 0.0000
1.8889 0.2778 0.0000
1.8889 0.3889 0.0000
1.8889 0.5000 0.0000
1.8889 0.6111 0.0000
1.8889 0.7222 0.0000
1.8889 0.8333 0.0000
1.8889 0.9444 0.0000
0.0000 0.0556 0.0000
0.0556 0.0278 0.0000
0.0556 0.0833 0.0000
0.0000 0.1667 0.0000
0.0556 0.1389 0.0000
0.0556 0.1944 0.0000
0.0000 0.2778 0.0000
0.0556 0.2500 0.0000
0.0556 0.3056 0.0000
0.0000 0.3889 0.0000
0.0556 0.3611 0.0000
0.0556 0.4167 0.0000
0.0000 0.5000 0.0000
0.0556 0.4722 0.0000
0.0556 0.5278 0.0000
0.0000 0.6111 0.0000
0.0556 0.5833 0.0000
0.0556 0.6389 0.0000
0.0000 0.7222 0.0000
0.0556 0.6944 0.0000
0.0556 0.7500 0.0000
0.0000 0.8333 0.0000
0.0556 0.8056 0.0000
0.0556 0.8611 0.0000
0.0000 0.9444 0.0000
0.0556 0.9167 0.0000
0.0556 0.9722 0.0000
0.2222 0.0556 0.0000
0.2778 0.0278 0.0000
0.2778 0.0833 0.0000
0.2222 0.1667 0.0000
0.2778 0.1389 0.0000
0.2778 0.1944 0.0000
0.2222 0.2778 0.0000
0.2778 0.2500 0.0000
0.2778 0.3056 0.0000
0.2222 0.3889 0.0000
0.2778 0.3611 0.0000
0.2778 0.4167 0.0000
0.2222 0.5000 0.0000
0.2778 0.4722 0.0000
0.2778 0.5278 0.0000
0.2222 0.6111 0.0000
0.2778 0.5833 0.0000
0.2778 0.6389 0.0000
0.2222 0.7222 0.0000
0.2778 0.6944 0.0000
0.2778 0.7500 0.0000
0.2222 0.8333 0.0000
0.2778 0.8056 0.0000
0.2778 0.8611 0.0000
0.2222 0.9444 0.0000
0.2778 0.9167 0.0000
0.2778 0.9722 0.0000
0.4444 0.0556 0.0000
0.5000 0.0278 0.0000
0.5000 0.0833 0.0000
0.4444 0.1667 0.0000
0.5000 0.1389 0.0000
0.5000 0.1944 0.0000
0.4444 0.2778 0.0000
0.5000 0.2500 0.0000
0.5000 0.3056 0.0000
0.4444 0.3889 0.0000
0.5000 0.3611 0.0000
0.5000 0.4167 0.0000
0.4444 0.5000 0.0000
0.5000 0.4722 0.0000
0.5000 0.5278 0.0000
0.4444 0.6111 0.0000
0.5000 0.5833 0.0000
0.5000 0.6389 0.0000
0.4444 0.7222 0.0000
0.5000 0.6944 0.0000
0.5000 0.7500 0.0000
0.4444 0.8333 0.0000
0.5000 0.8056 0.0000
0.5000 0.8611 0.0000
0.4444 0.9444 0.0000
0.5000 0.9167 0.0000
0.5000 0.9722 0.0000
0.6667 0.0556 0.0000
0.7222 0.0278 0.0000
0.7222 0.0833 0.0000
0.6667 0.1667 0.0000
0.7222 0.1389 0.0000
0.7222 0.1944 0.0000
0.6667 0.2778 0.0000
0.7222 0.2500 0.0000
0.7222 0.3056 0.0000
0.6667 0.3889 0.0000
0.7222 0.3611 0.0000
0.7222 0.4167 0.0000
0.6667 0.5000 0.0000
0.7222 0.4722 0.0000
0.7222 0.5278 0.0000
0.6667 0.6111 0.0000
0.7222 0.5833 0.0000
0.7222 0.6389 0.0000
0.6667 0.7222 0.0000
0.7222 0.6944 0.0000
0.7222 0.7500 0.0000
0.6667 0.8333 0.0000
0.7222 0.8056 0.0000
0.7222 0.8611 0.0000
0.6667 0.9444 0.0000
0.7222 0.9167 0.0000
0.7222 0.9722 0.0000
0.8889 0.0556 0.0000
0.9444 0.0278 0.0000
0.9444 0.0833 0.0000
0.8889 0.1667 0.0000
0.9444 0.1389 0.0000
0.9444 0.1944 0.0000
0.8889 0.2778 0.0000
0.9444 0.2500 0.0000
0.9444 0.3056 0.0000
0.8889 0.3889 0.0000
0.9444 0.3611 0.0000
0.9444 0.4167 0.0000
0.8889 0.5000 0.0000
0.9444 0.4722 0.0000
0.9444 0.5278 0.0000
0.8889 0.6111 0.0000
0.9444 0.5833 0.0000
0.9444 0.6389 0.0000
0.8889 0.7222 0.0000
0.9444 0.6944 0.0000
0.9444 0.7500 0.0000
0.8889 0.8333 0.0000
0.9444 0.8056 0.0000
0.9444 0.8611 0.0000
0.8889 0.9444 0.0000
0.9444 0.9167 0.0000
0.9444 0.9722 0.0000
1.1111 0.0556 0.0000
1.1667 0.0278 0.0000
1.1667 0.0833 0.0000
1.1111 0.1667 0.0000
1.1667 0.1389 0.0000
1.1667 0.1944 0.0000
1.1111 0.2778 0.0000
1.1667 0.2500 0.0000
1.1667 0.3056 0.0000
1.1111 0.3889 0.0000
1.1667 0.3611 0.0000
1.1667 0.4167 0.0000
1.1111 0.5000 0.0000
1.1667 0.4722 0.0000
1.1667 0.5278 0.0000
1.1111 0.6111 0.0000
1.1667 0.5833 0.0000
1.1667 0.6389 0.0000
1.1111 0.7222 0.0000
1.1667 0.6944 0.0000
1.1667 0.7500 0.0000
1.1111 0.8333 0.0000
1.1667 0.8056 0.0000
1.1667 0.8611 0.0000
1.1111 0.9444 0.0000
1.1667 0.9167 0.0000
1.1667 0.9722 0.0000
1.3333 0.0556 0.0000
1.3889 0.0278 0.0000
1.3889 0.0833 0.0000
1.3333 0.1667 0.0000
1.3889 0.1389 0.0000
1.3889 0.1944 0.0000
1.3333 0.2778 0.0000
1.3889 0.2500 0.0000
1.3889 0.3056 0.0000
1.3333 0.3889 0.0000
1.3889 0.3611 0.0000
1.3889 0.4167 0.0000
1.3333 0.5000 0.0000
1.3889 0.4722 0.0000
1.3889 0.5278 0.0000
1.3333 0.6111 0.0000
1.3889 0.5833 0.0000
1.3889 0.6389 0.0000
1.3333 0.7222 0.0000
1.3889 0.6944 0.0000
1.3889 0.7500 0.0000
1.3333 0.8333 0.0000
1.3889 0.8056 0.0000
1.3889 0.8611 0.0000
1.3333 0.9444 0.0000
1.3889 0.9167 0.0000
1.3889 0.9722 0.0000
1.5556 0.0556 0.0000
1.6111 0.0278 0.0000
1.6111 0.0833 0.0000
1.5556 0.1667 0.0000
1.6111 0.1389 0.0000
1.6111 0.1944 0.0000
1.5556 0.2778 0.0000
1.6111 0.2500 0.0000
1.6111 0.3056 0.0000
1.5556 0.3889 0.0000
1.6111 0.3611 0.0000
1.6111 0.4167 0.0000
1.5556 0.5000 0.0000
1.6111 0.4722 0.0000
1.6111 0.5278 0.0000
1.5556 0.6111 0.0000
1.6111 0.5833 0.0000
1.6111 0.6389 0.0000
1.5556 0.7222 0.0000
1.6111 0.6944 0.0000
1.6111 0.7500 0.0000
1.5556 0.8333 0.0000
1.6111 0.8056 0.0000
1.6111 0.8611 0.0000
1.5556 0.9444 0.0000
1.6111 0.9167 0.0000
1.6111 0.9722 0.0000
1.7778 0.0556 0.0000
1.8333 0.0278 0.0000
1.8333 0.0833 0.0000
1.7778 0.1667 0.0000
1.8333 0.1389 0.0000
1.8333 0.1944 0.0000
1.7778 0.2778 0.0000
1.8333 0.2500 0.0000
1.8333 0.3056 0.0000
1.7778 0.3889 0.0000
1.8333 0.3611 0.0000
1.8333 0.4167 0.0000
1.7778 0.5000 0.0000
1.8333 0.4722 0.0000
1.8333 0.5278 0.0000
1.7778 0.6111 0.0000
1.8333 0.5833 0.0000
1.8333 0.6389 0.0000
1.7778 0.7222 0.0000
1.8333 0.6944 0.0000
1.8333 0.7500 0.0000
1.7778 0.8333 0.0000
1.8333 0.8056 0.0000
1.8333 0.8611 0.0000
1.7778 0.9444 0.0000
1.8333 0.9167 0.0000
1.8333 0.9722 0.0000
0.1111 0.1111 0.0000
0.1667 0.0833 0.0000
0.1111 0.2222 0.0000
0.1667 0.1944 0.0000
0.1111 0.3333 0.0000
0.1667 0.3056 0.0000
0.1111 0.4444 0.0000
0.1667 0.4167 0.0000
0.1111 0.5556 0.0000
0.1667 0.5278 0.0000
0.1111 0.6667 0.0000
0.1667 0.6389 0.0000
0.1111 0.7778 0.0000
0.1667 0.7500 0.0000
0.1111 0.8889 0.0000
0.1667 0.8611 0.0000
0.1111 1.0000 0.0000
0.1667 0.9722 0.0000
0.3333 0.1111 0.0000
0.3889 0.0833 0.0000
0.3333 0.2222 0.0000
0.3889 0.1944 0.0000
0.3333 0.3333 0.0000
0.3889 0.3056 0.0000
0.3333 0.4444 0.0000
0.3889 0.4167 0.0000
0.3333 0.5556 0.0000
0.3889 0.5278 0.0000
0.3333 0.6667 0.0000
0.3889 0.6389 0.0000
0.3333 0.7778 0.0000
0.3889 0.7500 0.0000
0.3333 0.8889 0.0000
0.3889 0.8611 0.0000
0.3333 1.0000 0.0000
0.3889 0.9722 0.0000
0.5556 0.1111 0.0000
[...]
         <PointData>
            <DataArray Name="fValues" NumberOfComponents="3" format="ascii" type="Float64">
 1.22377e-15  6.11883e-16        00000 
-1.98082e-16 -1.98082e-16        00000 
 7.99284e-16  7.56576e-16        00000 
-2.63026e-16 -7.23322e-16        00000 
 7.29761e-17 -5.15732e-16        00000 
       00000 -6.57565e-17        00000 
 8.64352e-16 -8.08654e-16        00000 
 1.05115e-15  6.89819e-16        00000 
-1.32086e-15        00000        00000 
 3.67130e-15 -3.05941e-15        00000 
-4.96305e+01 -3.77311e+01        00000 
-3.37708e+01 -2.90110e+01        00000 
-2.20183e+01 -2.28741e+01        00000 
-1.25591e+01 -1.93189e+01        00000 
-4.09912e+00 -1.77039e+01        00000 
 4.07495e+00 -1.76997e+01        00000 
 1.25374e+01 -1.93088e+01        00000 
 2.20015e+01 -2.28580e+01        00000 
 3.37526e+01 -2.89906e+01        00000 
 4.96046e+01 -3.77060e+01        00000 
-9.03299e+01 -8.01801e+01        00000 
-6.64854e+01 -7.26013e+01        00000 
-4.53386e+01 -6.66970e+01        00000 
-2.63405e+01 -6.27404e+01        00000 
-8.65134e+00 -6.07749e+01        00000 
 8.60639e+00 -6.07699e+01        00000 
 2.62961e+01 -6.27276e+01        00000 
 4.53007e+01 -6.66784e+01        00000 
 6.64538e+01 -7.25754e+01        00000 
 9.03017e+01 -8.01504e+01        00000 
-1.26272e+02 -1.38755e+02        00000 
-9.46488e+01 -1.32232e+02        00000 
-6.56573e+01 -1.27197e+02        00000 
-3.86070e+01 -1.23797e+02        00000 
-1.27549e+01 -1.22086e+02        00000 
 1.26911e+01 -1.22085e+02        00000 
 3.85418e+01 -1.23794e+02        00000 
 6.55959e+01 -1.27191e+02        00000 
 9.45950e+01 -1.32221e+02        00000 
 1.26225e+02 -1.38736e+02        00000 
-1.56900e+02 -2.12092e+02        00000 
-1.18493e+02 -2.06645e+02        00000 
-8.27442e+01 -2.02467e+02        00000 
-4.88941e+01 -1.99664e+02        00000 
-1.61942e+01 -1.98259e+02        00000 
 1.61191e+01 -1.98262e+02        00000 
 4.88185e+01 -1.99668e+02        00000 
 8.26690e+01 -2.02473e+02        00000 
 1.18419e+02 -2.06653e+02        00000 
 1.56826e+02 -2.12096e+02        00000 
-1.82001e+02 -2.97845e+02        00000 
-1.38019e+02 -2.93483e+02        00000 
-9.66952e+01 -2.90143e+02        00000 
-5.72677e+01 -2.87915e+02        00000 
-1.89862e+01 -2.86804e+02        00000 
 1.89124e+01 -2.86805e+02        00000 
 5.71920e+01 -2.87919e+02        00000 
 9.66148e+01 -2.90151e+02        00000 
 1.37934e+02 -2.93492e+02        00000 
 1.81913e+02 -2.97853e+02        00000 
-2.01558e+02 -3.93505e+02        00000 
-1.53220e+02 -3.90226e+02        00000 
-1.07516e+02 -3.87745e+02        00000 
-6.37331e+01 -3.86118e+02        00000 
-2.11354e+01 -3.85320e+02        00000 
 2.10615e+01 -3.85321e+02        00000 
 6.36597e+01 -3.86123e+02        00000 
 1.07440e+02 -3.87752e+02        00000 
 1.53140e+02 -3.90235e+02        00000 
 2.01479e+02 -3.93517e+02        00000 
-2.15708e+02 -4.96611e+02        00000 
-1.64103e+02 -4.94390e+02        00000 
-1.15087e+02 -4.92821e+02        00000 
-6.81572e+01 -4.91869e+02        00000 
-2.25855e+01 -4.91425e+02        00000 
 2.25208e+01 -4.91428e+02        00000 
 6.80973e+01 -4.91878e+02        00000 
 1.15026e+02 -4.92834e+02        00000 
 1.64039e+02 -4.94409e+02        00000 
 2.15640e+02 -4.96633e+02        00000 
-2.25114e+02 -6.05180e+02        00000 
-1.70605e+02 -6.03977e+02        00000 
-1.19152e+02 -6.03253e+02        00000 
-7.03993e+01 -6.02739e+02        00000 
-2.32969e+01 -6.02456e+02        00000 
 2.32542e+01 -6.02459e+02        00000 
 7.03541e+01 -6.02743e+02        00000 
 1.19105e+02 -6.03255e+02        00000 
 1.70554e+02 -6.03977e+02        00000 
 2.25062e+02 -6.05181e+02        00000 
-2.30910e+02 -7.23240e+02        00000 
-1.73314e+02 -7.20422e+02        00000 
-1.21037e+02 -7.17068e+02        00000 
-7.15948e+01 -7.14493e+02        00000 
-2.37038e+01 -7.13119e+02        00000 
 2.36733e+01 -7.13113e+02        00000 
 7.15522e+01 -7.14482e+02        00000 
 1.20991e+02 -7.17061e+02        00000 
 1.73273e+02 -7.20423e+02        00000 
 2.30878e+02 -7.23249e+02        00000 
-2.00849e+01 -1.60616e+01        00000 
-1.28193e+01 -9.79825e+00        00000 
-7.97661e+00 -6.76119e+00        00000 
-3.86218e+00 -5.31029e+00        00000 
-6.11667e-03 -4.87401e+00        00000 
 3.85076e+00 -5.30501e+00        00000 
 7.96815e+00 -6.75152e+00        00000 
 1.28122e+01 -9.78706e+00        00000 
 2.00726e+01 -1.60472e+01        00000 
-6.02656e+01 -5.27283e+01        00000 
-4.19944e+01 -4.54510e+01        00000 
-2.65300e+01 -4.03172e+01        00000 
-1.28664e+01 -3.73691e+01        00000 
-1.80811e-02 -3.64124e+01        00000 
 1.28321e+01 -3.73597e+01        00000 
 2.65005e+01 -4.03004e+01        00000 
 4.19700e+01 -4.54293e+01        00000 
 6.02392e+01 -5.27024e+01        00000 
-9.46575e+01 -1.03793e+02        00000 
-6.82168e+01 -9.74877e+01        00000 
-4.41076e+01 -9.28867e+01        00000 
-2.16465e+01 -9.01007e+01        00000 
-2.85155e-02 -8.91686e+01        00000 
 2.15908e+01 -9.00945e+01        00000 
 4.40545e+01 -9.28750e+01        00000 
 6.81711e+01 -9.74704e+01        00000 
 9.46204e+01 -1.03771e+02        00000 
-1.24310e+02 -1.70572e+02        00000 
-9.05695e+01 -1.65244e+02        00000 
-5.91031e+01 -1.61388e+02        00000 
-2.91766e+01 -1.59060e+02        00000 
-3.52270e-02 -1.58282e+02        00000 
 2.91060e+01 -1.59061e+02        00000 
 5.90312e+01 -1.61391e+02        00000 
 9.05007e+01 -1.65246e+02        00000 
 1.24246e+02 -1.70569e+02        00000 
-1.49087e+02 -2.50993e+02        00000 
-1.09168e+02 -2.46633e+02        00000 
-7.15228e+01 -2.43493e+02        00000 
-3.53971e+01 -2.41608e+02        00000 
-3.72829e-02 -2.40981e+02        00000 
 3.53221e+01 -2.41613e+02        00000 
 7.14442e+01 -2.43504e+02        00000 
 1.09089e+02 -2.46645e+02        00000 
 1.49005e+02 -2.51003e+02        00000 
-1.68933e+02 -3.42584e+02        00000 
-1.24047e+02 -3.39196e+02        00000 
-8.14312e+01 -3.36770e+02        00000 
-4.03458e+01 -3.35324e+02        00000 
-3.69551e-02 -3.34845e+02        00000 
 4.02720e+01 -3.35326e+02        00000 
 8.13537e+01 -3.36774e+02        00000 
 1.23966e+02 -3.39202e+02        00000 
 1.68846e+02 -3.42594e+02        00000 
-1.83875e+02 -4.42824e+02        00000 
-1.35174e+02 -4.40419e+02        00000 
-8.87654e+01 -4.38760e+02        00000 
-4.39773e+01 -4.37808e+02        00000 
-3.71049e-02 -4.37500e+02        00000 
 4.39060e+01 -4.37812e+02        00000 
 8.86946e+01 -4.38768e+02        00000 
 1.35102e+02 -4.40432e+02        00000 
 1.83802e+02 -4.42842e+02        00000 
-1.94090e+02 -5.49342e+02        00000 
-1.42419e+02 -5.47945e+02        00000 
-9.33072e+01 -5.47106e+02        00000 
-4.61557e+01 -5.46648e+02        00000 
-2.74255e-02 -5.46502e+02        00000 
 4.61036e+01 -5.46652e+02        00000 
 9.32576e+01 -5.47112e+02        00000 
 1.42366e+02 -5.47955e+02        00000 
 1.94032e+02 -5.49353e+02        00000 
-1.99752e+02 -6.61427e+02        00000 
-1.45630e+02 -6.60546e+02        00000 
-9.52117e+01 -6.59477e+02        00000 
-4.70671e+01 -6.58652e+02        00000 
-1.61418e-02 -6.58348e+02        00000 
 4.70281e+01 -6.58651e+02        00000 
 9.51651e+01 -6.59474e+02        00000 
 1.45583e+02 -6.60541e+02        00000 
 1.99707e+02 -6.61425e+02        00000 
 3.60149e-17 -2.24893e-16        00000 
-1.09766e+01 -8.38794e+00        00000 
-8.33277e+00 -5.90707e+00        00000 
 6.16186e-16  3.73504e-16        00000 
-6.72177e+00 -4.35298e+00        00000 
-5.44798e+00 -3.29984e+00        00000 
 2.49800e-16 -4.99600e-16        00000 
-4.33201e+00 -2.56402e+00        00000 
-3.30285e+00 -2.04936e+00        00000 
-3.86863e-16  3.35756e-16        00000 
-2.32852e+00 -1.69956e+00        00000 
-1.38557e+00 -1.48150e+00        00000 
 6.24500e-17 -6.24500e-16        00000 
-4.61620e-01 -1.37649e+00        00000 
 4.56708e-01 -1.37574e+00        00000 
 7.92692e-16  9.87557e-18        00000 
 1.38076e+00 -1.47934e+00        00000 
 2.32303e+00 -1.69554e+00        00000 
 9.99201e-16 -8.74301e-16        00000 
 3.29840e+00 -2.04351e+00        00000 
 4.32797e+00 -2.55807e+00        00000 
 4.99600e-16 -1.74860e-15        00000 
 5.44444e+00 -3.29369e+00        00000 
 6.71735e+00 -4.34678e+00        00000 
-8.03474e-16  2.08726e-15        00000 
 8.32768e+00 -5.90001e+00        00000 
 1.09695e+01 -8.38020e+00        00000 
-4.12337e+01 -3.31881e+01        00000 
-5.54737e+01 -4.48810e+01        00000 
-4.65697e+01 -4.05137e+01        00000 
-2.74845e+01 -2.55748e+01        00000 
-3.85160e+01 -3.66930e+01        00000 
-3.13480e+01 -3.35222e+01        00000 
-1.71049e+01 -2.08201e+01        00000 
-2.48699e+01 -3.09930e+01        00000 
-1.88957e+01 -2.90583e+01        00000 
-8.25549e+00 -1.82976e+01        00000 
-1.32730e+01 -2.76609e+01        00000 
-7.88322e+00 -2.67554e+01        00000 
-1.28585e-02 -1.75078e+01        00000 
-2.62386e+00 -2.63088e+01        00000 
 2.59294e+00 -2.63063e+01        00000 
 8.23218e+00 -1.82906e+01        00000 
 7.85370e+00 -2.67481e+01        00000 
 1.32451e+01 -2.76499e+01        00000 
 1.70850e+01 -2.08073e+01        00000 
 1.88695e+01 -2.90437e+01        00000 
 2.48459e+01 -3.09764e+01        00000 
 2.74672e+01 -2.55560e+01        00000 
 3.13260e+01 -3.35027e+01        00000 
 3.84946e+01 -3.66723e+01        00000 
 4.12111e+01 -3.31649e+01        00000 
 4.65465e+01 -4.04906e+01        00000 
 5.54467e+01 -4.48559e+01        00000 
-7.80472e+01 -7.62126e+01        00000 
-9.30449e+01 -9.16202e+01        00000 
-8.01298e+01 -8.77893e+01        00000 
-5.56010e+01 -6.94165e+01        00000 
-6.79031e+01 -8.44536e+01        00000 
-5.63094e+01 -8.15859e+01        00000 
-3.56202e+01 -6.44686e+01        00000 
-4.52770e+01 -7.91859e+01        00000 
-3.47203e+01 -7.72625e+01        00000 
-1.73873e+01 -6.15104e+01        00000 
-2.45391e+01 -7.58198e+01        00000 
-1.46263e+01 -7.48583e+01        00000 
-2.22346e-02 -6.05282e+01        00000 
-4.87555e+00 -7.43766e+01        00000 
 4.82354e+00 -7.43747e+01        00000 
 1.73422e+01 -6.15018e+01        00000 
 1.45751e+01 -7.48520e+01        00000 
 2.44879e+01 -7.58107e+01        00000 
 3.55782e+01 -6.44533e+01        00000 
 3.46714e+01 -7.72508e+01        00000 
 4.52307e+01 -7.91705e+01        00000 
 5.55661e+01 -6.93939e+01        00000 
 5.62663e+01 -8.15668e+01        00000 
 6.78645e+01 -8.44319e+01        00000 
 7.80174e+01 -7.61835e+01        00000 
 8.00952e+01 -8.77650e+01        00000 
 9.30138e+01 -9.15938e+01        00000 
-1.10086e+02 -1.35330e+02        00000 
-1.25788e+02 -1.54329e+02        00000 
-1.09094e+02 -1.51050e+02        00000 
-7.98674e+01 -1.29515e+02        00000 
-9.30985e+01 -1.48213e+02        00000 
-7.77162e+01 -1.45786e+02        00000 
-5.19343e+01 -1.25289e+02        00000 
-6.28589e+01 -1.43759e+02        00000 
-4.84380e+01 -1.42133e+02        00000 
-2.55799e+01 -1.22729e+02        00000 
-3.43601e+01 -1.40911e+02        00000 
-2.05295e+01 -1.40094e+02        00000 
-3.31034e-02 -1.21872e+02        00000 
-6.84952e+00 -1.39685e+02        00000 
 6.78139e+00 -1.39685e+02        00000 
 2.55142e+01 -1.22727e+02        00000 
 2.04618e+01 -1.40094e+02        00000 
 3.42913e+01 -1.40911e+02        00000 
 5.18692e+01 -1.25285e+02        00000 
 4.83692e+01 -1.42133e+02        00000 
 6.27901e+01 -1.43759e+02        00000 
 7.98092e+01 -1.29506e+02        00000 
 7.76503e+01 -1.45783e+02        00000 
 9.30365e+01 -1.48208e+02        00000 
 1.10035e+02 -1.35315e+02        00000 
 1.09036e+02 -1.51042e+02        00000 
 1.25733e+02 -1.54319e+02        00000 
-1.37314e+02 -2.09229e+02        00000 
-1.53417e+02 -2.31252e+02        00000 
-1.33479e+02 -2.28539e+02        00000 
-1.00334e+02 -2.04386e+02        00000 
-1.14246e+02 -2.26195e+02        00000 
-9.56304e+01 -2.24196e+02        00000 
-6.56287e+01 -2.00891e+02        00000 
-7.75357e+01 -2.22532e+02        00000 
-5.98681e+01 -2.21202e+02        00000 
-3.24471e+01 -1.98786e+02        00000 
-4.25334e+01 -2.20204e+02        00000 
-2.54393e+01 -2.19539e+02        00000 
-3.77124e-02 -1.98085e+02        00000 
-8.48904e+00 -2.19207e+02        00000 
 8.41353e+00 -2.19208e+02        00000 
 3.23718e+01 -1.98790e+02        00000 
 2.53635e+01 -2.19543e+02        00000 
 4.24573e+01 -2.20210e+02        00000 
 6.55527e+01 -2.00897e+02        00000 
 5.97908e+01 -2.21210e+02        00000 
 7.74584e+01 -2.22541e+02        00000 
 1.00258e+02 -2.04394e+02        00000 
 9.55535e+01 -2.24206e+02        00000 
 1.14169e+02 -2.26206e+02        00000 
 1.37240e+02 -2.09235e+02        00000 
 1.33401e+02 -2.28548e+02        00000 
 1.53338e+02 -2.31260e+02        00000 
-1.59627e+02 -2.95552e+02        00000 
-1.75813e+02 -3.19970e+02        00000 
-1.53240e+02 -3.17827e+02        00000 
-1.17073e+02 -2.91676e+02        00000 
-1.31374e+02 -3.15976e+02        00000 
-1.10121e+02 -3.14401e+02        00000 
-7.67908e+01 -2.88889e+02        00000 
-8.93897e+01 -3.13094e+02        00000 
-6.90860e+01 -3.12052e+02        00000 
-3.80306e+01 -2.87220e+02        00000 
-4.91169e+01 -3.11272e+02        00000 
-2.93886e+01 -3.10754e+02        00000 
-3.73616e-02 -2.86665e+02        00000 
-9.80532e+00 -3.10495e+02        00000 
 9.73035e+00 -3.10496e+02        00000 
 3.79566e+01 -2.87223e+02        00000 
 2.93149e+01 -3.10756e+02        00000 
 4.90420e+01 -3.11275e+02        00000 
 7.67130e+01 -2.88895e+02        00000 
 6.90095e+01 -3.12056e+02        00000 
 8.93104e+01 -3.13100e+02        00000 
 1.16991e+02 -2.91684e+02        00000 
 1.10040e+02 -3.14408e+02        00000 
 1.31292e+02 -3.15985e+02        00000 
 1.59539e+02 -2.95561e+02        00000 
 1.53154e+02 -3.17836e+02        00000 
 1.75724e+02 -3.19981e+02        00000 
-1.77012e+02 -3.91779e+02        00000 
-1.92987e+02 -4.17968e+02        00000 
-1.68382e+02 -4.16390e+02        00000 
-1.30084e+02 -3.88878e+02        00000 
-1.44470e+02 -4.15038e+02        00000 
-1.21169e+02 -4.13900e+02        00000 
-8.54305e+01 -3.86826e+02        00000 
-9.83971e+01 -4.12969e+02        00000 
-7.60672e+01 -4.12237e+02        00000 
-4.23345e+01 -3.85618e+02        00000 
-5.40877e+01 -4.11696e+02        00000 
-3.23646e+01 -4.11340e+02        00000 
-3.78355e-02 -3.85222e+02        00000 
-1.07954e+01 -4.11164e+02        00000 
 1.07208e+01 -4.11165e+02        00000 
 4.22602e+01 -3.85620e+02        00000 
 3.22902e+01 -4.11342e+02        00000 
 5.40152e+01 -4.11699e+02        00000 
 8.53543e+01 -3.86832e+02        00000 
 7.59937e+01 -4.12241e+02        00000 
 9.83227e+01 -4.12976e+02        00000 
 1.30005e+02 -3.88887e+02        00000 
 1.21094e+02 -4.13908e+02        00000 
 1.44394e+02 -4.15048e+02        00000 
 1.76931e+02 -3.91790e+02        00000 
 1.68306e+02 -4.16402e+02        00000 
 1.92911e+02 -4.17983e+02        00000 
-1.89552e+02 -4.95428e+02        00000 
-2.05116e+02 -5.22820e+02        00000 
-1.78971e+02 -5.21782e+02        00000 
-1.39299e+02 -4.93522e+02        00000 
-1.53489e+02 -5.20939e+02        00000 
-1.28641e+02 -5.20272e+02        00000 
-9.14017e+01 -4.92275e+02        00000 
-1.04380e+02 -5.19754e+02        00000 
-8.06314e+01 -5.19364e+02        00000 
-4.52552e+01 -4.91589e+02        00000 
-5.72978e+01 -5.19084e+02        00000 
-3.42693e+01 -5.18903e+02        00000 
-3.25726e-02 -4.91372e+02        00000 
-1.14225e+01 -5.18815e+02        00000 
 1.13618e+01 -5.18816e+02        00000 
 4.51930e+01 -4.91595e+02        00000 
 3.42092e+01 -5.18906e+02        00000 
 5.72415e+01 -5.19089e+02        00000 
 9.13421e+01 -4.92287e+02        00000 
 8.05768e+01 -5.19371e+02        00000 
 1.04325e+02 -5.19763e+02        00000 
 1.39236e+02 -4.93538e+02        00000 
 1.28584e+02 -5.20283e+02        00000 
 1.53430e+02 -5.20953e+02        00000 
 1.89488e+02 -4.95448e+02        00000 
 1.78911e+02 -5.21798e+02        00000 
 2.05053e+02 -5.22836e+02        00000 
-1.97541e+02 -6.04484e+02        00000 
-2.12840e+02 -6.32997e+02        00000 
-1.85039e+02 -6.32480e+02        00000 
-1.44486e+02 -6.03583e+02        00000 
-1.58205e+02 -6.32082e+02        00000 
-1.32302e+02 -6.31710e+02        00000 
-9.45004e+01 -6.02972e+02        00000 
-1.07192e+02 -6.31352e+02        00000 
-8.27254e+01 -6.31026e+02        00000 
-4.67116e+01 -6.02565e+02        00000 
-5.87488e+01 -6.30755e+02        00000 
-3.51186e+01 -6.30562e+02        00000 
-2.16962e-02 -6.02420e+02        00000 
-1.16954e+01 -6.30462e+02        00000 
 1.16574e+01 -6.30463e+02        00000 
 4.66663e+01 -6.02569e+02        00000 
 3.50786e+01 -6.30565e+02        00000 
 5.87051e+01 -6.30758e+02        00000 
 9.44547e+01 -6.02975e+02        00000 
 8.26792e+01 -6.31028e+02        00000 
 1.07146e+02 -6.31353e+02        00000 
 1.44436e+02 -6.03584e+02        00000 
 1.32254e+02 -6.31709e+02        00000 
 1.58157e+02 -6.32080e+02        00000 
 1.97490e+02 -6.04485e+02        00000 
 1.84990e+02 -6.32477e+02        00000 
 2.12794e+02 -6.32997e+02        00000 
-1.58957e+01 -1.23413e+01        00000 
-2.76860e+01 -2.23403e+01        00000 
-1.02568e+01 -8.01824e+00        00000 
-1.79843e+01 -1.58747e+01        00000 
-5.86698e+00 -5.88665e+00        00000 
-1.07660e+01 -1.23532e+01        00000 
-1.91914e+00 -4.98209e+00        00000 
-4.48689e+00 -1.06769e+01        00000 
 1.90788e+00 -4.97908e+00        00000 
 1.47529e+00 -1.03597e+01        00000 
 5.85654e+00 -5.87875e+00        00000 
 7.54025e+00 -1.13180e+01        00000 
 1.02502e+01 -8.00751e+00        00000 
 1.41860e+01 -1.38204e+01        00000 
 1.58860e+01 -1.23291e+01        00000 
 2.23301e+01 -1.86248e+01        00000 
 2.76791e+01 -2.15950e+01        00000 
 3.48301e+01 -2.71089e+01        00000 
-5.07477e+01 -4.88548e+01        00000 
-6.39423e+01 -6.21215e+01        00000 
-3.39672e+01 -4.26006e+01        00000 
-4.42562e+01 -5.54621e+01        00000 
-1.95408e+01 -3.85827e+01        00000 
-2.70138e+01 -5.09000e+01        00000 
-6.39355e+00 -3.66512e+01        00000 
-1.13233e+01 -4.84211e+01        00000 
 6.35763e+00 -3.66466e+01        00000 
 3.73015e+00 -4.79286e+01        00000 
 1.95076e+01 -3.85697e+01        00000 
 1.89947e+01 -4.93962e+01        00000 
 3.39400e+01 -4.25810e+01        00000 
 3.53459e+01 -5.28970e+01        00000 
 5.07225e+01 -4.88307e+01        00000 
 5.37266e+01 -5.85119e+01        00000 
 7.04967e+01 -5.69379e+01        00000 
 7.48163e+01 -6.61900e+01        00000 
-8.11094e+01 -1.00439e+02        00000 
-9.51804e+01 -1.17501e+02        00000 
-5.59099e+01 -9.49651e+01        00000 
-6.74565e+01 -1.11767e+02        00000 
-3.27197e+01 -9.12629e+01        00000 
-4.18699e+01 -1.07773e+02        00000 
-1.07849e+01 -8.94023e+01        00000 
-1.77033e+01 -1.05540e+02        00000 
 1.07276e+01 -8.93993e+01        00000 
 5.84345e+00 -1.05091e+02        00000 
 3.26643e+01 -9.12545e+01        00000 
 2.95980e+01 -1.06430e+02        00000 
 5.58599e+01 -9.49504e+01        00000 
 5.43812e+01 -1.09544e+02        00000 
 8.10675e+01 -1.00419e+02        00000 
 8.09609e+01 -1.14400e+02        00000 
 1.08906e+02 -1.07468e+02        00000 
 1.10000e+02 -1.21038e+02        00000 
-1.07110e+02 -1.67730e+02        00000 
-1.21862e+02 -1.88164e+02        00000 
-7.45973e+01 -1.63127e+02        00000 
-8.71037e+01 -1.83362e+02        00000 
-4.39944e+01 -1.60031e+02        00000 
-5.44329e+01 -1.80043e+02        00000 
-1.45569e+01 -1.58476e+02        00000 
-2.31057e+01 -1.78194e+02        00000 
 1.44866e+01 -1.58477e+02        00000 
 7.63723e+00 -1.77824e+02        00000 
 4.39221e+01 -1.60033e+02        00000 
 3.85735e+01 -1.78936e+02        00000 
 7.45261e+01 -1.63130e+02        00000 
 7.04797e+01 -1.81522e+02        00000 
 1.07044e+02 -1.67731e+02        00000 
 1.04104e+02 -1.85578e+02        00000 
 1.42210e+02 -1.73712e+02        00000 
 1.40185e+02 -1.91162e+02        00000 
-1.28797e+02 -2.48667e+02        00000 