<?xml version="1.0" encoding="utf-8"?>
<VTKFile byte_order="LittleEndian" type="UnstructuredGrid" version="0.1">
   <UnstructuredGrid>
      <Piece NumberOfCells="1296" NumberOfPoints="685">
         <Points>
            <DataArray Name="Points" NumberOfComponents="3" format="ascii" type="Float32">
0.0000 0.0000 0.0000
0.0000 0.1111 0.0000
0.0000 0.2222 0.0000
0.0000 0.3333 0.0000
0.0000 0.4444 0.0000
0.0000 0.5556 0.0000
0.0000 0.6667 0.0000
0.0000 0.7778 0.0000
0.0000 0.8889 0.0000
0.0000 1.0000 0.0000
0.2222 0.0000 0.0000
0.2222 0.1111 0.0000
0.2222 0.2222 0.0000
0.2222 0.3333 0.0000
0.2222 0.4444 0.0000
0.2222 0.5556 0.0000
0.2222 0.6667 0.0000
0.2222 0.7778 0.0000
0.2222 0.8889 0.0000
0.2222 1.0000 0.0000
0.4444 0.0000 0.0000
0.4444 0.1111 0.0000
0.4444 0.2222 0.0000
0.4444 0.3333 0.0000
0.4444 0.4444 0.0000
0.4444 0.5556 0.0000
0.4444 0.6667 0.0000
0.4444 0.7778 0.0000
0.4444 0.8889 0.0000
0.4444 1.0000 0.0000
0.6667 0.0000 0.0000
0.6667 0.1111 0.0000
0.6667 0.2222 0.0000
0.6667 0.3333 0.0000
0.6667 0.4444 0.0000
0.6667 0.5556 0.0000
0.6667 0.6667 0.0000
0.6667 0.7778 0.0000
0.6667 0.8889 0.0000
0.6667 1.0000 0.0000
0.8889 0.0000 0.0000
0.8889 0.1111 0.0000
0.8889 0.2222 0.0000
0.8889 0.3333 0.0000
0.8889 0.4444 0.0000
0.8889 0.5556 0.0000
0.8889 0.6667 0.0000
0.8889 0.7778 0.0000
0.8889 0.8889 0.0000
0.8889 1.0000 0.0000
1.1111 0.0000 0.0000
1.1111 0.1111 0.0000
1.1111 0.2222 0.0000
1.1111 0.3333 0.0000
1.1111 0.4444 0.0000
1.1111 0.5556 0.0000
1.1111 0.6667 0.0000
1.1111 0.7778 0.0000
1.1111 0.8889 0.0000
1.1111 1.0000 0.0000
1.3333 0.0000 0.0000
1.3333 0.1111 0.0000
1.3333 0.2222 0.0000
1.3333 0.3333 0.0000
1.3333 0.4444 0.0000
1.3333 0.5556 0.0000
1.3333 0.6667 0.0000
1.3333 0.7778 0.0000
1.3333 0.8889 0.0000
1.3333 1.0000 0.0000
1.5556 0.0000 0.0000
1.5556 0.1111 0.0000
1.5556 0.2222 0.0000
1.5556 0.3333 0.0000
1.5556 0.4444 0.0000
1.5556 0.5556 0.0000
1.5556 0.6667 0.0000
1.5556 0.7778 0.0000
1.5556 0.8889 0.0000
1.5556 1.0000 0.0000
1.7778 0.0000 0.0000
1.7778 0.1111 0.0000
1.7778 0.2222 0.0000
1.7778 0.3333 0.0000
1.7778 0.4444 0.0000
1.7778 0.5556 0.0000
1.7778 0.6667 0.0000
1.7778 0.7778 0.0000
1.7778 0.8889 0.0000
1.7778 1.0000 0.0000
2.0000 0.0000 0.0000
2.0000 0.1111 0.0000
2.0000 0.2222 0.0000
2.0000 0.3333 0.0000
2.0000 0.4444 0.0000
2.0000 0.5556 0.0000
2.0000 0.6667 0.0000
2.0000 0.7778 0.0000
2.0000 0.8889 0.0000
2.0000 1.0000 0.0000
0.1111 0.0556 0.0000
0.1111 0.1667 0.0000
0.1111 0.2778 0.0000
0.1111 0.3889 0.0000
0.1111 0.5000 0.0000
0.1111 0.6111 0.0000
0.1111 0.7222 0.0000
0.1111 0.8333 0.0000
0.1111 0.9444 0.0000
0.3333 0.0556 0.0000
0.3333 0.1667 0.0000
0.3333 0.2778 0.0000
0.3333 0.3889 0.0000
0.3333 0.5000 0.0000
0.3333 0.6111 0.0000
0.3333 0.7222 0.0000
0.3333 0.8333 0.0000
0.3333 0.9444 0.0000
0.5556 0.0556 0.0000
0.5556 0.1667 0.0000
0.5556 0.2778 0.0000
0.5556 0.3889 0.0000
0.5556 0.5000 0.0000
0.5556 0.6111 0.0000
0.5556 0.7222 0.0000
0.5556 0.8333 0.0000
0.5556 0.9444 0.0000
0.7778 0.0556 0.0000
0.7778 0.1667 0.0000
0.7778 0.2778 0.0000
0.7778 0.3889 0.0000
0.7778 0.5000 0.0000
0.7778 0.6111 0.0000
0.7778 0.7222 0.0000
0.7778 0.8333 0.0000
0.7778 0.9444 0.0000
1.0000 0.0556 0.0000
1.0000 0.1667 0.0000
1.0000 0.2778 0.0000
1.0000 0.3889 0.0000
1.0000 0.5000 0.0000
1.0000 0.6111 0.0000
1.0000 0.7222 0.0000
1.0000 0.8333 0.0000
1.0000 0.9444 0.0000
1.2222 0.0556 0.0000
1.2222 0.1667 0.0000
1.2222 0.2778 0.0000
1.2222 0.3889 0.0000
1.2222 0.5000 0.0000
1.2222 0.6111 0.0000
1.2222 0.7222 0.0000
1.2222 0.8333 0.0000
1.2222 0.9444 0.0000
1.4444 0.0556 0.0000
1.4444 0.1667 0.0000
1.4444 0.2778 0.0000
1.4444 0.3889 0.0000
1.4444 0.5000 0.0000
1.4444 0.6111 0.0000
1.4444 0.7222 0.0000
1.4444 0.8333 0.0000
1.4444 0.9444 0.0000
1.6667 0.0556 0.0000
1.6667 0.1667 0.0000
1.6667 0.2778 0.0000
1.6667 0.3889 0.0000
1.6667 0.5000 0.0000
1.6667 0.6111 0.0000
1.6667 0.7222 0.0000
1.6667 0.8333 0.0000
1.6667 0.9444 0.0000
1.8889 0.0556 0.0000
1.8889 0.1667 0.0000
1.8889 0.2778 0.0000
1.8889 0.3889 0.0000
1.8889 0.5000 0.0000
1.8889 0.6111 0.0000
1.8889 0.7222 0.0000
1.8889 0.8333 0.0000
1.8889 0.9444 0.0000
0.0000 0.0556 0.0000
0.0556 0.0278 0.0000
0.0556 0.0833 0.0000
0.0000 0.1667 0.0000
0.0556 0.1389 0.0000
0.0556 0.1944 0.0000
0.0000 0.2778 0.0000
0.0556 0.2500 0.0000
0.0556 0.3056 0.0000
0.0000 0.3889 0.0000
0.0556 0.3611 0.0000
0.0556 0.4167 0.0000
0.0000 0.5000 0.0000
0.0556 0.4722 0.0000
0.0556 0.5278 0.0000
0.0000 0.6111 0.0000
0.0556 0.5833 0.0000
0.0556 0.6389 0.0000
0.0000 0.7222 0.0000
0.0556 0.6944 0.0000
0.0556 0.7500 0.0000
0.0000 0.8333 0.0000
0.0556 0.8056 0.0000
0.0556 0.8611 0.0000
0.0000 0.9444 0.0000
0.0556 0.9167 0.0000
0.0556 0.9722 0.0000
0.2222 0.0556 0.0000
0.2778 0.0278 0.0000
0.2778 0.0833 0.0000
0.2222 0.1667 0.0000
0.2778 0.1389 0.0000
0.2778 0.1944 0.0000
0.2222 0.2778 0.0000
0.2778 0.2500 0.0000
0.2778 0.3056 0.0000
0.2222 0.3889 0.0000
0.2778 0.3611 0.0000
0.2778 0.4167 0.0000
0.2222 0.5000 0.0000
0.2778 0.4722 0.0000
0.2778 0.5278 0.0000
0.2222 0.6111 0.0000
0.2778 0.5833 0.0000
0.2778 0.6389 0.0000
0.2222 0.7222 0.0000
0.2778 0.6944 0.0000
0.2778 0.7500 0.0000
0.2222 0.8333 0.0000
0.2778 0.8056 0.0000
0.2778 0.8611 0.0000
0.2222 0.9444 0.0000
0.2778 0.9167 0.0000
0.2778 0.9722 0.0000
0.4444 0.0556 0.0000
0.5000 0.0278 0.0000
0.5000 0.0833 0.0000
0.4444 0.1667 0.0000
0.5000 0.1389 0.0000
0.5000 0.1944 0.0000
0.4444 0.2778 0.0000
0.5000 0.2500 0.0000
0.5000 0.3056 0.0000
0.4444 0.3889 0.0000
0.5000 0.3611 0.0000
0.5000 0.4167 0.0000
0.4444 0.5000 0.0000
0.5000 0.4722 0.0000
0.5000 0.5278 0.0000
0.4444 0.6111 0.0000
0.5000 0.5833 0.0000
0.5000 0.6389 0.0000
0.4444 0.7222 0.0000
0.5000 0.6944 0.0000
0.5000 0.7500 0.0000
0.4444 0.8333 0.0000
0.5000 0.8056 0.0000
0.5000 0.8611 0.0000
0.4444 0.9444 0.0000
0.5000 0.9167 0.0000
0.5000 0.9722 0.0000
0.6667 0.0556 0.0000
0.7222 0.0278 0.0000
0.7222 0.0833 0.0000
0.6667 0.1667 0.0000
0.7222 0.1389 0.0000
0.7222 0.1944 0.0000
0.6667 0.2778 0.0000
0.7222 0.2500 0.0000
0.7222 0.3056 0.0000
0.6667 0.3889 0.0000
0.7222 0.3611 0.0000
0.7222 0.4167 0.0000
0.6667 0.5000 0.0000
0.7222 0.4722 0.0000
0.7222 0.5278 0.0000
0.6667 0.6111 0.0000
0.7222 0.5833 0.0000
0.7222 0.6389 0.0000
0.6667 0.7222 0.0000
0.7222 0.6944 0.0000
0.7222 0.7500 0.0000
0.6667 0.8333 0.0000
0.7222 0.8056 0.0000
0.7222 0.8611 0.0000
0.6667 0.9444 0.0000
0.7222 0.9167 0.0000
0.7222 0.9722 0.0000
0.8889 0.0556 0.0000
0.9444 0.0278 0.0000
0.9444 0.0833 0.0000
0.8889 0.1667 0.0000
0.9444 0.1389 0.0000
0.9444 0.1944 0.0000
0.8889 0.2778 0.0000
0.9444 0.2500 0.0000
0.9444 0.3056 0.0000
0.8889 0.3889 0.0000
0.9444 0.3611 0.0000
0.9444 0.4167 0.0000
0.8889 0.5000 0.0000
0.9444 0.4722 0.0000
0.9444 0.5278 0.0000
0.8889 0.6111 0.0000
0.9444 0.5833 0.0000
0.9444 0.6389 0.0000
0.8889 0.7222 0.0000
0.9444 0.6944 0.0000
0.9444 0.7500 0.0000
0.8889 0.8333 0.0000
0.9444 0.8056 0.0000
0.9444 0.8611 0.0000
0.8889 0.9444 0.0000
0.9444 0.9167 0.0000
0.9444 0.9722 0.0000
1.1111 0.0556 0.0000
1.1667 0.0278 0.0000
1.1667 0.0833 0.0000
1.1111 0.1667 0.0000
1.1667 0.1389 0.0000
1.1667 0.1944 0.0000
1.1111 0.2778 0.0000
1.1667 0.2500 0.0000
1.1667 0.3056 0.0000
1.1111 0.3889 0.0000
1.1667 0.3611 0.0000
1.1667 0.4167 0.0000
1.1111 0.5000 0.0000
1.1667 0.4722 0.0000
1.1667 0.5278 0.0000
1.1111 0.6111 0.0000
1.1667 0.5833 0.0000
1.1667 0.6389 0.0000
1.1111 0.7222 0.0000
1.1667 0.6944 0.0000
1.1667 0.7500 0.0000
1.1111 0.8333 0.0000
1.1667 0.8056 0.0000
1.1667 0.8611 0.0000
1.1111 0.9444 0.0000
1.1667 0.9167 0.0000
1.1667 0.9722 0.0000
1.3333 0.0556 0.0000
1.3889 0.0278 0.0000
1.3889 0.0833 0.0000
1.3333 0.1667 0.0000
1.3889 0.1389 0.0000
1.3889 0.1944 0.0000
1.3333 0.2778 0.0000
1.3889 0.2500 0.0000
1.3889 0.3056 0.0000
1.3333 0.3889 0.0000
1.3889 0.3611 0.0000
1.3889 0.4167 0.0000
1.3333 0.5000 0.0000
1.3889 0.4722 0.0000
1.3889 0.5278 0.0000
1.3333 0.6111 0.0000
1.3889 0.5833 0.0000
1.3889 0.6389 0.0000
1.3333 0.7222 0.0000
1.3889 0.6944 0.0000
1.3889 0.7500 0.0000
1.3333 0.8333 0.0000
1.3889 0.8056 0.0000
1.3889 0.8611 0.0000
1.3333 0.9444 0.0000
1.3889 0.9167 0.0000
1.3889 0.9722 0.0000
1.5556 0.0556 0.0000
1.6111 0.0278 0.0000
1.6111 0.0833 0.0000
1.5556 0.1667 0.0000
1.6111 0.1389 0.0000
1.6111 0.1944 0.0000
1.5556 0.2778 0.0000
1.6111 0.2500 0.0000
1.6111 0.3056 0.0000
1.5556 0.3889 0.0000
1.6111 0.3611 0.0000
1.6111 0.4167 0.0000
1.5556 0.5000 0.0000
1.6111 0.4722 0.0000
1.6111 0.5278 0.0000
1.5556 0.6111 0.0000
1.6111 0.5833 0.0000
1.6111 0.6389 0.0000
1.5556 0.7222 0.0000
1.6111 0.6944 0.0000
1.6111 0.7500 0.0000
1.5556 0.8333 0.0000
1.6111 0.8056 0.0000
1.6111 0.8611 0.0000
1.5556 0.9444 0.0000
1.6111 0.9167 0.0000
1.6111 0.9722 0.0000
1.7778 0.0556 0.0000
1.8333 0.0278 0.0000
1.8333 0.0833 0.0000
1.7778 0.1667 0.0000
1.8333 0.1389 0.0000
1.8333 0.1944 0.0000
1.7778 0.2778 0.0000
1.8333 0.2500 0.0000
1.8333 0.3056 0.0000
1.7778 0.3889 0.0000
1.8333 0.3611 0.0000
1.8333 0.4167 0.0000
1.7778 0.5000 0.0000
1.8333 0.4722 0.0000
1.8333 0.5278 0.0000
1.7778 0.6111 0.0000
1.8333 0.5833 0.0000
1.8333 0.6389 0.0000
1.7778 0.7222 0.0000
1.8333 0.6944 0.0000
1.8333 0.7500 0.0000
1.7778 0.8333 0.0000
1.8333 0.8056 0.0000
1.8333 0.8611 0.0000
1.7778 0.9444 0.0000
1.8333 0.9167 0.0000
1.8333 0.9722 0.0000
0.1111 0.1111 0.0000
0.1667 0.0833 0.0000
0.1111 0.2222 0.0000
0.1667 0.1944 0.0000
0.1111 0.3333 0.0000
0.1667 0.3056 0.0000
0.1111 0.4444 0.0000
0.1667 0.4167 0.0000
0.1111 0.5556 0.0000
0.1667 0.5278 0.0000
0.1111 0.6667 0.0000
0.1667 0.6389 0.0000
0.1111 0.7778 0.0000
0.1667 0.7500 0.0000
0.1111 0.8889 0.0000
0.1667 0.8611 0.0000
0.1111 1.0000 0.0000
0.1667 0.9722 0.0000
0.3333 0.1111 0.0000
0.3889 0.0833 0.0000
0.3333 0.2222 0.0000
0.3889 0.1944 0.0000
0.3333 0.3333 0.0000
0.3889 0.3056 0.0000
0.3333 0.4444 0.0000
0.3889 0.4167 0.0000
0.3333 0.5556 0.0000
0.3889 0.5278 0.0000
0.3333 0.6667 0.0000
0.3889 0.6389 0.0000
0.3333 0.7778 0.0000
0.3889 0.7500 0.0000
0.3333 0.8889 0.0000
0.3889 0.8611 0.0000
0.3333 1.0000 0.0000
0.3889 0.9722 0.0000
0.5556 0.1111 0.0000
[...]
         <PointData>
            <DataArray Name="fValues" NumberOfComponents="3" format="ascii" type="Float64">
-2.44753e-15        00000        00000 
 1.32055e-16  2.14589e-15        00000 
-4.00335e-17 -1.03920e-16        00000 
       00000 -1.97270e-16        00000 
-6.76254e-16 -3.49151e-16        00000 
-3.94539e-16  6.57565e-17        00000 
-3.22843e-16  2.84679e-16        00000 
-6.56971e-16 -1.31394e-16        00000 
 3.17007e-15 -3.96259e-16        00000 
 1.22377e-15  2.44753e-15        00000 
-4.94763e+01 -3.75878e+01        00000 
-3.36907e+01 -2.88918e+01        00000 
-2.19766e+01 -2.27674e+01        00000 
-1.25377e+01 -1.92241e+01        00000 
-4.09674e+00 -1.76146e+01        00000 
 4.05028e+00 -1.76155e+01        00000 
 1.24794e+01 -1.92266e+01        00000 
 2.19009e+01 -2.27638e+01        00000 
 3.36039e+01 -2.88777e+01        00000 
 4.93842e+01 -3.75686e+01        00000 
-9.00683e+01 -7.98402e+01        00000 
-6.63087e+01 -7.22918e+01        00000 
-4.52212e+01 -6.64238e+01        00000 
-2.62785e+01 -6.24878e+01        00000 
-8.65070e+00 -6.05305e+01        00000 
 8.57084e+00 -6.05257e+01        00000 
 2.61854e+01 -6.24828e+01        00000 
 4.51078e+01 -6.64200e+01        00000 
 6.61830e+01 -7.22942e+01        00000 
 8.99388e+01 -7.98446e+01        00000 
-1.25900e+02 -1.38239e+02        00000 
-9.43716e+01 -1.31743e+02        00000 
-6.54679e+01 -1.26724e+02        00000 
-3.85133e+01 -1.23332e+02        00000 
-1.27438e+01 -1.21620e+02        00000 
 1.26284e+01 -1.21610e+02        00000 
 3.83862e+01 -1.23311e+02        00000 
 6.53369e+01 -1.26704e+02        00000 
 9.42425e+01 -1.31727e+02        00000 
 1.25777e+02 -1.38232e+02        00000 
-1.56385e+02 -2.11348e+02        00000 
-1.18119e+02 -2.05925e+02        00000 
-8.25000e+01 -2.01762e+02        00000 
-4.87731e+01 -1.98963e+02        00000 
-1.61935e+01 -1.97553e+02        00000 
 1.60352e+01 -1.97538e+02        00000 
 4.86522e+01 -1.98933e+02        00000 
 8.24047e+01 -2.01736e+02        00000 
 1.18052e+02 -2.05915e+02        00000 
 1.56326e+02 -2.11357e+02        00000 
-1.81382e+02 -2.96792e+02        00000 
-1.37552e+02 -2.92450e+02        00000 
-9.63767e+01 -2.89125e+02        00000 
-5.70961e+01 -2.86904e+02        00000 
-1.89421e+01 -2.85811e+02        00000 
 1.88395e+01 -2.85827e+02        00000 
 5.70180e+01 -2.86942e+02        00000 
 9.63410e+01 -2.89161e+02        00000 
 1.37548e+02 -2.92485e+02        00000 
 1.81406e+02 -2.96838e+02        00000 
-2.00899e+02 -3.92175e+02        00000 
-1.52709e+02 -3.88901e+02        00000 
-1.07153e+02 -3.86421e+02        00000 
-6.35133e+01 -3.84802e+02        00000 
-2.10468e+01 -3.84014e+02        00000 
 2.10103e+01 -3.84029e+02        00000 
 6.34792e+01 -3.84841e+02        00000 
 1.07146e+02 -3.86473e+02        00000 
 1.52731e+02 -3.88952e+02        00000 
 2.00947e+02 -3.92228e+02        00000 
-2.15061e+02 -4.95008e+02        00000 
-1.63594e+02 -4.92780e+02        00000 
-1.14721e+02 -4.91209e+02        00000 
-6.79329e+01 -4.90260e+02        00000 
-2.24937e+01 -4.89819e+02        00000 
 2.24851e+01 -4.89831e+02        00000 
 6.79244e+01 -4.90293e+02        00000 
 1.14722e+02 -4.91258e+02        00000 
 1.63601e+02 -4.92830e+02        00000 
 2.15059e+02 -4.95046e+02        00000 
-2.24487e+02 -6.03261e+02        00000 
-1.70123e+02 -6.02061e+02        00000 
-1.18798e+02 -6.01351e+02        00000 
-7.01795e+01 -6.00849e+02        00000 
-2.32179e+01 -6.00577e+02        00000 
 2.32086e+01 -6.00583e+02        00000 
 7.01681e+01 -6.00867e+02        00000 
 1.18772e+02 -6.01385e+02        00000 
 1.70076e+02 -6.02111e+02        00000 
 2.24428e+02 -6.03303e+02        00000 
-2.30314e+02 -7.21054e+02        00000 
-1.72822e+02 -7.18243e+02        00000 
-1.20667e+02 -7.14896e+02        00000 
-7.13621e+01 -7.12314e+02        00000 
-2.36230e+01 -7.10940e+02        00000 
 2.36262e+01 -7.10944e+02        00000 
 7.13543e+01 -7.12320e+02        00000 
 1.20673e+02 -7.14901e+02        00000 
 1.72780e+02 -7.18260e+02        00000 
 2.30220e+02 -7.21097e+02        00000 
-2.00276e+01 -1.60057e+01        00000 
-1.27961e+01 -9.75352e+00        00000 
-7.96403e+00 -6.72182e+00        00000 
-3.85396e+00 -5.27966e+00        00000 
-5.25974e-03 -4.85202e+00        00000 
 3.83224e+00 -5.28178e+00        00000 
 7.93272e+00 -6.72812e+00        00000 
 1.27528e+01 -9.75461e+00        00000 
 1.99797e+01 -1.59891e+01        00000 
-6.01006e+01 -5.25027e+01        00000 
-4.19033e+01 -4.52508e+01        00000 
-2.64729e+01 -4.01372e+01        00000 
-1.28462e+01 -3.72010e+01        00000 
-3.05893e-02 -3.62488e+01        00000 
 1.27746e+01 -3.72057e+01        00000 
 2.63831e+01 -4.01431e+01        00000 
 4.17916e+01 -4.52518e+01        00000 
 5.99833e+01 -5.24946e+01        00000 
-9.43887e+01 -1.03384e+02        00000 
-6.80226e+01 -9.70989e+01        00000 
-4.39864e+01 -9.25168e+01        00000 
-2.16029e+01 -8.97399e+01        00000 
-4.61969e-02 -8.88143e+01        00000 
 2.15028e+01 -8.97353e+01        00000 
 4.38694e+01 -9.25057e+01        00000 
 6.78969e+01 -9.70868e+01        00000 
 9.42549e+01 -1.03368e+02        00000 
-1.23926e+02 -1.69971e+02        00000 
-9.03015e+01 -1.64662e+02        00000 
-5.89428e+01 -1.60810e+02        00000 
-2.91281e+01 -1.58480e+02        00000 
-6.91724e-02 -1.57683e+02        00000 
 2.89883e+01 -1.58445e+02        00000 
 5.88171e+01 -1.60772e+02        00000 
 9.01855e+01 -1.64635e+02        00000 
 1.23828e+02 -1.69963e+02        00000 
-1.48593e+02 -2.50114e+02        00000 
-1.08817e+02 -2.45773e+02        00000 
-7.13097e+01 -2.42644e+02        00000 
-3.53216e+01 -2.40760e+02        00000 
-7.53859e-02 -2.40139e+02        00000 
 3.51965e+01 -2.40766e+02        00000 
 7.12270e+01 -2.42645e+02        00000 
 1.08771e+02 -2.45779e+02        00000 
 1.48566e+02 -2.50124e+02        00000 
-1.68363e+02 -3.41396e+02        00000 
-1.23622e+02 -3.38014e+02        00000 
-8.11594e+01 -3.35598e+02        00000 
-4.02067e+01 -3.34164e+02        00000 
-2.99522e-02 -3.33701e+02        00000 
 4.01516e+01 -3.34194e+02        00000 
 8.11277e+01 -3.35642e+02        00000 
 1.23624e+02 -3.38065e+02        00000 
 1.68393e+02 -3.41448e+02        00000 
-1.83286e+02 -4.41350e+02        00000 
-1.34739e+02 -4.38942e+02        00000 
-8.84701e+01 -4.37285e+02        00000 
-4.38175e+01 -4.36337e+02        00000 
-8.51258e-03 -4.36035e+02        00000 
 4.37992e+01 -4.36361e+02        00000 
 8.84558e+01 -4.37332e+02        00000 
 1.34742e+02 -4.38999e+02        00000 
 1.83312e+02 -4.41409e+02        00000 
-1.93526e+02 -5.47597e+02        00000 
-1.41992e+02 -5.46191e+02        00000 
-9.30154e+01 -5.45352e+02        00000 
-4.60067e+01 -5.44901e+02        00000 
-3.33502e-03 -5.44761e+02        00000 
 4.59976e+01 -5.44922e+02        00000 
 9.30021e+01 -5.45388e+02        00000 
 1.41971e+02 -5.46235e+02        00000 
 1.93497e+02 -5.47631e+02        00000 
-1.99202e+02 -6.59362e+02        00000 
-1.45201e+02 -6.58493e+02        00000 
-9.49124e+01 -6.57434e+02        00000 
-4.69116e+01 -6.56619e+02        00000 
 8.33445e-04 -6.56322e+02        00000 
 4.69052e+01 -6.56631e+02        00000 
 9.49049e+01 -6.57453e+02        00000 
 1.45177e+02 -6.58534e+02        00000 
 1.99134e+02 -6.59419e+02        00000 
 1.01962e-15  9.14378e-16        00000 
-1.09455e+01 -8.36257e+00        00000 
-8.31403e+00 -5.88725e+00        00000 
 1.75527e-15  2.67120e-16        00000 
-6.70684e+00 -4.33478e+00        00000 
-5.43933e+00 -3.28159e+00        00000 
-4.99600e-16 -1.24900e-16        00000 
-4.32519e+00 -2.54619e+00        00000 
-3.29660e+00 -2.03277e+00        00000 
-1.21911e-17 -4.41409e-16        00000 
-2.32318e+00 -1.68676e+00        00000 
-1.38560e+00 -1.47034e+00        00000 
 2.49800e-16 -2.49800e-16        00000 
-4.61434e-01 -1.37010e+00        00000 
 4.52855e-01 -1.37221e+00        00000 
 1.78707e-16 -4.84597e-16        00000 
 1.37327e+00 -1.47535e+00        00000 
 2.30976e+00 -1.69035e+00        00000 
 1.24900e-16  1.49880e-15        00000 
 3.28243e+00 -2.03629e+00        00000 
 4.30951e+00 -2.54984e+00        00000 
 1.74860e-15 -2.49800e-16        00000 
 5.42069e+00 -3.28442e+00        00000 
 6.68495e+00 -4.33460e+00        00000 
-2.66364e-15 -4.49769e-16        00000 
 8.28777e+00 -5.88114e+00        00000 
 1.09199e+01 -8.34929e+00        00000 
-4.11194e+01 -3.30585e+01        00000 
-5.53144e+01 -4.47004e+01        00000 
-4.64505e+01 -4.03439e+01        00000 
-2.74308e+01 -2.54642e+01        00000 
-3.84309e+01 -3.65331e+01        00000 
-3.12848e+01 -3.33704e+01        00000 
-1.70705e+01 -2.07180e+01        00000 
-2.48188e+01 -3.08481e+01        00000 
-1.88570e+01 -2.89186e+01        00000 
-8.24199e+00 -1.82027e+01        00000 
-1.32492e+01 -2.75279e+01        00000 
-7.87324e+00 -2.66259e+01        00000 
-2.18413e-02 -1.74205e+01        00000 
-2.62611e+00 -2.61835e+01        00000 
 2.57230e+00 -2.61839e+01        00000 
 8.19007e+00 -1.82087e+01        00000 
 7.81461e+00 -2.66294e+01        00000 
 1.31839e+01 -2.75343e+01        00000 
 1.70057e+01 -2.07202e+01        00000 
 1.87832e+01 -2.89244e+01        00000 
 2.47334e+01 -3.08525e+01        00000 
 2.73451e+01 -2.54549e+01        00000 
 3.11893e+01 -3.33678e+01        00000 
 3.83308e+01 -3.65267e+01        00000 
 4.10279e+01 -3.30373e+01        00000 
 4.63474e+01 -4.03329e+01        00000 
 5.52079e+01 -4.46789e+01        00000 
-7.78324e+01 -7.58881e+01        00000 
-9.27838e+01 -9.12461e+01        00000 
-7.99081e+01 -8.74270e+01        00000 
-5.54599e+01 -6.91264e+01        00000 
-6.77161e+01 -8.41045e+01        00000 
-5.61521e+01 -8.12516e+01        00000 
-3.55331e+01 -6.42063e+01        00000 
-4.51560e+01 -7.88654e+01        00000 
-3.46336e+01 -7.69553e+01        00000 
-1.73591e+01 -6.12614e+01        00000 
-2.44857e+01 -7.55156e+01        00000 
-1.46077e+01 -7.45585e+01        00000 
-3.94797e-02 -6.02850e+01        00000 
-4.87877e+00 -7.40781e+01        00000 
 4.79515e+00 -7.40784e+01        00000 
 1.72706e+01 -6.12590e+01        00000 
 1.45168e+01 -7.45539e+01        00000 
 2.43858e+01 -7.55096e+01        00000 
 3.54268e+01 -6.42032e+01        00000 
 3.45241e+01 -7.69442e+01        00000 
 4.50385e+01 -7.88553e+01        00000 
 5.53342e+01 -6.91238e+01        00000 
 5.60347e+01 -8.12418e+01        00000 
 6.75904e+01 -8.40990e+01        00000 
 7.77020e+01 -7.58892e+01        00000 
 7.97760e+01 -8.74213e+01        00000 
 9.26469e+01 -9.12401e+01        00000 
-1.09763e+02 -1.34832e+02        00000 
-1.25408e+02 -1.53775e+02        00000 
-1.08769e+02 -1.50507e+02        00000 
-7.96337e+01 -1.29037e+02        00000 
-9.28209e+01 -1.47679e+02        00000 
-7.74890e+01 -1.45258e+02        00000 
-5.17894e+01 -1.24819e+02        00000 
-6.26828e+01 -1.43236e+02        00000 
-4.83116e+01 -1.41614e+02        00000 
-2.55314e+01 -1.22265e+02        00000 
-3.42855e+01 -1.40392e+02        00000 
-2.04999e+01 -1.39571e+02        00000 
-5.48698e-02 -1.21403e+02        00000 
-6.85815e+00 -1.39153e+02        00000 
 6.73342e+00 -1.39145e+02        00000 
 2.54099e+01 -1.22248e+02        00000 
 2.03715e+01 -1.39548e+02        00000 
 3.41550e+01 -1.40358e+02        00000 
 5.16619e+01 -1.24798e+02        00000 
 4.81808e+01 -1.41577e+02        00000 
 6.25507e+01 -1.43203e+02        00000 
 7.95053e+01 -1.29016e+02        00000 
 7.73629e+01 -1.45229e+02        00000 
 9.27019e+01 -1.47655e+02        00000 
 1.09634e+02 -1.34814e+02        00000 
 1.08648e+02 -1.50489e+02        00000 
 1.25296e+02 -1.53765e+02        00000 
-1.36869e+02 -2.08500e+02        00000 
-1.52910e+02 -2.30444e+02        00000 
-1.33045e+02 -2.27740e+02        00000 
-1.00027e+02 -2.03676e+02        00000 
-1.13883e+02 -2.25404e+02        00000 
-9.53338e+01 -2.23413e+02        00000 
-6.54442e+01 -2.00190e+02        00000 
-7.73071e+01 -2.21758e+02        00000 
-5.97048e+01 -2.20429e+02        00000 
-3.23892e+01 -1.98084e+02        00000 
-4.24365e+01 -2.19429e+02        00000 
-2.54029e+01 -2.18762e+02        00000 
-8.37331e-02 -1.97371e+02        00000 
-8.50950e+00 -2.18427e+02        00000 
 8.34699e+00 -2.18424e+02        00000 
 3.22486e+01 -1.98061e+02        00000 
 2.52566e+01 -2.18755e+02        00000 
 4.23105e+01 -2.19415e+02        00000 
 6.53371e+01 -2.00160e+02        00000 
 5.95981e+01 -2.20412e+02        00000 
 7.72183e+01 -2.21740e+02        00000 
 9.99450e+01 -2.03658e+02        00000 
 9.52656e+01 -2.23402e+02        00000 
 1.13829e+02 -2.25399e+02        00000 
 1.36808e+02 -2.08497e+02        00000 
 1.32997e+02 -2.27742e+02        00000 
 1.52866e+02 -2.30447e+02        00000 
-1.59089e+02 -2.94510e+02        00000 
-1.75219e+02 -3.18851e+02        00000 
-1.52722e+02 -3.16714e+02        00000 
-1.16681e+02 -2.90652e+02        00000 
-1.30923e+02 -3.14869e+02        00000 
-1.09748e+02 -3.13299e+02        00000 
-7.65500e+01 -2.87877e+02        00000 
-8.90966e+01 -3.11997e+02        00000 
-6.88674e+01 -3.10956e+02        00000 
-3.79241e+01 -2.86219e+02        00000 
-4.89623e+01 -3.10183e+02        00000 
-2.92980e+01 -3.09673e+02        00000 
-5.39221e-02 -2.85683e+02        00000 
-9.77737e+00 -3.09423e+02        00000 
 9.69503e+00 -3.09433e+02        00000 
 3.78321e+01 -2.86248e+02        00000 
 2.92198e+01 -3.09702e+02        00000 
 4.88914e+01 -3.10224e+02        00000 
 7.64911e+01 -2.87913e+02        00000 
 6.88087e+01 -3.11004e+02        00000 
 8.90619e+01 -3.12042e+02        00000 
 1.16660e+02 -2.90687e+02        00000 
 1.09735e+02 -3.13346e+02        00000 
 1.30927e+02 -3.14913e+02        00000 
 1.59096e+02 -2.94546e+02        00000 
 1.52735e+02 -3.16759e+02        00000 
 1.75250e+02 -3.18899e+02        00000 
-1.76423e+02 -3.90451e+02        00000 
-1.92357e+02 -4.16565e+02        00000 
-1.67829e+02 -4.14987e+02        00000 
-1.29647e+02 -3.87552e+02        00000 
-1.43995e+02 -4.13635e+02        00000 
-1.20767e+02 -4.12497e+02        00000 
-8.51388e+01 -3.85506e+02        00000 
-9.80667e+01 -4.11566e+02        00000 
-7.58067e+01 -4.10838e+02        00000 
-4.21792e+01 -3.84308e+02        00000 
-5.38948e+01 -4.10302e+02        00000 
-3.22395e+01 -4.09951e+02        00000 
-1.73880e-02 -3.83924e+02        00000 
-1.07357e+01 -4.09779e+02        00000 
 1.07111e+01 -4.09787e+02        00000 
 4.21440e+01 -3.84333e+02        00000 
 3.22116e+01 -4.09974e+02        00000 
 5.38679e+01 -4.10340e+02        00000 
 8.51182e+01 -3.85551e+02        00000 
 7.57862e+01 -4.10886e+02        00000 
 9.80577e+01 -4.11621e+02        00000 
 1.29658e+02 -3.87603e+02        00000 
 1.20771e+02 -4.12554e+02        00000 
 1.44009e+02 -4.13693e+02        00000 
 1.76464e+02 -3.90503e+02        00000 
 1.67857e+02 -4.15047e+02        00000 
 1.92401e+02 -4.16619e+02        00000 
-1.88972e+02 -4.93819e+02        00000 
-2.04506e+02 -5.21147e+02        00000 
-1.78433e+02 -5.20106e+02        00000 
-1.38863e+02 -4.91907e+02        00000 
-1.53022e+02 -5.19259e+02        00000 
-1.28242e+02 -5.18588e+02        00000 
-9.11061e+01 -4.90665e+02        00000 
-1.04051e+02 -5.18071e+02        00000 
-8.03734e+01 -5.17682e+02        00000 
-4.50997e+01 -4.89982e+02        00000 
-5.71118e+01 -5.17406e+02        00000 
-3.41473e+01 -5.17226e+02        00000 
-7.47619e-03 -4.89767e+02        00000 
-1.13635e+01 -5.17139e+02        00000 
 1.13605e+01 -5.17146e+02        00000 
 4.50910e+01 -4.90003e+02        00000 
 3.41422e+01 -5.17244e+02        00000 
 5.71054e+01 -5.17432e+02        00000 
 9.10983e+01 -4.90709e+02        00000 
 8.03686e+01 -5.17719e+02        00000 
 1.04042e+02 -5.18117e+02        00000 
 1.38867e+02 -4.91960e+02        00000 
 1.28237e+02 -5.18637e+02        00000 
 1.53017e+02 -5.19305e+02        00000 
 1.88976e+02 -4.93866e+02        00000 
 1.78427e+02 -5.20149e+02        00000 
 2.04492e+02 -5.21182e+02        00000 
-1.96987e+02 -6.02567e+02        00000 
-2.12256e+02 -6.31003e+02        00000 
-1.84521e+02 -6.30487e+02        00000 
-1.44067e+02 -6.01675e+02        00000 
-1.57751e+02 -6.30094e+02        00000 
-1.31910e+02 -6.29731e+02        00000 
-9.42090e+01 -6.01076e+02        00000 
-1.06865e+02 -6.29381e+02        00000 
-8.24628e+01 -6.29061e+02        00000 
-4.65617e+01 -6.00678e+02        00000 
-5.85577e+01 -6.28797e+02        00000 
-3.50023e+01 -6.28608e+02        00000 
-4.59008e-03 -6.00542e+02        00000 
-1.16457e+01 -6.28512e+02        00000 
 1.16438e+01 -6.28517e+02        00000 
 4.65535e+01 -6.00691e+02        00000 
 3.49959e+01 -6.28618e+02        00000 
 5.85518e+01 -6.28809e+02        00000 
 9.41947e+01 -6.01101e+02        00000 
 8.24537e+01 -6.29077e+02        00000 
 1.06851e+02 -6.29405e+02        00000 
 1.44032e+02 -6.01718e+02        00000 
 1.31885e+02 -6.29765e+02        00000 
 1.57711e+02 -6.30141e+02        00000 
 1.96934e+02 -6.02615e+02        00000 
 1.84464e+02 -6.30537e+02        00000 
 2.12187e+02 -6.31057e+02        00000 
-1.58612e+01 -1.22944e+01        00000 
-2.76152e+01 -2.22551e+01        00000 
-1.02426e+01 -7.97840e+00        00000 
-1.79548e+01 -1.58049e+01        00000 
-5.85599e+00 -5.85331e+00        00000 
-1.07463e+01 -1.22927e+01        00000 
-1.91494e+00 -4.95751e+00        00000 
-4.48036e+00 -1.06226e+01        00000 
 1.89723e+00 -4.95795e+00        00000 
 1.46482e+00 -1.03095e+01        00000 
 5.82766e+00 -5.85495e+00        00000 
 7.50359e+00 -1.12718e+01        00000 
 1.02053e+01 -7.98035e+00        00000 
 1.41212e+01 -1.37683e+01        00000 
 1.58112e+01 -1.22867e+01        00000 
 2.22278e+01 -1.85546e+01        00000 
 2.75579e+01 -2.15132e+01        00000 
 3.46712e+01 -2.70056e+01        00000 
-5.06243e+01 -4.86425e+01        00000 
-6.37739e+01 -6.18510e+01        00000 
-3.38947e+01 -4.24132e+01        00000 
-4.41506e+01 -5.52254e+01        00000 
-1.94995e+01 -3.84106e+01        00000 
-2.69514e+01 -5.06881e+01        00000 
-6.38901e+00 -3.64874e+01        00000 
-1.13090e+01 -4.82192e+01        00000 
 6.32770e+00 -3.64876e+01        00000 
 3.70719e+00 -4.77269e+01        00000 
 1.94196e+01 -3.84150e+01        00000 
 1.89127e+01 -4.92016e+01        00000 
 3.37926e+01 -4.24174e+01        00000 
 3.51926e+01 -5.26943e+01        00000 
 5.05095e+01 -4.86386e+01        00000 
 5.35012e+01 -5.82844e+01        00000 
 7.02006e+01 -5.67172e+01        00000 
 7.45061e+01 -6.59334e+01        00000 
-8.08804e+01 -1.00040e+02        00000 
-9.49073e+01 -1.17056e+02        00000 
-5.57506e+01 -9.45872e+01        00000 
-6.72614e+01 -1.11342e+02        00000 
-3.26394e+01 -9.08996e+01        00000 
-4.17598e+01 -1.07360e+02        00000 
-1.07755e+01 -8.90463e+01        00000 
-1.76753e+01 -1.05133e+02        00000 
 1.06779e+01 -8.90452e+01        00000 
 5.80395e+00 -1.04682e+02        00000 
 3.25275e+01 -9.08923e+01        00000 
 2.94770e+01 -1.06012e+02        00000 
 5.56286e+01 -9.45757e+01        00000 
 5.41569e+01 -1.09121e+02        00000 
 8.07496e+01 -1.00027e+02        00000 
 8.06488e+01 -1.13963e+02        00000 
 1.08491e+02 -1.07054e+02        00000 
 1.09593e+02 -1.20584e+02        00000 
-1.06785e+02 -1.67141e+02        00000 
-1.21480e+02 -1.87508e+02        00000 
-7.43861e+01 -1.62549e+02        00000 
-8.68475e+01 -1.82721e+02        00000 
-4.38897e+01 -1.59451e+02        00000 
-5.42898e+01 -1.79406e+02        00000 
-1.45519e+01 -1.57888e+02        00000 
-2.30785e+01 -1.77553e+02        00000 
 1.44108e+01 -1.57867e+02        00000 
 7.57504e+00 -1.77163e+02        00000 
 4.37585e+01 -1.59413e+02        00000 
 3.84344e+01 -1.78262e+02        00000 
 7.42610e+01 -1.62514e+02        00000 
 7.02395e+01 -1.80848e+02        00000 
 1.06681e+02 -1.67121e+02        00000 
 1.03767e+02 -1.84906e+02        00000 
 1.41734e+02 -1.73103e+02        00000 
 1.39732e+02 -1.90487e+02        00000 
-1.28373e+02 -2.47795e+02        00000 