<?xml version="1.0" encoding="utf-8"?>
<VTKFile byte_order="LittleEndian" type="UnstructuredGrid" version="0.1">
   <UnstructuredGrid>
      <Piece NumberOfCells="1296" NumberOfPoints="685">
         <Points>
            <DataArray Name="Points" NumberOfComponents="3" format="ascii" type="Float32">
0.0000 0.0000 0.0000
0.0000 0.1111 0.0000
0.0000 0.2222 0.0000
0.0000 0.3333 0.0000
0.0000 0.4444 0.0000
0.0000 0.5556 0.0000
0.0000 0.6667 0.0000
0.0000 0.7778 0.0000
0.0000 0.8889 0.0000
0.0000 1.0000 0.0000
0.2222 0.0000 0.0000
0.2222 0.1111 0.0000
0.2222 0.2222 0.0000
0.2222 0.3333 0.0000
0.2222 0.4444 0.0000
0.2222 0.5556 0.0000
0.2222 0.6667 0.0000
0.2222 0.7778 0.0000
0.2222 0.8889 0.0000
0.2222 1.0000 0.0000
0.4444 0.0000 0.0000
0.4444 0.1111 0.0000
0.4444 0.2222 0.0000
0.4444 0.3333 0.0000
0.4444 0.4444 0.0000
0.4444 0.5556 0.0000
0.4444 0.6667 0.0000
0.4444 0.7778 0.0000
0.4444 0.8889 0.0000
0.4444 1.0000 0.0000
0.6667 0.0000 0.0000
0.6667 0.1111 0.0000
0.6667 0.2222 0.0000
0.6667 0.3333 0.0000
0.6667 0.4444 0.0000
0.6667 0.5556 0.0000
0.6667 0.6667 0.0000
0.6667 0.7778 0.0000
0.6667 0.8889 0.0000
0.6667 1.0000 0.0000
0.8889 0.0000 0.0000
0.8889 0.1111 0.0000
0.8889 0.2222 0.0000
0.8889 0.3333 0.0000
0.8889 0.4444 0.0000
0.8889 0.5556 0.0000
0.8889 0.6667 0.0000
0.8889 0.7778 0.0000
0.8889 0.8889 0.0000
0.8889 1.0000 0.0000
1.1111 0.0000 0.0000
1.1111 0.1111 0.0000
1.1111 0.2222 0.0000
1.1111 0.3333 0.0000
1.1111 0.4444 0.0000
1.1111 0.5556 0.0000
1.1111 0.6667 0.0000
1.1111 0.7778 0.0000
1.1111 0.8889 0.0000
1.1111 1.0000 0.0000
1.3333 0.0000 0.0000
1.3333 0.1111 0.0000
1.3333 0.2222 0.0000
1.3333 0.3333 0.0000
1.3333 0.4444 0.0000
1.3333 0.5556 0.0000
1.3333 0.6667 0.0000
1.3333 0.7778 0.0000
1.3333 0.8889 0.0000
1.3333 1.0000 0.0000
1.5556 0.0000 0.0000
1.5556 0.1111 0.0000
1.5556 0.2222 0.0000
1.5556 0.3333 0.0000
1.5556 0.4444 0.0000
1.5556 0.5556 0.0000
1.5556 0.6667 0.0000
1.5556 0.7778 0.0000
1.5556 0.8889 0.0000
1.5556 1.0000 0.0000
1.7778 0.0000 0.0000
1.7778 0.1111 0.0000
1.7778 0.2222 0.0000
1.7778 0.3333 0.0000
1.7778 0.4444 0.0000
1.7778 0.5556 0.0000
1.7778 0.6667 0.0000
1.7778 0.7778 0.0000
1.7778 0.8889 0.0000
1.7778 1.0000 0.0000
2.0000 0.0000 0.0000
2.0000 0.1111 0.0000
2.0000 0.2222 0.0000
2.0000 0.3333 0.0000
2.0000 0.4444 0.0000
2.0000 0.5556 0.0000
2.0000 0.6667 0.0000
2.0000 0.7778 0.0000
2.0000 0.8889 0.0000
2.0000 1.0000 0.0000
0.1111 0.0556 0.0000
0.1111 0.1667 0.0000
0.1111 0.2778 0.0000
0.1111 0.3889 0.0000
0.1111 0.5000 0.0000
0.1111 0.6111 0.0000
0.1111 0.7222 0.0000
0.1111 0.8333 0.0000
0.1111 0.9444 0.0000
0.3333 0.0556 0.0000
0.3333 0.1667 0.0000
0.3333 0.2778 0.0000
0.3333 0.3889 0.0000
0.3333 0.5000 0.0000
0.3333 0.6111 0.0000
0.3333 0.7222 0.0000
0.3333 0.8333 0.0000
0.3333 0.9444 0.0000
0.5556 0.0556 0.0000
0.5556 0.1667 0.0000
0.5556 0.2778 0.0000
0.5556 0.3889 0.0000
0.5556 0.5000 0.0000
0.5556 0.6111 0.0000
0.5556 0.7222 0.0000
0.5556 0.8333 0.0000
0.5556 0.9444 0.0000
0.7778 0.0556 0.0000
0.7778 0.1667 0.0000
0.7778 0.2778 0.0000
0.7778 0.3889 0.0000
0.7778 0.5000 0.0000
0.7778 0.6111 0.0000
0.7778 0.7222 0.0000
0.7778 0.8333 0.0000
0.7778 0.9444 0.0000
1.0000 0.0556 0.0000
1.0000 0.1667 0.0000
1.0000 0.2778 0.0000
1.0000 0.3889 0.0000
1.0000 0.5000 0.0000
1.0000 0.6111 0.0000
1.0000 0.7222 0.0000
1.0000 0.8333 0.0000
1.0000 0.9444 0.0000
1.2222 0.0556 0.0000
1.2222 0.1667 0.0000
1.2222 0.2778 0.0000
1.2222 0.3889 0.0000
1.2222 0.5000 0.0000
1.2222 0.6111 0.0000
1.2222 0.7222 0.0000
1.2222 0.8333 0.0000
1.2222 0.9444 0.0000
1.4444 0.0556 0.0000
1.4444 0.1667 0.0000
1.4444 0.2778 0.0000
1.4444 0.3889 0.0000
1.4444 0.5000 0.0000
1.4444 0.6111 0.0000
1.4444 0.7222 0.0000
1.4444 0.8333 0.0000
1.4444 0.9444 0.0000
1.6667 0.0556 0.0000
1.6667 0.1667 0.0000
1.6667 0.2778 0.0000
1.6667 0.3889 0.0000
1.6667 0.5000 0.0000
1.6667 0.6111 0.0000
1.6667 0.7222 0.0000
1.6667 0.8333 0.0000
1.6667 0.9444 0.0000
1.8889 0.0556 0.0000
1.8889 0.1667 0.0000
1.8889 0.2778 0.0000
1.8889 0.3889 0.0000
1.8889 0.5000 0.0000
1.8889 0.6111 0.0000
1.8889 0.7222 0.0000
1.8889 0.8333 0.0000
1.8889 0.9444 0.0000
0.0000 0.0556 0.0000
0.0556 0.0278 0.0000
0.0556 0.0833 0.0000
0.0000 0.1667 0.0000
0.0556 0.1389 0.0000
0.0556 0.1944 0.0000
0.0000 0.2778 0.0000
0.0556 0.2500 0.0000
0.0556 0.3056 0.0000
0.0000 0.3889 0.0000
0.0556 0.3611 0.0000
0.0556 0.4167 0.0000
0.0000 0.5000 0.0000
0.0556 0.4722 0.0000
0.0556 0.5278 0.0000
0.0000 0.6111 0.0000
0.0556 0.5833 0.0000
0.0556 0.6389 0.0000
0.0000 0.7222 0.0000
0.0556 0.6944 0.0000
0.0556 0.7500 0.0000
0.0000 0.8333 0.0000
0.0556 0.8056 0.0000
0.0556 0.8611 0.0000
0.0000 0.9444 0.0000
0.0556 0.9167 0.0000
0.0556 0.9722 0.0000
0.2222 0.0556 0.0000
0.2778 0.0278 0.0000
0.2778 0.0833 0.0000
0.2222 0.1667 0.0000
0.2778 0.1389 0.0000
0.2778 0.1944 0.0000
0.2222 0.2778 0.0000
0.2778 0.2500 0.0000
0.2778 0.3056 0.0000
0.2222 0.3889 0.0000
0.2778 0.3611 0.0000
0.2778 0.4167 0.0000
0.2222 0.5000 0.0000
0.2778 0.4722 0.0000
0.2778 0.5278 0.0000
0.2222 0.6111 0.0000
0.2778 0.5833 0.0000
0.2778 0.6389 0.0000
0.2222 0.7222 0.0000
0.2778 0.6944 0.0000
0.2778 0.7500 0.0000
0.2222 0.8333 0.0000
0.2778 0.8056 0.0000
0.2778 0.8611 0.0000
0.2222 0.9444 0.0000
0.2778 0.9167 0.0000
0.2778 0.9722 0.0000
0.4444 0.0556 0.0000
0.5000 0.0278 0.0000
0.5000 0.0833 0.0000
0.4444 0.1667 0.0000
0.5000 0.1389 0.0000
0.5000 0.1944 0.0000
0.4444 0.2778 0.0000
0.5000 0.2500 0.0000
0.5000 0.3056 0.0000
0.4444 0.3889 0.0000
0.5000 0.3611 0.0000
0.5000 0.4167 0.0000
0.4444 0.5000 0.0000
0.5000 0.4722 0.0000
0.5000 0.5278 0.0000
0.4444 0.6111 0.0000
0.5000 0.5833 0.0000
0.5000 0.6389 0.0000
0.4444 0.7222 0.0000
0.5000 0.6944 0.0000
0.5000 0.7500 0.0000
0.4444 0.8333 0.0000
0.5000 0.8056 0.0000
0.5000 0.8611 0.0000
0.4444 0.9444 0.0000
0.5000 0.9167 0.0000
0.5000 0.9722 0.0000
0.6667 0.0556 0.0000
0.7222 0.0278 0.0000
0.7222 0.0833 0.0000
0.6667 0.1667 0.0000
0.7222 0.1389 0.0000
0.7222 0.1944 0.0000
0.6667 0.2778 0.0000
0.7222 0.2500 0.0000
0.7222 0.3056 0.0000
0.6667 0.3889 0.0000
0.7222 0.3611 0.0000
0.7222 0.4167 0.0000
0.6667 0.5000 0.0000
0.7222 0.4722 0.0000
0.7222 0.5278 0.0000
0.6667 0.6111 0.0000
0.7222 0.5833 0.0000
0.7222 0.6389 0.0000
0.6667 0.7222 0.0000
0.7222 0.6944 0.0000
0.7222 0.7500 0.0000
0.6667 0.8333 0.0000
0.7222 0.8056 0.0000
0.7222 0.8611 0.0000
0.6667 0.9444 0.0000
0.7222 0.9167 0.0000
0.7222 0.9722 0.0000
0.8889 0.0556 0.0000
0.9444 0.0278 0.0000
0.9444 0.0833 0.0000
0.8889 0.1667 0.0000
0.9444 0.1389 0.0000
0.9444 0.1944 0.0000
0.8889 0.2778 0.0000
0.9444 0.2500 0.0000
0.9444 0.3056 0.0000
0.8889 0.3889 0.0000
0.9444 0.3611 0.0000
0.9444 0.4167 0.0000
0.8889 0.5000 0.0000
0.9444 0.4722 0.0000
0.9444 0.5278 0.0000
0.8889 0.6111 0.0000
0.9444 0.5833 0.0000
0.9444 0.6389 0.0000
0.8889 0.7222 0.0000
0.9444 0.6944 0.0000
0.9444 0.7500 0.0000
0.8889 0.8333 0.0000
0.9444 0.8056 0.0000
0.9444 0.8611 0.0000
0.8889 0.9444 0.0000
0.9444 0.9167 0.0000
0.9444 0.9722 0.0000
1.1111 0.0556 0.0000
1.1667 0.0278 0.0000
1.1667 0.0833 0.0000
1.1111 0.1667 0.0000
1.1667 0.1389 0.0000
1.1667 0.1944 0.0000
1.1111 0.2778 0.0000
1.1667 0.2500 0.0000
1.1667 0.3056 0.0000
1.1111 0.3889 0.0000
1.1667 0.3611 0.0000
1.1667 0.4167 0.0000
1.1111 0.5000 0.0000
1.1667 0.4722 0.0000
1.1667 0.5278 0.0000
1.1111 0.6111 0.0000
1.1667 0.5833 0.0000
1.1667 0.6389 0.0000
1.1111 0.7222 0.0000
1.1667 0.6944 0.0000
1.1667 0.7500 0.0000
1.1111 0.8333 0.0000
1.1667 0.8056 0.0000
1.1667 0.8611 0.0000
1.1111 0.9444 0.0000
1.1667 0.9167 0.0000
1.1667 0.9722 0.0000
1.3333 0.0556 0.0000
1.3889 0.0278 0.0000
1.3889 0.0833 0.0000
1.3333 0.1667 0.0000
1.3889 0.1389 0.0000
1.3889 0.1944 0.0000
1.3333 0.2778 0.0000
1.3889 0.2500 0.0000
1.3889 0.3056 0.0000
1.3333 0.3889 0.0000
1.3889 0.3611 0.0000
1.3889 0.4167 0.0000
1.3333 0.5000 0.0000
1.3889 0.4722 0.0000
1.3889 0.5278 0.0000
1.3333 0.6111 0.0000
1.3889 0.5833 0.0000
1.3889 0.6389 0.0000
1.3333 0.7222 0.0000
1.3889 0.6944 0.0000
1.3889 0.7500 0.0000
1.3333 0.8333 0.0000
1.3889 0.8056 0.0000
1.3889 0.8611 0.0000
1.3333 0.9444 0.0000
1.3889 0.9167 0.0000
1.3889 0.9722 0.0000
1.5556 0.0556 0.0000
1.6111 0.0278 0.0000
1.6111 0.0833 0.0000
1.5556 0.1667 0.0000
1.6111 0.1389 0.0000
1.6111 0.1944 0.0000
1.5556 0.2778 0.0000
1.6111 0.2500 0.0000
1.6111 0.3056 0.0000
1.5556 0.3889 0.0000
1.6111 0.3611 0.0000
1.6111 0.4167 0.0000
1.5556 0.5000 0.0000
1.6111 0.4722 0.0000
1.6111 0.5278 0.0000
1.5556 0.6111 0.0000
1.6111 0.5833 0.0000
1.6111 0.6389 0.0000
1.5556 0.7222 0.0000
1.6111 0.6944 0.0000
1.6111 0.7500 0.0000
1.5556 0.8333 0.0000
1.6111 0.8056 0.0000
1.6111 0.8611 0.0000
1.5556 0.9444 0.0000
1.6111 0.9167 0.0000
1.6111 0.9722 0.0000
1.7778 0.0556 0.0000
1.8333 0.0278 0.0000
1.8333 0.0833 0.0000
1.7778 0.1667 0.0000
1.8333 0.1389 0.0000
1.8333 0.1944 0.0000
1.7778 0.2778 0.0000
1.8333 0.2500 0.0000
1.8333 0.3056 0.0000
1.7778 0.3889 0.0000
1.8333 0.3611 0.0000
1.8333 0.4167 0.0000
1.7778 0.5000 0.0000
1.8333 0.4722 0.0000
1.8333 0.5278 0.0000
1.7778 0.6111 0.0000
1.8333 0.5833 0.0000
1.8333 0.6389 0.0000
1.7778 0.7222 0.0000
1.8333 0.6944 0.0000
1.8333 0.7500 0.0000
1.7778 0.8333 0.0000
1.8333 0.8056 0.0000
1.8333 0.8611 0.0000
1.7778 0.9444 0.0000
1.8333 0.9167 0.0000
1.8333 0.9722 0.0000
0.1111 0.1111 0.0000
0.1667 0.0833 0.0000
0.1111 0.2222 0.0000
0.1667 0.1944 0.0000
0.1111 0.3333 0.0000
0.1667 0.3056 0.0000
0.1111 0.4444 0.0000
0.1667 0.4167 0.0000
0.1111 0.5556 0.0000
0.1667 0.5278 0.0000
0.1111 0.6667 0.0000
0.1667 0.6389 0.0000
0.1111 0.7778 0.0000
0.1667 0.7500 0.0000
0.1111 0.8889 0.0000
0.1667 0.8611 0.0000
0.1111 1.0000 0.0000
0.1667 0.9722 0.0000
0.3333 0.1111 0.0000
0.3889 0.0833 0.0000
0.3333 0.2222 0.0000
0.3889 0.1944 0.0000
0.3333 0.3333 0.0000
0.3889 0.3056 0.0000
0.3333 0.4444 0.0000
0.3889 0.4167 0.0000
0.3333 0.5556 0.0000
0.3889 0.5278 0.0000
0.3333 0.6667 0.0000
0.3889 0.6389 0.0000
0.3333 0.7778 0.0000
0.3889 0.7500 0.0000
0.3333 0.8889 0.0000
0.3889 0.8611 0.0000
0.3333 1.0000 0.0000
0.3889 0.9722 0.0000
0.5556 0.1111 0.0000
[...]
         <PointData>
            <DataArray Name="fValues" NumberOfComponents="3" format="ascii" type="Float64">
 4.78034e-18 -2.39017e-18        00000 
-6.44798e-19  1.61199e-19        00000 
 1.87682e-18 -4.58503e-19        00000 
-2.05489e-18 -3.85292e-19        00000 
-1.06936e-18 -5.99337e-19        00000 
-1.12377e-19        00000        00000 
 5.64072e-20 -5.80189e-19        00000 
 4.49101e-19  4.81180e-19        00000 
 1.54789e-18 -9.02933e-19        00000 
 5.97542e-18        00000        00000 
-7.44961e-02 -5.07310e-02        00000 
-5.40222e-02 -3.66456e-02        00000 
-3.81437e-02 -2.68153e-02        00000 
-2.53948e-02 -2.13039e-02        00000 
-1.40004e-02 -1.92214e-02        00000 
-3.24538e-03 -1.93419e-02        00000 
 7.47562e-03 -2.13035e-02        00000 
 1.98121e-02 -2.54837e-02        00000 
 3.53498e-02 -3.23214e-02        00000 
 5.57498e-02 -4.22283e-02        00000 
-1.38343e-01 -1.02923e-01        00000 
-1.08087e-01 -9.07532e-02        00000 
-7.92596e-02 -8.19652e-02        00000 
-5.23450e-02 -7.65190e-02        00000 
-2.78958e-02 -7.43330e-02        00000 
-4.80020e-03 -7.49776e-02        00000 
 1.81355e-02 -7.80114e-02        00000 
 4.32224e-02 -8.36805e-02        00000 
 7.18587e-02 -9.15595e-02        00000 
 1.04116e-01 -1.00977e-01        00000 
-1.97887e-01 -1.79687e-01        00000 
-1.54887e-01 -1.68968e-01        00000 
-1.14070e-01 -1.61437e-01        00000 
-7.48775e-02 -1.56754e-01        00000 
-3.81450e-02 -1.54649e-01        00000 
-3.27876e-03 -1.55385e-01        00000 
 3.11929e-02 -1.58888e-01        00000 
 6.69404e-02 -1.64507e-01        00000 
 1.05250e-01 -1.71496e-01        00000 
 1.46947e-01 -1.79885e-01        00000 
-2.49084e-01 -2.78456e-01        00000 
-1.94890e-01 -2.69382e-01        00000 
-1.43166e-01 -2.62679e-01        00000 
-9.40617e-02 -2.58345e-01        00000 
-4.67454e-02 -2.56578e-01        00000 
-6.25463e-04 -2.57124e-01        00000 
 4.38722e-02 -2.59748e-01        00000 
 8.85780e-02 -2.64324e-01        00000 
 1.35884e-01 -2.70638e-01        00000 
 1.86864e-01 -2.78323e-01        00000 
-2.92713e-01 -3.99301e-01        00000 
-2.28947e-01 -3.91858e-01        00000 
-1.68487e-01 -3.86213e-01        00000 
-1.10361e-01 -3.82334e-01        00000 
-5.42229e-02 -3.79848e-01        00000 
-1.21194e-04 -3.78912e-01        00000 
 5.35780e-02 -3.79447e-01        00000 
 1.07663e-01 -3.81931e-01        00000 
 1.63725e-01 -3.86558e-01        00000 
 2.23258e-01 -3.92624e-01        00000 
-3.25779e-01 -5.38136e-01        00000 
-2.54837e-01 -5.32464e-01        00000 
-1.87679e-01 -5.27732e-01        00000 
-1.23397e-01 -5.23606e-01        00000 
-6.12882e-02 -5.20331e-01        00000 
-8.04700e-04 -5.18069e-01        00000 
 6.01680e-02 -5.17295e-01        00000 
 1.22385e-01 -5.18043e-01        00000 
 1.86283e-01 -5.20863e-01        00000 
 2.53961e-01 -5.25347e-01        00000 
-3.46663e-01 -6.84419e-01        00000 
-2.73131e-01 -6.80778e-01        00000 
-2.02394e-01 -6.77389e-01        00000 
-1.34830e-01 -6.74113e-01        00000 
-6.83155e-02 -6.71385e-01        00000 
-2.37962e-03 -6.69769e-01        00000 
 6.40995e-02 -6.69692e-01        00000 
 1.31485e-01 -6.70352e-01        00000 
 2.01221e-01 -6.72274e-01        00000 
 2.76571e-01 -6.75247e-01        00000 
-3.61788e-01 -8.38657e-01        00000 
-2.84560e-01 -8.36342e-01        00000 
-2.10977e-01 -8.34601e-01        00000 
-1.40976e-01 -8.33300e-01        00000 
-7.21834e-02 -8.32517e-01        00000 
-3.16687e-03 -8.31752e-01        00000 
 6.60706e-02 -8.31442e-01        00000 
 1.36665e-01 -8.31497e-01        00000 
 2.10655e-01 -8.32165e-01        00000 
 2.88577e-01 -8.33965e-01        00000 
-3.69631e-01 -1.00257e+00        00000 
-2.89208e-01 -9.99094e-01        00000 
-2.14839e-01 -9.95359e-01        00000 
-1.43095e-01 -9.92810e-01        00000 
-7.29724e-02 -9.91632e-01        00000 
-2.91248e-03 -9.91621e-01        00000 
 6.73789e-02 -9.92917e-01        00000 
 1.38951e-01 -9.95608e-01        00000 
 2.14168e-01 -1.00026e+00        00000 
 2.97925e-01 -1.00456e+00        00000 
-3.05913e-02 -2.10821e-02        00000 
-2.09263e-02 -1.12243e-02        00000 
-1.46419e-02 -6.51564e-03        00000 
-9.42665e-03 -4.42210e-03        00000 
-4.51852e-03 -3.82299e-03        00000 
 4.80536e-04 -4.58066e-03        00000 
 5.85932e-03 -6.19577e-03        00000 
 1.22833e-02 -9.53141e-03        00000 
 2.14456e-02 -1.65687e-02        00000 
-9.42743e-02 -6.74931e-02        00000 
-7.04377e-02 -5.59947e-02        00000 
-4.90305e-02 -4.79893e-02        00000 
-3.01990e-02 -4.40273e-02        00000 
-1.28609e-02 -4.29646e-02        00000 
 3.79103e-03 -4.45093e-02        00000 
 2.13735e-02 -4.83341e-02        00000 
 4.20262e-02 -5.45631e-02        00000 
 6.66988e-02 -6.32928e-02        00000 
-1.50434e-01 -1.31465e-01        00000 
-1.14690e-01 -1.22047e-01        00000 
-8.04746e-02 -1.15476e-01        00000 
-4.85000e-02 -1.12052e-01        00000 
-1.87784e-02 -1.11463e-01        00000 
 9.80494e-03 -1.13672e-01        00000 
 3.93418e-02 -1.18231e-01        00000 
 7.15831e-02 -1.24935e-01        00000 
 1.06935e-01 -1.33105e-01        00000 
-1.99709e-01 -2.20745e-01        00000 
-1.52203e-01 -2.12547e-01        00000 
-1.06820e-01 -2.06849e-01        00000 
-6.37270e-02 -2.03410e-01        00000 
-2.24052e-02 -2.02625e-01        00000 
 1.77568e-02 -2.04812e-01        00000 
 5.74978e-02 -2.09277e-01        00000 
 9.88190e-02 -2.15183e-01        00000 
 1.43464e-01 -2.22566e-01        00000 
-2.41846e-01 -3.32073e-01        00000 
-1.84294e-01 -3.24599e-01        00000 
-1.29224e-01 -3.19226e-01        00000 
-7.62587e-02 -3.16134e-01        00000 
-2.52709e-02 -3.15221e-01        00000 
 2.44606e-02 -3.15826e-01        00000 
 7.36106e-02 -3.18471e-01        00000 
 1.23905e-01 -3.23095e-01        00000 
 1.77318e-01 -3.29462e-01        00000 
-2.76232e-01 -4.63917e-01        00000 
-2.10427e-01 -4.57912e-01        00000 
-1.47516e-01 -4.53250e-01        00000 
-8.73040e-02 -4.49872e-01        00000 
-2.89226e-02 -4.47671e-01        00000 
 2.82850e-02 -4.46555e-01        00000 
 8.61818e-02 -4.47099e-01        00000 
 1.45358e-01 -4.49691e-01        00000 
 2.06954e-01 -4.54346e-01        00000 
-3.00813e-01 -6.08846e-01        00000 
-2.29900e-01 -6.04259e-01        00000 
-1.62267e-01 -6.00082e-01        00000 
-9.70358e-02 -5.96150e-01        00000 
-3.33250e-02 -5.93335e-01        00000 
 3.00596e-02 -5.91850e-01        00000 
 9.47347e-02 -5.91858e-01        00000 
 1.60946e-01 -5.93061e-01        00000 
 2.29946e-01 -5.95656e-01        00000 
-3.16886e-01 -7.58388e-01        00000 
-2.43079e-01 -7.55841e-01        00000 
-1.72713e-01 -7.53915e-01        00000 
-1.04528e-01 -7.52190e-01        00000 
-3.67362e-02 -7.50908e-01        00000 
 3.12709e-02 -7.50418e-01        00000 
 9.97468e-02 -7.50572e-01        00000 
 1.70226e-01 -7.51557e-01        00000 
 2.44191e-01 -7.53909e-01        00000 
-3.26034e-01 -9.16759e-01        00000 
-2.49652e-01 -9.15490e-01        00000 
-1.77119e-01 -9.13732e-01        00000 
-1.07043e-01 -9.12684e-01        00000 
-3.77726e-02 -9.12166e-01        00000 
 3.18412e-02 -9.12139e-01        00000 
 1.02060e-01 -9.12727e-01        00000 
 1.74683e-01 -9.13783e-01        00000 
 2.52733e-01 -9.14651e-01        00000 
-1.41152e-18 -2.57724e-18        00000 
-1.62371e-02 -1.11892e-02        00000 
-1.27536e-02 -7.57804e-03        00000 
 2.12665e-18  1.54009e-18        00000 
-1.06411e-02 -5.27623e-03        00000 
-8.96000e-03 -3.70165e-03        00000 
-9.75782e-19 -9.75782e-19        00000 
-7.54601e-03 -2.63636e-03        00000 
-6.17204e-03 -1.98135e-03        00000 
-1.04150e-18 -8.30696e-20        00000 
-5.01816e-03 -1.54131e-03        00000 
-3.82757e-03 -1.14829e-03        00000 
-3.65918e-19 -5.48877e-19        00000 
-2.73704e-03 -1.00809e-03        00000 
-1.49519e-03 -9.09236e-04        00000 
 5.15852e-20  1.57684e-19        00000 
-3.95352e-04 -1.05460e-03        00000 
 7.91179e-04 -1.19728e-03        00000 
 4.87891e-19 -2.43945e-19        00000 
 2.04256e-03 -1.57977e-03        00000 
 3.38392e-03 -2.10443e-03        00000 
       00000  4.87891e-19        00000 
 4.85307e-03 -2.93748e-03        00000 
 6.63399e-03 -4.13039e-03        00000 
-2.81434e-19 -3.45416e-19        00000 
 8.71965e-03 -5.82716e-03        00000 
 1.17927e-02 -8.62666e-03        00000 
-6.37829e-02 -4.34043e-02        00000 
-8.48942e-02 -5.85277e-02        00000 
-7.37309e-02 -5.18038e-02        00000 
-4.54416e-02 -3.11168e-02        00000 
-6.31161e-02 -4.57056e-02        00000 
-5.35380e-02 -4.06033e-02        00000 
-3.15185e-02 -2.35223e-02        00000 
-4.45988e-02 -3.66484e-02        00000 
-3.63145e-02 -3.37647e-02        00000 
-1.95487e-02 -1.99380e-02        00000 
-2.86815e-02 -3.19733e-02        00000 
-2.13558e-02 -3.08186e-02        00000 
-8.55063e-03 -1.89331e-02        00000 
-1.43603e-02 -3.02574e-02        00000 
-7.36232e-03 -3.02485e-02        00000 
 1.99938e-03 -2.00480e-02        00000 
-6.77113e-04 -3.08875e-02        00000 
 6.22459e-03 -3.20376e-02        00000 
 1.33946e-02 -2.30644e-02        00000 
 1.34305e-02 -3.38082e-02        00000 
 2.12669e-02 -3.61409e-02        00000 
 2.69573e-02 -2.84150e-02        00000 
 2.98635e-02 -3.90276e-02        00000 
 3.94858e-02 -4.27125e-02        00000 
 4.50833e-02 -3.70301e-02        00000 
 5.02257e-02 -4.71702e-02        00000 
 6.21479e-02 -5.21271e-02        00000 
-1.23100e-01 -9.63888e-02        00000 
-1.45435e-01 -1.16435e-01        00000 
-1.28600e-01 -1.10393e-01        00000 
-9.35179e-02 -8.59631e-02        00000 
-1.12420e-01 -1.05402e-01        00000 
-9.64919e-02 -1.01300e-01        00000 
-6.54743e-02 -7.88252e-02        00000 
-8.08682e-02 -9.80722e-02        00000 
-6.57320e-02 -9.54231e-02        00000 
-3.99101e-02 -7.50100e-02        00000 
-5.13760e-02 -9.37272e-02        00000 
-3.75220e-02 -9.27568e-02        00000 
-1.62942e-02 -7.43537e-02        00000 
-2.42938e-02 -9.24935e-02        00000 
-1.12831e-02 -9.28173e-02        00000 
 6.45548e-03 -7.61599e-02        00000 
 1.57964e-03 -9.38229e-02        00000 
 1.45364e-02 -9.53221e-02        00000 
 3.01658e-02 -8.05815e-02        00000 
 2.78080e-02 -9.76185e-02        00000 
 4.17299e-02 -1.00528e-01        00000 
 5.69695e-02 -8.73944e-02        00000 
 5.65454e-02 -1.03920e-01        00000 
 7.22371e-02 -1.07789e-01        00000 
 8.75718e-02 -9.60859e-02        00000 
 8.88754e-02 -1.12072e-01        00000 
 1.06138e-01 -1.16612e-01        00000 
-1.75997e-01 -1.73869e-01        00000 
-1.99564e-01 -1.99603e-01        00000 
-1.76706e-01 -1.94433e-01        00000 
-1.34263e-01 -1.64818e-01        00000 
-1.54391e-01 -1.90009e-01        00000 
-1.32596e-01 -1.86486e-01        00000 
-9.43155e-02 -1.58708e-01        00000 
-1.11237e-01 -1.83609e-01        00000 
-9.03122e-02 -1.81300e-01        00000 
-5.62236e-02 -1.55261e-01        00000 
-6.99946e-02 -1.79685e-01        00000 
-5.02073e-02 -1.78545e-01        00000 
-2.06168e-02 -1.54553e-01        00000 
-3.09809e-02 -1.78202e-01        00000 
-1.20414e-02 -1.78373e-01        00000 
 1.38210e-02 -1.56677e-01        00000 
 6.56401e-03 -1.79501e-01        00000 
 2.51274e-02 -1.81234e-01        00000 
 4.88005e-02 -1.61383e-01        00000 
 4.37756e-02 -1.83617e-01        00000 
 6.28091e-02 -1.86366e-01        00000 
 8.56813e-02 -1.67766e-01        00000 
 8.22808e-02 -1.89384e-01        00000 
 1.02603e-01 -1.92870e-01        00000 
 1.25785e-01 -1.75457e-01        00000 
 1.23815e-01 -1.96692e-01        00000 
 1.45846e-01 -2.00780e-01        00000 
-2.21666e-01 -2.73572e-01        00000 
-2.46181e-01 -3.04797e-01        00000 
-2.17791e-01 -3.00162e-01        00000 
-1.68721e-01 -2.65665e-01        00000 
-1.90237e-01 -2.96288e-01        00000 
-1.63351e-01 -2.92963e-01        00000 
-1.18366e-01 -2.60087e-01        00000 
-1.36996e-01 -2.90252e-01        00000 
-1.11121e-01 -2.88014e-01        00000 
-7.03075e-02 -2.57026e-01        00000 
-8.58034e-02 -2.86628e-01        00000 
-6.10303e-02 -2.85799e-01        00000 
-2.35792e-02 -2.56431e-01        00000 
-3.65817e-02 -2.85393e-01        00000 
-1.24191e-02 -2.85497e-01        00000 
 2.17445e-02 -2.58019e-01        00000 
 1.14069e-02 -2.86053e-01        00000 
 3.48677e-02 -2.87056e-01        00000 
 6.59901e-02 -2.61700e-01        00000 
 5.81578e-02 -2.88601e-01        00000 
 8.16689e-02 -2.90806e-01        00000 
 1.11725e-01 -2.67207e-01        00000 
 1.05620e-01 -2.93362e-01        00000 
 1.30372e-01 -2.96467e-01        00000 
 1.61100e-01 -2.74302e-01        00000 
 1.56179e-01 -2.99860e-01        00000 
 1.82720e-01 -3.03584e-01        00000 
-2.60232e-01 -3.95235e-01        00000 
-2.85185e-01 -4.31124e-01        00000 
-2.52115e-01 -4.27616e-01        00000 
-1.98361e-01 -3.88715e-01        00000 
-2.20258e-01 -4.24412e-01        00000 
-1.89103e-01 -4.21779e-01        00000 
-1.39171e-01 -3.83941e-01        00000 
-1.58440e-01 -4.19346e-01        00000 
-1.28496e-01 -4.17529e-01        00000 
-8.20256e-02 -3.80742e-01        00000 
-9.90611e-02 -4.15872e-01        00000 
-7.02528e-02 -4.14744e-01        00000 
-2.70429e-02 -3.79110e-01        00000 
-4.19131e-02 -4.13532e-01        00000 
-1.41101e-02 -4.12911e-01        00000 
 2.66917e-02 -3.78796e-01        00000 
 1.37215e-02 -4.12433e-01        00000 
 4.14914e-02 -4.12512e-01        00000 
 8.04796e-02 -3.80288e-01        00000 
 6.94477e-02 -4.12818e-01        00000 
 9.74810e-02 -4.14022e-01        00000 
 1.35260e-01 -3.83950e-01        00000 
 1.26064e-01 -4.15489e-01        00000 
 1.55091e-01 -4.17658e-01        00000 
 1.93021e-01 -3.89394e-01        00000 
 1.84951e-01 -4.20060e-01        00000 
 2.15668e-01 -4.23209e-01        00000 
-2.89951e-01 -5.35168e-01        00000 
-3.13675e-01 -5.73116e-01        00000 
-2.77834e-01 -5.70667e-01        00000 
-2.20844e-01 -5.29986e-01        00000 
-2.42731e-01 -5.68147e-01        00000 
-2.08678e-01 -5.65937e-01        00000 
-1.55297e-01 -5.25502e-01        00000 
-1.75338e-01 -5.63733e-01        00000 
-1.42706e-01 -5.61754e-01        00000 
-9.21910e-02 -5.21741e-01        00000 
-1.10492e-01 -5.59829e-01        00000 
-7.89124e-02 -5.58180e-01        00000 
-3.10148e-02 -5.18985e-01        00000 
-4.77697e-02 -5.56561e-01        00000 
-1.68740e-02 -5.55478e-01        00000 
 2.94050e-02 -5.17465e-01        00000 
 1.41754e-02 -5.54630e-01        00000 
 4.52965e-02 -5.54184e-01        00000 
 9.10937e-02 -5.17447e-01        00000 
 7.69279e-02 -5.53925e-01        00000 
 1.08911e-01 -5.54438e-01        00000 
 1.54007e-01 -5.19230e-01        00000 
 1.41259e-01 -5.55096e-01        00000 
 1.74070e-01 -5.56322e-01        00000 
 2.19571e-01 -5.22973e-01        00000 
 2.07709e-01 -5.57884e-01        00000 
 2.42615e-01 -5.60159e-01        00000 
-3.09715e-01 -6.82727e-01        00000 
-3.32358e-01 -7.21191e-01        00000 
-2.94948e-01 -7.19200e-01        00000 
-2.37310e-01 -6.79155e-01        00000 
-2.58410e-01 -7.17726e-01        00000 
-2.22785e-01 -7.16209e-01        00000 
-1.68325e-01 -6.75749e-01        00000 
-1.88055e-01 -7.14933e-01        00000 
-1.53887e-01 -7.13690e-01        00000 
-1.01584e-01 -6.72713e-01        00000 
-1.20057e-01 -7.12555e-01        00000 
-8.65331e-02 -7.11636e-01        00000 
-3.53977e-02 -6.70387e-01        00000 
-5.31095e-02 -7.10617e-01        00000 
-1.95841e-02 -7.10041e-01        00000 
 3.06574e-02 -6.69566e-01        00000 
 1.41720e-02 -7.09641e-01        00000 
 4.78585e-02 -7.09660e-01        00000 
 9.76008e-02 -6.69890e-01        00000 
 8.16189e-02 -7.09759e-01        00000 
 1.15791e-01 -7.10295e-01        00000 
 1.65881e-01 -6.71187e-01        00000 
 1.50606e-01 -7.10763e-01        00000 
 1.86120e-01 -7.11819e-01        00000 
 2.37827e-01 -6.73637e-01        00000 
 2.22462e-01 -7.13129e-01        00000 
 2.60371e-01 -7.14760e-01        00000 
-3.22668e-01 -8.37464e-01        00000 
-3.44478e-01 -8.77434e-01        00000 
-3.05279e-01 -8.76505e-01        00000 
-2.47155e-01 -8.35386e-01        00000 
-2.67209e-01 -8.75757e-01        00000 
-2.30248e-01 -8.74904e-01        00000 
-1.75530e-01 -8.33874e-01        00000 
-1.94300e-01 -8.74223e-01        00000 
-1.58918e-01 -8.73653e-01        00000 
-1.06575e-01 -8.32863e-01        00000 
-1.24276e-01 -8.73230e-01        00000 
-8.97308e-02 -8.72984e-01        00000 
-3.75554e-02 -8.32150e-01        00000 
-5.52203e-02 -8.72665e-01        00000 
-2.04000e-02 -8.72283e-01        00000 
 3.13485e-02 -8.31692e-01        00000 
 1.40861e-02 -8.72156e-01        00000 
 4.90395e-02 -8.71905e-01        00000 
 1.01091e-01 -8.31550e-01        00000 
 8.39051e-02 -8.72064e-01        00000 
 1.19486e-01 -8.72090e-01        00000 
 1.73159e-01 -8.31875e-01        00000 
 1.55501e-01 -8.72438e-01        00000 
 1.92859e-01 -8.72680e-01        00000 
 2.49255e-01 -8.32953e-01        00000 
 2.31365e-01 -8.73049e-01        00000 
 2.71343e-01 -8.73870e-01        00000 
-2.50934e-02 -1.53786e-02        00000 
-4.32700e-02 -2.86984e-02        00000 
-1.76475e-02 -8.47917e-03        00000 
-3.01917e-02 -1.81544e-02        00000 
-1.19992e-02 -5.33175e-03        00000 
-2.06748e-02 -1.25232e-02        00000 
-6.97562e-03 -4.00330e-03        00000 
-1.24949e-02 -1.01497e-02        00000 
-2.00309e-03 -4.13201e-03        00000 
-4.51426e-03 -9.91168e-03        00000 
 3.15431e-03 -5.26870e-03        00000 
 3.16671e-03 -1.13147e-02        00000 
 8.87231e-03 -7.60596e-03        00000 
 1.18109e-02 -1.41716e-02        00000 
 1.62637e-02 -1.23782e-02        00000 
 2.25130e-02 -1.95769e-02        00000 
 2.99401e-02 -2.25920e-02        00000 
 3.81488e-02 -2.93687e-02        00000 
-8.20593e-02 -6.14183e-02        00000 
-1.02032e-01 -7.83538e-02        00000 
-5.94436e-02 -5.13954e-02        00000 
-7.58125e-02 -6.79127e-02        00000 
-3.92635e-02 -4.56204e-02        00000 
-5.15966e-02 -6.10708e-02        00000 
-2.14265e-02 -4.31081e-02        00000 
-2.98847e-02 -5.78040e-02        00000 
-4.42706e-03 -4.34279e-02        00000 
-9.65887e-03 -5.76760e-02        00000 
 1.24003e-02 -4.61291e-02        00000 
 1.00694e-02 -6.00909e-02        00000 
 3.12974e-02 -5.11085e-02        00000 
 3.13301e-02 -6.48125e-02        00000 
 5.38762e-02 -5.86904e-02        00000 
 5.60655e-02 -7.21964e-02        00000 
 8.08644e-02 -6.83241e-02        00000 
 8.47183e-02 -8.16835e-02        00000 
-1.32303e-01 -1.26352e-01        00000 
-1.53550e-01 -1.49398e-01        00000 
-9.74309e-02 -1.18417e-01        00000 
-1.15265e-01 -1.40572e-01        00000 
-6.41648e-02 -1.13462e-01        00000 
-7.85808e-02 -1.34774e-01        00000 
-3.34618e-02 -1.11492e-01        00000 
-4.40272e-02 -1.31990e-01        00000 
-4.52421e-03 -1.12361e-01        00000 
-1.17755e-02 -1.32163e-01        00000 
 2.43408e-02 -1.15693e-01        00000 
 1.96907e-02 -1.35153e-01        00000 
 5.50243e-02 -1.21480e-01        00000 
 5.24247e-02 -1.40350e-01        00000 
 8.88115e-02 -1.28971e-01        00000 
 8.78248e-02 -1.47515e-01        00000 
 1.25936e-01 -1.37786e-01        00000 
 1.26241e-01 -1.56183e-01        00000 
-1.75713e-01 -2.16288e-01        00000 
-1.98140e-01 -2.44234e-01        00000 
-1.29204e-01 -2.09275e-01        00000 
-1.48359e-01 -2.36597e-01        00000 
-8.49604e-02 -2.04920e-01        00000 
-1.01118e-01 -2.31509e-01        00000 
-4.28238e-02 -2.02656e-01        00000 
-5.60177e-02 -2.28781e-01        00000 
-2.09432e-03 -2.03408e-01        00000 
-1.20644e-02 -2.28916e-01        00000 
 3.76335e-02 -2.06875e-01        00000 
 3.03581e-02 -2.31513e-01        00000 
 7.78137e-02 -2.12080e-01        00000 
 7.23978e-02 -2.36033e-01        00000 
 1.20617e-01 -2.18707e-01        00000 
 1.16614e-01 -2.42215e-01        00000 
 1.67469e-01 -2.26879e-01        00000 
 1.64572e-01 -2.50222e-01        00000 
-2.12711e-01 -3.28175e-01        00000 