<?xml version="1.0" encoding="utf-8"?>
<VTKFile byte_order="LittleEndian" type="UnstructuredGrid" version="0.1">
   <UnstructuredGrid>
      <Piece NumberOfCells="1296" NumberOfPoints="685">
         <Points>
            <DataArray Name="Points" NumberOfComponents="3" format="ascii" type="Float32">
0.0000 0.0000 0.0000
0.0000 0.1111 0.0000
0.0000 0.2222 0.0000
0.0000 0.3333 0.0000
0.0000 0.4444 0.0000
0.0000 0.5556 0.0000
0.0000 0.6667 0.0000
0.0000 0.7778 0.0000
0.0000 0.8889 0.0000
0.0000 1.0000 0.0000
0.2222 0.0000 0.0000
0.2222 0.1111 0.0000
0.2222 0.2222 0.0000
0.2222 0.3333 0.0000
0.2222 0.4444 0.0000
0.2222 0.5556 0.0000
0.2222 0.6667 0.0000
0.2222 0.7778 0.0000
0.2222 0.8889 0.0000
0.2222 1.0000 0.0000
0.4444 0.0000 0.0000
0.4444 0.1111 0.0000
0.4444 0.2222 0.0000
0.4444 0.3333 0.0000
0.4444 0.4444 0.0000
0.4444 0.5556 0.0000
0.4444 0.6667 0.0000
0.4444 0.7778 0.0000
0.4444 0.8889 0.0000
0.4444 1.0000 0.0000
0.6667 0.0000 0.0000
0.6667 0.1111 0.0000
0.6667 0.2222 0.0000
0.6667 0.3333 0.0000
0.6667 0.4444 0.0000
0.6667 0.5556 0.0000
0.6667 0.6667 0.0000
0.6667 0.7778 0.0000
0.6667 0.8889 0.0000
0.6667 1.0000 0.0000
0.8889 0.0000 0.0000
0.8889 0.1111 0.0000
0.8889 0.2222 0.0000
0.8889 0.3333 0.0000
0.8889 0.4444 0.0000
0.8889 0.5556 0.0000
0.8889 0.6667 0.0000
0.8889 0.7778 0.0000
0.8889 0.8889 0.0000
0.8889 1.0000 0.0000
1.1111 0.0000 0.0000
1.1111 0.1111 0.0000
1.1111 0.2222 0.0000
1.1111 0.3333 0.0000
1.1111 0.4444 0.0000
1.1111 0.5556 0.0000
1.1111 0.6667 0.0000
1.1111 0.7778 0.0000
1.1111 0.8889 0.0000
1.1111 1.0000 0.0000
1.3333 0.0000 0.0000
1.3333 0.1111 0.0000
1.3333 0.2222 0.0000
1.3333 0.3333 0.0000
1.3333 0.4444 0.0000
1.3333 0.5556 0.0000
1.3333 0.6667 0.0000
1.3333 0.7778 0.0000
1.3333 0.8889 0.0000
1.3333 1.0000 0.0000
1.5556 0.0000 0.0000
1.5556 0.1111 0.0000
1.5556 0.2222 0.0000
1.5556 0.3333 0.0000
1.5556 0.4444 0.0000
1.5556 0.5556 0.0000
1.5556 0.6667 0.0000
1.5556 0.7778 0.0000
1.5556 0.8889 0.0000
1.5556 1.0000 0.0000
1.7778 0.0000 0.0000
1.7778 0.1111 0.0000
1.7778 0.2222 0.0000
1.7778 0.3333 0.0000
1.7778 0.4444 0.0000
1.7778 0.5556 0.0000
1.7778 0.6667 0.0000
1.7778 0.7778 0.0000
1.7778 0.8889 0.0000
1.7778 1.0000 0.0000
2.0000 0.0000 0.0000
2.0000 0.1111 0.0000
2.0000 0.2222 0.0000
2.0000 0.3333 0.0000
2.0000 0.4444 0.0000
2.0000 0.5556 0.0000
2.0000 0.6667 0.0000
2.0000 0.7778 0.0000
2.0000 0.8889 0.0000
2.0000 1.0000 0.0000
0.1111 0.0556 0.0000
0.1111 0.1667 0.0000
0.1111 0.2778 0.0000
0.1111 0.3889 0.0000
0.1111 0.5000 0.0000
0.1111 0.6111 0.0000
0.1111 0.7222 0.0000
0.1111 0.8333 0.0000
0.1111 0.9444 0.0000
0.3333 0.0556 0.0000
0.3333 0.1667 0.0000
0.3333 0.2778 0.0000
0.3333 0.3889 0.0000
0.3333 0.5000 0.0000
0.3333 0.6111 0.0000
0.3333 0.7222 0.0000
0.3333 0.8333 0.0000
0.3333 0.9444 0.0000
0.5556 0.0556 0.0000
0.5556 0.1667 0.0000
0.5556 0.2778 0.0000
0.5556 0.3889 0.0000
0.5556 0.5000 0.0000
0.5556 0.6111 0.0000
0.5556 0.7222 0.0000
0.5556 0.8333 0.0000
0.5556 0.9444 0.0000
0.7778 0.0556 0.0000
0.7778 0.1667 0.0000
0.7778 0.2778 0.0000
0.7778 0.3889 0.0000
0.7778 0.5000 0.0000
0.7778 0.6111 0.0000
0.7778 0.7222 0.0000
0.7778 0.8333 0.0000
0.7778 0.9444 0.0000
1.0000 0.0556 0.0000
1.0000 0.1667 0.0000
1.0000 0.2778 0.0000
1.0000 0.3889 0.0000
1.0000 0.5000 0.0000
1.0000 0.6111 0.0000
1.0000 0.7222 0.0000
1.0000 0.8333 0.0000
1.0000 0.9444 0.0000
1.2222 0.0556 0.0000
1.2222 0.1667 0.0000
1.2222 0.2778 0.0000
1.2222 0.3889 0.0000
1.2222 0.5000 0.0000
1.2222 0.6111 0.0000
1.2222 0.7222 0.0000
1.2222 0.8333 0.0000
1.2222 0.9444 0.0000
1.4444 0.0556 0.0000
1.4444 0.1667 0.0000
1.4444 0.2778 0.0000
1.4444 0.3889 0.0000
1.4444 0.5000 0.0000
1.4444 0.6111 0.0000
1.4444 0.7222 0.0000
1.4444 0.8333 0.0000
1.4444 0.9444 0.0000
1.6667 0.0556 0.0000
1.6667 0.1667 0.0000
1.6667 0.2778 0.0000
1.6667 0.3889 0.0000
1.6667 0.5000 0.0000
1.6667 0.6111 0.0000
1.6667 0.7222 0.0000
1.6667 0.8333 0.0000
1.6667 0.9444 0.0000
1.8889 0.0556 0.0000
1.8889 0.1667 0.0000
1.8889 0.2778 0.0000
1.8889 0.3889 0.0000
1.8889 0.5000 0.0000
1.8889 0.6111 0.0000
1.8889 0.7222 0.0000
1.8889 0.8333 0.0000
1.8889 0.9444 0.0000
0.0000 0.0556 0.0000
0.0556 0.0278 0.0000
0.0556 0.0833 0.0000
0.0000 0.1667 0.0000
0.0556 0.1389 0.0000
0.0556 0.1944 0.0000
0.0000 0.2778 0.0000
0.0556 0.2500 0.0000
0.0556 0.3056 0.0000
0.0000 0.3889 0.0000
0.0556 0.3611 0.0000
0.0556 0.4167 0.0000
0.0000 0.5000 0.0000
0.0556 0.4722 0.0000
0.0556 0.5278 0.0000
0.0000 0.6111 0.0000
0.0556 0.5833 0.0000
0.0556 0.6389 0.0000
0.0000 0.7222 0.0000
0.0556 0.6944 0.0000
0.0556 0.7500 0.0000
0.0000 0.8333 0.0000
0.0556 0.8056 0.0000
0.0556 0.8611 0.0000
0.0000 0.9444 0.0000
0.0556 0.9167 0.0000
0.0556 0.9722 0.0000
0.2222 0.0556 0.0000
0.2778 0.0278 0.0000
0.2778 0.0833 0.0000
0.2222 0.1667 0.0000
0.2778 0.1389 0.0000
0.2778 0.1944 0.0000
0.2222 0.2778 0.0000
0.2778 0.2500 0.0000
0.2778 0.3056 0.0000
0.2222 0.3889 0.0000
0.2778 0.3611 0.0000
0.2778 0.4167 0.0000
0.2222 0.5000 0.0000
0.2778 0.4722 0.0000
0.2778 0.5278 0.0000
0.2222 0.6111 0.0000
0.2778 0.5833 0.0000
0.2778 0.6389 0.0000
0.2222 0.7222 0.0000
0.2778 0.6944 0.0000
0.2778 0.7500 0.0000
0.2222 0.8333 0.0000
0.2778 0.8056 0.0000
0.2778 0.8611 0.0000
0.2222 0.9444 0.0000
0.2778 0.9167 0.0000
0.2778 0.9722 0.0000
0.4444 0.0556 0.0000
0.5000 0.0278 0.0000
0.5000 0.0833 0.0000
0.4444 0.1667 0.0000
0.5000 0.1389 0.0000
0.5000 0.1944 0.0000
0.4444 0.2778 0.0000
0.5000 0.2500 0.0000
0.5000 0.3056 0.0000
0.4444 0.3889 0.0000
0.5000 0.3611 0.0000
0.5000 0.4167 0.0000
0.4444 0.5000 0.0000
0.5000 0.4722 0.0000
0.5000 0.5278 0.0000
0.4444 0.6111 0.0000
0.5000 0.5833 0.0000
0.5000 0.6389 0.0000
0.4444 0.7222 0.0000
0.5000 0.6944 0.0000
0.5000 0.7500 0.0000
0.4444 0.8333 0.0000
0.5000 0.8056 0.0000
0.5000 0.8611 0.0000
0.4444 0.9444 0.0000
0.5000 0.9167 0.0000
0.5000 0.9722 0.0000
0.6667 0.0556 0.0000
0.7222 0.0278 0.0000
0.7222 0.0833 0.0000
0.6667 0.1667 0.0000
0.7222 0.1389 0.0000
0.7222 0.1944 0.0000
0.6667 0.2778 0.0000
0.7222 0.2500 0.0000
0.7222 0.3056 0.0000
0.6667 0.3889 0.0000
0.7222 0.3611 0.0000
0.7222 0.4167 0.0000
0.6667 0.5000 0.0000
0.7222 0.4722 0.0000
0.7222 0.5278 0.0000
0.6667 0.6111 0.0000
0.7222 0.5833 0.0000
0.7222 0.6389 0.0000
0.6667 0.7222 0.0000
0.7222 0.6944 0.0000
0.7222 0.7500 0.0000
0.6667 0.8333 0.0000
0.7222 0.8056 0.0000
0.7222 0.8611 0.0000
0.6667 0.9444 0.0000
0.7222 0.9167 0.0000
0.7222 0.9722 0.0000
0.8889 0.0556 0.0000
0.9444 0.0278 0.0000
0.9444 0.0833 0.0000
0.8889 0.1667 0.0000
0.9444 0.1389 0.0000
0.9444 0.1944 0.0000
0.8889 0.2778 0.0000
0.9444 0.2500 0.0000
0.9444 0.3056 0.0000
0.8889 0.3889 0.0000
0.9444 0.3611 0.0000
0.9444 0.4167 0.0000
0.8889 0.5000 0.0000
0.9444 0.4722 0.0000
0.9444 0.5278 0.0000
0.8889 0.6111 0.0000
0.9444 0.5833 0.0000
0.9444 0.6389 0.0000
0.8889 0.7222 0.0000
0.9444 0.6944 0.0000
0.9444 0.7500 0.0000
0.8889 0.8333 0.0000
0.9444 0.8056 0.0000
0.9444 0.8611 0.0000
0.8889 0.9444 0.0000
0.9444 0.9167 0.0000
0.9444 0.9722 0.0000
1.1111 0.0556 0.0000
1.1667 0.0278 0.0000
1.1667 0.0833 0.0000
1.1111 0.1667 0.0000
1.1667 0.1389 0.0000
1.1667 0.1944 0.0000
1.1111 0.2778 0.0000
1.1667 0.2500 0.0000
1.1667 0.3056 0.0000
1.1111 0.3889 0.0000
1.1667 0.3611 0.0000
1.1667 0.4167 0.0000
1.1111 0.5000 0.0000
1.1667 0.4722 0.0000
1.1667 0.5278 0.0000
1.1111 0.6111 0.0000
1.1667 0.5833 0.0000
1.1667 0.6389 0.0000
1.1111 0.7222 0.0000
1.1667 0.6944 0.0000
1.1667 0.7500 0.0000
1.1111 0.8333 0.0000
1.1667 0.8056 0.0000
1.1667 0.8611 0.0000
1.1111 0.9444 0.0000
1.1667 0.9167 0.0000
1.1667 0.9722 0.0000
1.3333 0.0556 0.0000
1.3889 0.0278 0.0000
1.3889 0.0833 0.0000
1.3333 0.1667 0.0000
1.3889 0.1389 0.0000
1.3889 0.1944 0.0000
1.3333 0.2778 0.0000
1.3889 0.2500 0.0000
1.3889 0.3056 0.0000
1.3333 0.3889 0.0000
1.3889 0.3611 0.0000
1.3889 0.4167 0.0000
1.3333 0.5000 0.0000
1.3889 0.4722 0.0000
1.3889 0.5278 0.0000
1.3333 0.6111 0.0000
1.3889 0.5833 0.0000
1.3889 0.6389 0.0000
1.3333 0.7222 0.0000
1.3889 0.6944 0.0000
1.3889 0.7500 0.0000
1.3333 0.8333 0.0000
1.3889 0.8056 0.0000
1.3889 0.8611 0.0000
1.3333 0.9444 0.0000
1.3889 0.9167 0.0000
1.3889 0.9722 0.0000
1.5556 0.0556 0.0000
1.6111 0.0278 0.0000
1.6111 0.0833 0.0000
1.5556 0.1667 0.0000
1.6111 0.1389 0.0000
1.6111 0.1944 0.0000
1.5556 0.2778 0.0000
1.6111 0.2500 0.0000
1.6111 0.3056 0.0000
1.5556 0.3889 0.0000
1.6111 0.3611 0.0000
1.6111 0.4167 0.0000
1.5556 0.5000 0.0000
1.6111 0.4722 0.0000
1.6111 0.5278 0.0000
1.5556 0.6111 0.0000
1.6111 0.5833 0.0000
1.6111 0.6389 0.0000
1.5556 0.7222 0.0000
1.6111 0.6944 0.0000
1.6111 0.7500 0.0000
1.5556 0.8333 0.0000
1.6111 0.8056 0.0000
1.6111 0.8611 0.0000
1.5556 0.9444 0.0000
1.6111 0.9167 0.0000
1.6111 0.9722 0.0000
1.7778 0.0556 0.0000
1.8333 0.0278 0.0000
1.8333 0.0833 0.0000
1.7778 0.1667 0.0000
1.8333 0.1389 0.0000
1.8333 0.1944 0.0000
1.7778 0.2778 0.0000
1.8333 0.2500 0.0000
1.8333 0.3056 0.0000
1.7778 0.3889 0.0000
1.8333 0.3611 0.0000
1.8333 0.4167 0.0000
1.7778 0.5000 0.0000
1.8333 0.4722 0.0000
1.8333 0.5278 0.0000
1.7778 0.6111 0.0000
1.8333 0.5833 0.0000
1.8333 0.6389 0.0000
1.7778 0.7222 0.0000
1.8333 0.6944 0.0000
1.8333 0.7500 0.0000
1.7778 0.8333 0.0000
1.8333 0.8056 0.0000
1.8333 0.8611 0.0000
1.7778 0.9444 0.0000
1.8333 0.9167 0.0000
1.8333 0.9722 0.0000
0.1111 0.1111 0.0000
0.1667 0.0833 0.0000
0.1111 0.2222 0.0000
0.1667 0.1944 0.0000
0.1111 0.3333 0.0000
0.1667 0.3056 0.0000
0.1111 0.4444 0.0000
0.1667 0.4167 0.0000
0.1111 0.5556 0.0000
0.1667 0.5278 0.0000
0.1111 0.6667 0.0000
0.1667 0.6389 0.0000
0.1111 0.7778 0.0000
0.1667 0.7500 0.0000
0.1111 0.8889 0.0000
0.1667 0.8611 0.0000
0.1111 1.0000 0.0000
0.1667 0.9722 0.0000
0.3333 0.1111 0.0000
0.3889 0.0833 0.0000
0.3333 0.2222 0.0000
0.3889 0.1944 0.0000
0.3333 0.3333 0.0000
0.3889 0.3056 0.0000
0.3333 0.4444 0.0000
0.3889 0.4167 0.0000
0.3333 0.5556 0.0000
0.3889 0.5278 0.0000
0.3333 0.6667 0.0000
0.3889 0.6389 0.0000
0.3333 0.7778 0.0000
0.3889 0.7500 0.0000
0.3333 0.8889 0.0000
0.3889 0.8611 0.0000
0.3333 1.0000 0.0000
0.3889 0.9722 0.0000
0.5556 0.1111 0.0000
[...]
         <PointData>
            <DataArray Name="fValues" NumberOfComponents="3" format="ascii" type="Float64">
-7.64854e-17 -1.52971e-16        00000 
 9.28509e-17 -1.57975e-17        00000 
-7.77725e-18 -4.51264e-19        00000 
 4.10978e-18  1.31513e-16        00000 
-8.66873e-18  2.44328e-17        00000 
-2.46587e-17 -3.28783e-17        00000 
-2.39932e-18 -3.18717e-16        00000 
-4.10607e-17  1.64243e-17        00000 
-4.95323e-17  9.90646e-17        00000 
-1.52971e-16  6.69247e-17        00000 
-2.46386e+00 -5.77723e-01        00000 
-2.26037e+00  9.18905e-02        00000 
-1.54996e+00  7.18659e-01        00000 
-9.76401e-01  1.23859e+00        00000 
-4.57793e-01  1.56971e+00        00000 
 6.51623e-02  1.98724e+00        00000 
 9.01090e-01  2.06623e+00        00000 
 1.87747e+00  1.79980e+00        00000 
 2.62764e+00  1.16745e+00        00000 
 2.83718e+00  6.00327e-01        00000 
-5.71685e+00  5.78182e-01        00000 
-5.15856e+00  1.30127e+00        00000 
-4.02257e+00  1.79256e+00        00000 
-2.64889e+00  2.10173e+00        00000 
-1.03792e+00  2.25706e+00        00000 
 2.80227e-01  2.36100e+00        00000 
 1.83331e+00  2.27904e+00        00000 
 3.76819e+00  2.01162e+00        00000 
 5.25239e+00  1.66873e+00        00000 
 5.93997e+00  9.66565e-01        00000 
-1.15282e+01 -1.23629e+00        00000 
-9.23510e+00 -2.14078e-01        00000 
-6.88350e+00  4.70261e-01        00000 
-4.40800e+00  8.10778e-01        00000 
-1.89476e+00  9.63937e-01        00000 
 4.11191e-01  1.01520e+00        00000 
 2.65563e+00  9.84685e-01        00000 
 5.05828e+00  6.28914e-01        00000 
 7.56772e+00  1.85738e-01        00000 
 9.66449e+00 -2.59775e-01        00000 
-1.79928e+01 -6.52021e+00        00000 
-1.41793e+01 -5.00199e+00        00000 
-1.03249e+01 -3.95854e+00        00000 
-6.37843e+00 -3.36290e+00        00000 
-2.88039e+00 -3.02298e+00        00000 
 3.00386e-01 -3.13988e+00        00000 
 3.55331e+00 -3.49342e+00        00000 
 6.68682e+00 -4.27267e+00        00000 
 1.00186e+01 -5.15028e+00        00000 
 1.32922e+01 -5.87657e+00        00000 
-2.39603e+01 -1.45847e+01        00000 
-1.90800e+01 -1.32363e+01        00000 
-1.40445e+01 -1.20383e+01        00000 
-9.19424e+00 -1.11721e+01        00000 
-4.43192e+00 -1.05203e+01        00000 
 1.62696e-01 -1.02832e+01        00000 
 4.54130e+00 -1.03271e+01        00000 
 9.00753e+00 -1.07805e+01        00000 
 1.33590e+01 -1.17361e+01        00000 
 1.72673e+01 -1.27634e+01        00000 
-3.00443e+01 -2.41867e+01        00000 
-2.37781e+01 -2.34035e+01        00000 
-1.72944e+01 -2.27184e+01        00000 
-1.14264e+01 -2.23003e+01        00000 
-5.78530e+00 -2.19859e+01        00000 
-7.55582e-02 -2.16384e+01        00000 
 5.61211e+00 -2.13845e+01        00000 
 1.13827e+01 -2.14317e+01        00000 
 1.76738e+01 -2.18196e+01        00000 
 2.39526e+01 -2.27125e+01        00000 
-3.61219e+01 -3.99517e+01        00000 
-2.75966e+01 -3.90579e+01        00000 
-1.99151e+01 -3.86268e+01        00000 
-1.30816e+01 -3.80946e+01        00000 
-6.68583e+00 -3.76807e+01        00000 
-3.57645e-01 -3.73987e+01        00000 
 6.40244e+00 -3.70843e+01        00000 
 1.36952e+01 -3.70954e+01        00000 
 2.16236e+01 -3.75231e+01        00000 
 3.03241e+01 -3.84612e+01        00000 
-4.15874e+01 -5.99006e+01        00000 
-3.06854e+01 -5.93090e+01        00000 
-2.15091e+01 -5.90392e+01        00000 
-1.35884e+01 -5.87626e+01        00000 
-6.65834e+00 -5.86111e+01        00000 
-1.76548e-01 -5.85636e+01        00000 
 6.92373e+00 -5.85401e+01        00000 
 1.51090e+01 -5.82653e+01        00000 
 2.46529e+01 -5.81213e+01        00000 
 3.62249e+01 -5.87109e+01        00000 
-4.76238e+01 -9.10620e+01        00000 
-3.21304e+01 -8.83414e+01        00000 
-2.24039e+01 -8.56368e+01        00000 
-1.41212e+01 -8.38414e+01        00000 
-6.81850e+00 -8.27656e+01        00000 
-4.34126e-02 -8.25953e+01        00000 
 7.31995e+00 -8.34255e+01        00000 
 1.56451e+01 -8.54850e+01        00000 
 2.64050e+01 -8.81983e+01        00000 
 4.06024e+01 -9.02992e+01        00000 
-1.14866e+00 -5.97716e-01        00000 
-7.54025e-01  2.18959e-02        00000 
-4.22125e-01  4.56622e-01        00000 
-2.54091e-01  8.46001e-01        00000 
-4.99888e-02  1.12177e+00        00000 
 2.42303e-01  1.41500e+00        00000 
 6.27770e-01  1.48979e+00        00000 
 1.00159e+00  1.21023e+00        00000 
 1.34948e+00  5.50772e-01        00000 
-3.86499e+00  3.55818e-01        00000 
-3.24963e+00  1.13374e+00        00000 
-2.19852e+00  1.73088e+00        00000 
-1.13474e+00  2.23348e+00        00000 
-2.68358e-01  2.38589e+00        00000 
 6.28439e-01  2.45009e+00        00000 
 2.11539e+00  2.22204e+00        00000 
 3.48301e+00  1.63427e+00        00000 
 4.19719e+00  9.38901e-01        00000 
-7.82324e+00  6.12995e-01        00000 
-6.33222e+00  1.24901e+00        00000 
-4.48094e+00  1.68917e+00        00000 
-2.36405e+00  1.82239e+00        00000 
-7.04647e-01  1.81920e+00        00000 
 1.23989e+00  1.73867e+00        00000 
 3.24121e+00  1.45469e+00        00000 
 5.44046e+00  1.40533e+00        00000 
 7.29888e+00  9.50715e-01        00000 
-1.32235e+01 -3.24470e+00        00000 
-9.93805e+00 -1.86315e+00        00000 
-6.88174e+00 -1.01065e+00        00000 
-3.54584e+00 -6.62313e-01        00000 
-9.70716e-01 -5.73340e-01        00000 
 1.71266e+00 -6.25124e-01        00000 
 4.49137e+00 -1.09116e+00        00000 
 7.22822e+00 -1.63861e+00        00000 
 1.01067e+01 -2.35906e+00        00000 
-1.89780e+01 -9.23995e+00        00000 
-1.42503e+01 -8.18611e+00        00000 
-9.88908e+00 -7.43018e+00        00000 
-5.64824e+00 -6.84060e+00        00000 
-1.67442e+00 -6.42230e+00        00000 
 2.31372e+00 -6.46115e+00        00000 
 6.01338e+00 -6.96618e+00        00000 
 9.68098e+00 -7.84705e+00        00000 
 1.33035e+01 -8.89337e+00        00000 
-2.43055e+01 -1.83424e+01        00000 
-1.85868e+01 -1.72862e+01        00000 
-1.30575e+01 -1.65845e+01        00000 
-7.85168e+00 -1.59642e+01        00000 
-2.50119e+00 -1.53456e+01        00000 
 2.60325e+00 -1.52043e+01        00000 
 7.67323e+00 -1.53093e+01        00000 
 1.29473e+01 -1.59134e+01        00000 
 1.81587e+01 -1.69422e+01        00000 
-2.93802e+01 -3.12274e+01        00000 
-2.23334e+01 -3.04805e+01        00000 
-1.55109e+01 -2.98152e+01        00000 
-9.30635e+00 -2.93135e+01        00000 
-3.26871e+00 -2.88725e+01        00000 
 2.81021e+00 -2.84436e+01        00000 
 9.27672e+00 -2.83080e+01        00000 
 1.60325e+01 -2.85975e+01        00000 
 2.35215e+01 -2.92515e+01        00000 
-3.39588e+01 -4.88434e+01        00000 
-2.48933e+01 -4.81792e+01        00000 
-1.70701e+01 -4.76619e+01        00000 
-1.00476e+01 -4.73762e+01        00000 
-3.46280e+00 -4.72092e+01        00000 
 3.19478e+00 -4.69882e+01        00000 
 1.07910e+01 -4.68478e+01        00000 
 1.89584e+01 -4.69003e+01        00000 
 2.82737e+01 -4.71940e+01        00000 
-3.75710e+01 -7.23218e+01        00000 
-2.62318e+01 -7.19567e+01        00000 
-1.76153e+01 -7.12595e+01        00000 
-1.00978e+01 -7.05952e+01        00000 
-3.40477e+00 -7.01374e+01        00000 
 3.29894e+00 -7.03286e+01        00000 
 1.07969e+01 -7.07988e+01        00000 
 2.00261e+01 -7.13740e+01        00000 
 3.17653e+01 -7.19893e+01        00000 
-6.58022e-17 -2.97412e-17        00000 
-5.34390e-01 -4.13112e-01        00000 
-4.38243e-01 -2.27802e-01        00000 
 4.81337e-17  1.56877e-17        00000 
-3.16050e-01 -7.85863e-02        00000 
-3.10191e-01  7.84845e-02        00000 
-1.56125e-17        00000        00000 
-2.45035e-01  2.00132e-01        00000 
-8.09539e-02  2.58341e-01        00000 
 1.31542e-17  7.39904e-17        00000 
-9.86201e-02  3.82835e-01        00000 
-3.87465e-02  5.11830e-01        00000 
 1.17094e-17  1.24900e-16        00000 
 1.67201e-02  6.36610e-01        00000 
 3.77972e-02  7.04582e-01        00000 
 1.99155e-17  8.43445e-17        00000 
 1.02859e-01  7.93022e-01        00000 
 1.89449e-01  8.50415e-01        00000 
 3.12250e-17 -6.24500e-17        00000 
 2.76724e-01  9.03655e-01        00000 
 3.55699e-01  8.41967e-01        00000 
-3.12250e-17 -3.12250e-17        00000 
 4.35876e-01  7.49489e-01        00000 
 5.02249e-01  6.37531e-01        00000 
-1.70368e-16 -7.71237e-17        00000 
 5.74891e-01  4.45388e-01        00000 
 6.52993e-01  1.96371e-01        00000 
-2.46633e+00 -3.32657e-01        00000 
-3.06721e+00 -2.66971e-01        00000 
-3.08939e+00  1.96811e-01        00000 
-1.91629e+00  3.72701e-01        00000 
-2.74844e+00  5.79902e-01        00000 
-2.46087e+00  9.48212e-01        00000 
-1.22068e+00  9.99628e-01        00000 
-1.91335e+00  1.30350e+00        00000 
-1.47349e+00  1.54176e+00        00000 
-6.03894e-01  1.43483e+00        00000 
-1.07803e+00  1.70453e+00        00000 
-6.95872e-01  1.87499e+00        00000 
-1.97384e-01  1.78618e+00        00000 
-4.40636e-01  2.04083e+00        00000 
-1.19582e-02  2.17071e+00        00000 
 4.10669e-01  2.06749e+00        00000 
 3.32940e-01  2.21992e+00        00000 
 8.25811e-01  2.25558e+00        00000 
 1.40050e+00  1.96225e+00        00000 
 1.44019e+00  2.18227e+00        00000 
 2.07699e+00  2.08083e+00        00000 
 2.24198e+00  1.50978e+00        00000 
 2.66325e+00  1.80604e+00        00000 
 3.10085e+00  1.38337e+00        00000 
 2.77180e+00  9.01669e-01        00000 
 3.43413e+00  1.06712e+00        00000 
 3.55770e+00  6.87159e-01        00000 
-5.54954e+00  9.61766e-01        00000 
-6.76057e+00  6.03006e-01        00000 
-6.34482e+00  1.07004e+00        00000 
-4.62975e+00  1.51522e+00        00000 
-5.81897e+00  1.38974e+00        00000 
-5.18122e+00  1.65996e+00        00000 
-3.34978e+00  1.98988e+00        00000 
-4.33545e+00  1.93855e+00        00000 
-3.42311e+00  2.06454e+00        00000 
-1.67552e+00  2.18731e+00        00000 
-2.50658e+00  2.02994e+00        00000 
-1.67122e+00  2.03522e+00        00000 
-4.25488e-01  2.34917e+00        00000 
-1.07121e+00  2.08510e+00        00000 
-1.45406e-01  2.12941e+00        00000 
 8.77189e-01  2.33367e+00        00000 
 6.19760e-01  2.08187e+00        00000 
 1.51397e+00  1.98233e+00        00000 
 2.73533e+00  2.13937e+00        00000 
 2.50904e+00  1.84448e+00        00000 
 3.51818e+00  1.79146e+00        00000 
 4.56908e+00  1.90902e+00        00000 
 4.58210e+00  1.81140e+00        00000 
 5.49812e+00  1.68310e+00        00000 
 5.66653e+00  1.40579e+00        00000 
 6.26842e+00  1.41893e+00        00000 
 6.77885e+00  1.01245e+00        00000 
-1.03734e+01 -6.99826e-01        00000 
-1.24341e+01 -2.27740e+00        00000 
-1.10342e+01 -1.62093e+00        00000 
-8.06506e+00  1.76345e-01        00000 
-9.68713e+00 -9.74977e-01        00000 
-8.26689e+00 -4.89920e-01        00000 
-5.70599e+00  6.66897e-01        00000 
-6.95000e+00 -1.37537e-01        00000 
-5.52666e+00  1.10504e-01        00000 
-2.97404e+00  9.31840e-01        00000 
-3.98824e+00  2.48236e-01        00000 
-2.65089e+00  3.19445e-01        00000 
-8.45791e-01  1.01438e+00        00000 
-1.50763e+00  3.92981e-01        00000 
-2.58118e-01  3.85792e-01        00000 
 1.37112e+00  1.02928e+00        00000 
 9.74695e-01  3.29279e-01        00000 
 2.14922e+00  2.80922e-01        00000 
 3.73854e+00  8.05271e-01        00000 
 3.51361e+00  1.55680e-01        00000 
 4.75492e+00 -1.05420e-01        00000 
 6.26329e+00  4.46351e-01        00000 
 6.14198e+00 -2.98828e-01        00000 
 7.40631e+00 -5.86414e-01        00000 
 8.61364e+00  2.71905e-02        00000 
 8.81211e+00 -8.33316e-01        00000 
 1.00932e+01 -1.26267e+00        00000 
-1.62558e+01 -5.82851e+00        00000 
-1.85718e+01 -7.78074e+00        00000 
-1.66705e+01 -7.07670e+00        00000 
-1.21740e+01 -4.39787e+00        00000 
-1.43373e+01 -6.39546e+00        00000 
-1.22132e+01 -5.91574e+00        00000 
-8.25046e+00 -3.61627e+00        00000 
-1.01002e+01 -5.60393e+00        00000 
-8.00533e+00 -5.30825e+00        00000 
-4.43825e+00 -3.12026e+00        00000 
-5.97647e+00 -5.06307e+00        00000 
-4.11294e+00 -4.82519e+00        00000 
-1.31477e+00 -3.03706e+00        00000 
-2.34668e+00 -4.74175e+00        00000 
-5.59752e-01 -4.70298e+00        00000 
 2.01346e+00 -3.27573e+00        00000 
 1.29184e+00 -4.84842e+00        00000 
 3.14505e+00 -4.98287e+00        00000 
 5.17892e+00 -3.84016e+00        00000 
 4.78459e+00 -5.29313e+00        00000 
 6.47151e+00 -5.59984e+00        00000 
 8.31994e+00 -4.68518e+00        00000 
 8.14494e+00 -6.10750e+00        00000 
 9.88494e+00 -6.58355e+00        00000 
 1.17297e+01 -5.50089e+00        00000 
 1.17061e+01 -6.99960e+00        00000 
 1.33184e+01 -7.38695e+00        00000 
-2.15431e+01 -1.38668e+01        00000 
-2.41869e+01 -1.64548e+01        00000 
-2.16135e+01 -1.57568e+01        00000 
-1.64905e+01 -1.26223e+01        00000 
-1.89190e+01 -1.51461e+01        00000 
-1.62808e+01 -1.46033e+01        00000 
-1.14893e+01 -1.15139e+01        00000 
-1.35893e+01 -1.41686e+01        00000 
-1.10330e+01 -1.38061e+01        00000 
-6.76565e+00 -1.07438e+01        00000 
-8.57831e+00 -1.34731e+01        00000 
-6.07712e+00 -1.31929e+01        00000 
-2.13253e+00 -1.03662e+01        00000 
-3.52487e+00 -1.29164e+01        00000 
-1.10014e+00 -1.27258e+01        00000 
 2.40860e+00 -1.02151e+01        00000 
 1.32633e+00 -1.26891e+01        00000 
 3.70048e+00 -1.26712e+01        00000 
 6.81145e+00 -1.04841e+01        00000 
 6.00597e+00 -1.27709e+01        00000 
 8.44119e+00 -1.29625e+01        00000 
 1.13075e+01 -1.11885e+01        00000 
 1.08710e+01 -1.33227e+01        00000 
 1.33406e+01 -1.36749e+01        00000 
 1.54052e+01 -1.21882e+01        00000 
 1.55772e+01 -1.41252e+01        00000 
 1.78457e+01 -1.48386e+01        00000 
-2.69297e+01 -2.37636e+01        00000 
-2.98611e+01 -2.75839e+01        00000 
-2.64213e+01 -2.71180e+01        00000 
-2.05022e+01 -2.30041e+01        00000 
-2.31452e+01 -2.67316e+01        00000 
-1.97024e+01 -2.63334e+01        00000 
-1.43758e+01 -2.24958e+01        00000 
-1.64596e+01 -2.60571e+01        00000 
-1.33901e+01 -2.57549e+01        00000 
-8.76378e+00 -2.22349e+01        00000 
-1.04066e+01 -2.55770e+01        00000 
-7.55381e+00 -2.54555e+01        00000 
-2.98939e+00 -2.18194e+01        00000 
-4.51557e+00 -2.51821e+01        00000 
-1.69180e+00 -2.50537e+01        00000 
 2.72218e+00 -2.14919e+01        00000 
 1.28227e+00 -2.47838e+01        00000 
 4.31683e+00 -2.46363e+01        00000 
 8.37758e+00 -2.14077e+01        00000 
 7.32885e+00 -2.45156e+01        00000 
 1.03257e+01 -2.46390e+01        00000 
 1.44429e+01 -2.15652e+01        00000 
 1.35776e+01 -2.47418e+01        00000 
 1.69868e+01 -2.49217e+01        00000 
 2.08672e+01 -2.22855e+01        00000 
 2.05061e+01 -2.53235e+01        00000 
 2.39384e+01 -2.58825e+01        00000 
-3.16785e+01 -3.94124e+01        00000 
-3.50962e+01 -4.42655e+01        00000 
-3.06902e+01 -4.37918e+01        00000 
-2.35729e+01 -3.88059e+01        00000 
-2.63339e+01 -4.33717e+01        00000 
-2.22874e+01 -4.31259e+01        00000 
-1.63537e+01 -3.83026e+01        00000 
-1.85926e+01 -4.29208e+01        00000 
-1.50053e+01 -4.26430e+01        00000 
-9.79410e+00 -3.78775e+01        00000 
-1.16156e+01 -4.24534e+01        00000 
-8.37367e+00 -4.22772e+01        00000 
-3.50680e+00 -3.75503e+01        00000 
-5.08835e+00 -4.21819e+01        00000 
-1.93626e+00 -4.20770e+01        00000 
 2.94543e+00 -3.72350e+01        00000 
 1.40814e+00 -4.18842e+01        00000 
 4.89025e+00 -4.17735e+01        00000 
 1.01072e+01 -3.70026e+01        00000 
 8.59717e+00 -4.16514e+01        00000 
 1.23837e+01 -4.16846e+01        00000 
 1.74978e+01 -3.73260e+01        00000 
 1.62798e+01 -4.18071e+01        00000 
 2.03670e+01 -4.19501e+01        00000 
 2.58677e+01 -3.79274e+01        00000 
 2.48476e+01 -4.22987e+01        00000 
 2.94335e+01 -4.27492e+01        00000 
-3.59982e+01 -5.94440e+01        00000 
-3.99580e+01 -6.56841e+01        00000 
-3.38287e+01 -6.55737e+01        00000 
-2.59248e+01 -5.91960e+01        00000 
-2.85273e+01 -6.53908e+01        00000 
-2.38124e+01 -6.53046e+01        00000 
-1.75100e+01 -5.89117e+01        00000 
-1.95690e+01 -6.50698e+01        00000 
-1.55438e+01 -6.49050e+01        00000 
-1.00404e+01 -5.86880e+01        00000 
-1.18153e+01 -6.47132e+01        00000 
-8.34956e+00 -6.44864e+01        00000 
-3.41988e+00 -5.85592e+01        00000 
-5.07370e+00 -6.43875e+01        00000 
-1.72998e+00 -6.43864e+01        00000 
 3.28768e+00 -5.85689e+01        00000 
 1.51603e+00 -6.44359e+01        00000 
 5.13784e+00 -6.45330e+01        00000 
 1.10006e+01 -5.84049e+01        00000 
 8.84262e+00 -6.46198e+01        00000 
 1.30045e+01 -6.45960e+01        00000 
 1.97383e+01 -5.81094e+01        00000 
 1.74266e+01 -6.46190e+01        00000 
 2.25675e+01 -6.46145e+01        00000 
 3.02378e+01 -5.83336e+01        00000 
 2.80231e+01 -6.48293e+01        00000 
 3.43138e+01 -6.51435e+01        00000 
-1.01187e+00 -2.51697e-01        00000 
-1.72853e+00 -3.89906e-01        00000 
-6.06340e-01  2.41773e-01        00000 
-1.14828e+00  3.10709e-01        00000 
-3.28660e-01  6.98333e-01        00000 
-7.04045e-01  8.31523e-01        00000 
-1.48410e-01  9.89778e-01        00000 
-3.62149e-01  1.21222e+00        00000 
 7.44305e-02  1.24605e+00        00000 
-1.33156e-03  1.55896e+00        00000 
 4.70171e-01  1.51697e+00        00000 
 4.92970e-01  1.76093e+00        00000 
 8.44669e-01  1.39294e+00        00000 
 1.15376e+00  1.71033e+00        00000 
 1.17717e+00  8.98260e-01        00000 
 1.78526e+00  1.25637e+00        00000 
 1.40645e+00  1.92202e-01        00000 
 2.14402e+00  5.36065e-01        00000 
-3.70518e+00  7.43614e-01        00000 
-4.53938e+00  8.46015e-01        00000 
-2.82014e+00  1.39867e+00        00000 
-3.64897e+00  1.40433e+00        00000 
-1.75135e+00  2.04882e+00        00000 
-2.47979e+00  1.96676e+00        00000 
-7.26182e-01  2.36159e+00        00000 
-1.08234e+00  2.23147e+00        00000 
 1.12271e-01  2.42903e+00        00000 
-8.29301e-02  2.37587e+00        00000 
 1.33009e+00  2.38513e+00        00000 
 1.13032e+00  2.29337e+00        00000 
 2.90385e+00  2.01088e+00        00000 
 2.89004e+00  2.10722e+00        00000 
 3.91380e+00  1.24996e+00        00000 
 4.34356e+00  1.62309e+00        00000 
 4.23754e+00  5.81057e-01        00000 
 5.01609e+00  9.75017e-01        00000 
-7.13849e+00  1.04769e+00        00000 
-8.65365e+00  2.51425e-01        00000 
-5.52818e+00  1.48926e+00        00000 
-6.74510e+00  8.94637e-01        00000 
-3.48604e+00  1.86323e+00        00000 
-4.50250e+00  1.24753e+00        00000 
-1.61224e+00  1.85572e+00        00000 
-2.16682e+00  1.37417e+00        00000 
 2.97810e-01  1.83299e+00        00000 
-1.49583e-01  1.40943e+00        00000 
 2.24847e+00  1.65237e+00        00000 
 1.90187e+00  1.35573e+00        00000 
 4.37435e+00  1.48370e+00        00000 
 4.04261e+00  1.19456e+00        00000 
 6.48977e+00  1.26626e+00        00000 
 6.42880e+00  8.82266e-01        00000 
 7.86203e+00  6.79719e-01        00000 
 8.33383e+00  3.82455e-01        00000 
-1.16351e+01 -2.45139e+00        00000 
-1.37823e+01 -4.14544e+00        00000 
-8.43508e+00 -1.37206e+00        00000 
-1.02901e+01 -2.82271e+00        00000 
-5.21734e+00 -7.57148e-01        00000 
-6.64136e+00 -2.09819e+00        00000 
-2.29907e+00 -5.93800e-01        00000 
-3.23122e+00 -1.80589e+00        00000 
 4.56458e-01 -5.61629e-01        00000 
-3.33594e-01 -1.74816e+00        00000 
 3.05417e+00 -8.33944e-01        00000 
 2.54239e+00 -2.00815e+00        00000 
 5.84169e+00 -1.38198e+00        00000 
 5.48566e+00 -2.52084e+00        00000 
 8.72549e+00 -1.96292e+00        00000 
 8.54185e+00 -3.31936e+00        00000 
 1.17709e+01 -2.74621e+00        00000 
 1.17333e+01 -4.15165e+00        00000 
-1.67465e+01 -8.69723e+00        00000 