<?xml version="1.0" encoding="utf-8"?>
<VTKFile byte_order="LittleEndian" type="UnstructuredGrid" version="0.1">
   <UnstructuredGrid>
      <Piece NumberOfCells="1296" NumberOfPoints="685">
         <Points>
            <DataArray Name="Points" NumberOfComponents="3" format="ascii" type="Float32">
0.0000 0.0000 0.0000
0.0000 0.1111 0.0000
0.0000 0.2222 0.0000
0.0000 0.3333 0.0000
0.0000 0.4444 0.0000
0.0000 0.5556 0.0000
0.0000 0.6667 0.0000
0.0000 0.7778 0.0000
0.0000 0.8889 0.0000
0.0000 1.0000 0.0000
0.2222 0.0000 0.0000
0.2222 0.1111 0.0000
0.2222 0.2222 0.0000
0.2222 0.3333 0.0000
0.2222 0.4444 0.0000
0.2222 0.5556 0.0000
0.2222 0.6667 0.0000
0.2222 0.7778 0.0000
0.2222 0.8889 0.0000
0.2222 1.0000 0.0000
0.4444 0.0000 0.0000
0.4444 0.1111 0.0000
0.4444 0.2222 0.0000
0.4444 0.3333 0.0000
0.4444 0.4444 0.0000
0.4444 0.5556 0.0000
0.4444 0.6667 0.0000
0.4444 0.7778 0.0000
0.4444 0.8889 0.0000
0.4444 1.0000 0.0000
0.6667 0.0000 0.0000
0.6667 0.1111 0.0000
0.6667 0.2222 0.0000
0.6667 0.3333 0.0000
0.6667 0.4444 0.0000
0.6667 0.5556 0.0000
0.6667 0.6667 0.0000
0.6667 0.7778 0.0000
0.6667 0.8889 0.0000
0.6667 1.0000 0.0000
0.8889 0.0000 0.0000
0.8889 0.1111 0.0000
0.8889 0.2222 0.0000
0.8889 0.3333 0.0000
0.8889 0.4444 0.0000
0.8889 0.5556 0.0000
0.8889 0.6667 0.0000
0.8889 0.7778 0.0000
0.8889 0.8889 0.0000
0.8889 1.0000 0.0000
1.1111 0.0000 0.0000
1.1111 0.1111 0.0000
1.1111 0.2222 0.0000
1.1111 0.3333 0.0000
1.1111 0.4444 0.0000
1.1111 0.5556 0.0000
1.1111 0.6667 0.0000
1.1111 0.7778 0.0000
1.1111 0.8889 0.0000
1.1111 1.0000 0.0000
1.3333 0.0000 0.0000
1.3333 0.1111 0.0000
1.3333 0.2222 0.0000
1.3333 0.3333 0.0000
1.3333 0.4444 0.0000
1.3333 0.5556 0.0000
1.3333 0.6667 0.0000
1.3333 0.7778 0.0000
1.3333 0.8889 0.0000
1.3333 1.0000 0.0000
1.5556 0.0000 0.0000
1.5556 0.1111 0.0000
1.5556 0.2222 0.0000
1.5556 0.3333 0.0000
1.5556 0.4444 0.0000
1.5556 0.5556 0.0000
1.5556 0.6667 0.0000
1.5556 0.7778 0.0000
1.5556 0.8889 0.0000
1.5556 1.0000 0.0000
1.7778 0.0000 0.0000
1.7778 0.1111 0.0000
1.7778 0.2222 0.0000
1.7778 0.3333 0.0000
1.7778 0.4444 0.0000
1.7778 0.5556 0.0000
1.7778 0.6667 0.0000
1.7778 0.7778 0.0000
1.7778 0.8889 0.0000
1.7778 1.0000 0.0000
2.0000 0.0000 0.0000
2.0000 0.1111 0.0000
2.0000 0.2222 0.0000
2.0000 0.3333 0.0000
2.0000 0.4444 0.0000
2.0000 0.5556 0.0000
2.0000 0.6667 0.0000
2.0000 0.7778 0.0000
2.0000 0.8889 0.0000
2.0000 1.0000 0.0000
0.1111 0.0556 0.0000
0.1111 0.1667 0.0000
0.1111 0.2778 0.0000
0.1111 0.3889 0.0000
0.1111 0.5000 0.0000
0.1111 0.6111 0.0000
0.1111 0.7222 0.0000
0.1111 0.8333 0.0000
0.1111 0.9444 0.0000
0.3333 0.0556 0.0000
0.3333 0.1667 0.0000
0.3333 0.2778 0.0000
0.3333 0.3889 0.0000
0.3333 0.5000 0.0000
0.3333 0.6111 0.0000
0.3333 0.7222 0.0000
0.3333 0.8333 0.0000
0.3333 0.9444 0.0000
0.5556 0.0556 0.0000
0.5556 0.1667 0.0000
0.5556 0.2778 0.0000
0.5556 0.3889 0.0000
0.5556 0.5000 0.0000
0.5556 0.6111 0.0000
0.5556 0.7222 0.0000
0.5556 0.8333 0.0000
0.5556 0.9444 0.0000
0.7778 0.0556 0.0000
0.7778 0.1667 0.0000
0.7778 0.2778 0.0000
0.7778 0.3889 0.0000
0.7778 0.5000 0.0000
0.7778 0.6111 0.0000
0.7778 0.7222 0.0000
0.7778 0.8333 0.0000
0.7778 0.9444 0.0000
1.0000 0.0556 0.0000
1.0000 0.1667 0.0000
1.0000 0.2778 0.0000
1.0000 0.3889 0.0000
1.0000 0.5000 0.0000
1.0000 0.6111 0.0000
1.0000 0.7222 0.0000
1.0000 0.8333 0.0000
1.0000 0.9444 0.0000
1.2222 0.0556 0.0000
1.2222 0.1667 0.0000
1.2222 0.2778 0.0000
1.2222 0.3889 0.0000
1.2222 0.5000 0.0000
1.2222 0.6111 0.0000
1.2222 0.7222 0.0000
1.2222 0.8333 0.0000
1.2222 0.9444 0.0000
1.4444 0.0556 0.0000
1.4444 0.1667 0.0000
1.4444 0.2778 0.0000
1.4444 0.3889 0.0000
1.4444 0.5000 0.0000
1.4444 0.6111 0.0000
1.4444 0.7222 0.0000
1.4444 0.8333 0.0000
1.4444 0.9444 0.0000
1.6667 0.0556 0.0000
1.6667 0.1667 0.0000
1.6667 0.2778 0.0000
1.6667 0.3889 0.0000
1.6667 0.5000 0.0000
1.6667 0.6111 0.0000
1.6667 0.7222 0.0000
1.6667 0.8333 0.0000
1.6667 0.9444 0.0000
1.8889 0.0556 0.0000
1.8889 0.1667 0.0000
1.8889 0.2778 0.0000
1.8889 0.3889 0.0000
1.8889 0.5000 0.0000
1.8889 0.6111 0.0000
1.8889 0.7222 0.0000
1.8889 0.8333 0.0000
1.8889 0.9444 0.0000
0.0000 0.0556 0.0000
0.0556 0.0278 0.0000
0.0556 0.0833 0.0000
0.0000 0.1667 0.0000
0.0556 0.1389 0.0000
0.0556 0.1944 0.0000
0.0000 0.2778 0.0000
0.0556 0.2500 0.0000
0.0556 0.3056 0.0000
0.0000 0.3889 0.0000
0.0556 0.3611 0.0000
0.0556 0.4167 0.0000
0.0000 0.5000 0.0000
0.0556 0.4722 0.0000
0.0556 0.5278 0.0000
0.0000 0.6111 0.0000
0.0556 0.5833 0.0000
0.0556 0.6389 0.0000
0.0000 0.7222 0.0000
0.0556 0.6944 0.0000
0.0556 0.7500 0.0000
0.0000 0.8333 0.0000
0.0556 0.8056 0.0000
0.0556 0.8611 0.0000
0.0000 0.9444 0.0000
0.0556 0.9167 0.0000
0.0556 0.9722 0.0000
0.2222 0.0556 0.0000
0.2778 0.0278 0.0000
0.2778 0.0833 0.0000
0.2222 0.1667 0.0000
0.2778 0.1389 0.0000
0.2778 0.1944 0.0000
0.2222 0.2778 0.0000
0.2778 0.2500 0.0000
0.2778 0.3056 0.0000
0.2222 0.3889 0.0000
0.2778 0.3611 0.0000
0.2778 0.4167 0.0000
0.2222 0.5000 0.0000
0.2778 0.4722 0.0000
0.2778 0.5278 0.0000
0.2222 0.6111 0.0000
0.2778 0.5833 0.0000
0.2778 0.6389 0.0000
0.2222 0.7222 0.0000
0.2778 0.6944 0.0000
0.2778 0.7500 0.0000
0.2222 0.8333 0.0000
0.2778 0.8056 0.0000
0.2778 0.8611 0.0000
0.2222 0.9444 0.0000
0.2778 0.9167 0.0000
0.2778 0.9722 0.0000
0.4444 0.0556 0.0000
0.5000 0.0278 0.0000
0.5000 0.0833 0.0000
0.4444 0.1667 0.0000
0.5000 0.1389 0.0000
0.5000 0.1944 0.0000
0.4444 0.2778 0.0000
0.5000 0.2500 0.0000
0.5000 0.3056 0.0000
0.4444 0.3889 0.0000
0.5000 0.3611 0.0000
0.5000 0.4167 0.0000
0.4444 0.5000 0.0000
0.5000 0.4722 0.0000
0.5000 0.5278 0.0000
0.4444 0.6111 0.0000
0.5000 0.5833 0.0000
0.5000 0.6389 0.0000
0.4444 0.7222 0.0000
0.5000 0.6944 0.0000
0.5000 0.7500 0.0000
0.4444 0.8333 0.0000
0.5000 0.8056 0.0000
0.5000 0.8611 0.0000
0.4444 0.9444 0.0000
0.5000 0.9167 0.0000
0.5000 0.9722 0.0000
0.6667 0.0556 0.0000
0.7222 0.0278 0.0000
0.7222 0.0833 0.0000
0.6667 0.1667 0.0000
0.7222 0.1389 0.0000
0.7222 0.1944 0.0000
0.6667 0.2778 0.0000
0.7222 0.2500 0.0000
0.7222 0.3056 0.0000
0.6667 0.3889 0.0000
0.7222 0.3611 0.0000
0.7222 0.4167 0.0000
0.6667 0.5000 0.0000
0.7222 0.4722 0.0000
0.7222 0.5278 0.0000
0.6667 0.6111 0.0000
0.7222 0.5833 0.0000
0.7222 0.6389 0.0000
0.6667 0.7222 0.0000
0.7222 0.6944 0.0000
0.7222 0.7500 0.0000
0.6667 0.8333 0.0000
0.7222 0.8056 0.0000
0.7222 0.8611 0.0000
0.6667 0.9444 0.0000
0.7222 0.9167 0.0000
0.7222 0.9722 0.0000
0.8889 0.0556 0.0000
0.9444 0.0278 0.0000
0.9444 0.0833 0.0000
0.8889 0.1667 0.0000
0.9444 0.1389 0.0000
0.9444 0.1944 0.0000
0.8889 0.2778 0.0000
0.9444 0.2500 0.0000
0.9444 0.3056 0.0000
0.8889 0.3889 0.0000
0.9444 0.3611 0.0000
0.9444 0.4167 0.0000
0.8889 0.5000 0.0000
0.9444 0.4722 0.0000
0.9444 0.5278 0.0000
0.8889 0.6111 0.0000
0.9444 0.5833 0.0000
0.9444 0.6389 0.0000
0.8889 0.7222 0.0000
0.9444 0.6944 0.0000
0.9444 0.7500 0.0000
0.8889 0.8333 0.0000
0.9444 0.8056 0.0000
0.9444 0.8611 0.0000
0.8889 0.9444 0.0000
0.9444 0.9167 0.0000
0.9444 0.9722 0.0000
1.1111 0.0556 0.0000
1.1667 0.0278 0.0000
1.1667 0.0833 0.0000
1.1111 0.1667 0.0000
1.1667 0.1389 0.0000
1.1667 0.1944 0.0000
1.1111 0.2778 0.0000
1.1667 0.2500 0.0000
1.1667 0.3056 0.0000
1.1111 0.3889 0.0000
1.1667 0.3611 0.0000
1.1667 0.4167 0.0000
1.1111 0.5000 0.0000
1.1667 0.4722 0.0000
1.1667 0.5278 0.0000
1.1111 0.6111 0.0000
1.1667 0.5833 0.0000
1.1667 0.6389 0.0000
1.1111 0.7222 0.0000
1.1667 0.6944 0.0000
1.1667 0.7500 0.0000
1.1111 0.8333 0.0000
1.1667 0.8056 0.0000
1.1667 0.8611 0.0000
1.1111 0.9444 0.0000
1.1667 0.9167 0.0000
1.1667 0.9722 0.0000
1.3333 0.0556 0.0000
1.3889 0.0278 0.0000
1.3889 0.0833 0.0000
1.3333 0.1667 0.0000
1.3889 0.1389 0.0000
1.3889 0.1944 0.0000
1.3333 0.2778 0.0000
1.3889 0.2500 0.0000
1.3889 0.3056 0.0000
1.3333 0.3889 0.0000
1.3889 0.3611 0.0000
1.3889 0.4167 0.0000
1.3333 0.5000 0.0000
1.3889 0.4722 0.0000
1.3889 0.5278 0.0000
1.3333 0.6111 0.0000
1.3889 0.5833 0.0000
1.3889 0.6389 0.0000
1.3333 0.7222 0.0000
1.3889 0.6944 0.0000
1.3889 0.7500 0.0000
1.3333 0.8333 0.0000
1.3889 0.8056 0.0000
1.3889 0.8611 0.0000
1.3333 0.9444 0.0000
1.3889 0.9167 0.0000
1.3889 0.9722 0.0000
1.5556 0.0556 0.0000
1.6111 0.0278 0.0000
1.6111 0.0833 0.0000
1.5556 0.1667 0.0000
1.6111 0.1389 0.0000
1.6111 0.1944 0.0000
1.5556 0.2778 0.0000
1.6111 0.2500 0.0000
1.6111 0.3056 0.0000
1.5556 0.3889 0.0000
1.6111 0.3611 0.0000
1.6111 0.4167 0.0000
1.5556 0.5000 0.0000
1.6111 0.4722 0.0000
1.6111 0.5278 0.0000
1.5556 0.6111 0.0000
1.6111 0.5833 0.0000
1.6111 0.6389 0.0000
1.5556 0.7222 0.0000
1.6111 0.6944 0.0000
1.6111 0.7500 0.0000
1.5556 0.8333 0.0000
1.6111 0.8056 0.0000
1.6111 0.8611 0.0000
1.5556 0.9444 0.0000
1.6111 0.9167 0.0000
1.6111 0.9722 0.0000
1.7778 0.0556 0.0000
1.8333 0.0278 0.0000
1.8333 0.0833 0.0000
1.7778 0.1667 0.0000
1.8333 0.1389 0.0000
1.8333 0.1944 0.0000
1.7778 0.2778 0.0000
1.8333 0.2500 0.0000
1.8333 0.3056 0.0000
1.7778 0.3889 0.0000
1.8333 0.3611 0.0000
1.8333 0.4167 0.0000
1.7778 0.5000 0.0000
1.8333 0.4722 0.0000
1.8333 0.5278 0.0000
1.7778 0.6111 0.0000
1.8333 0.5833 0.0000
1.8333 0.6389 0.0000
1.7778 0.7222 0.0000
1.8333 0.6944 0.0000
1.8333 0.7500 0.0000
1.7778 0.8333 0.0000
1.8333 0.8056 0.0000
1.8333 0.8611 0.0000
1.7778 0.9444 0.0000
1.8333 0.9167 0.0000
1.8333 0.9722 0.0000
0.1111 0.1111 0.0000
0.1667 0.0833 0.0000
0.1111 0.2222 0.0000
0.1667 0.1944 0.0000
0.1111 0.3333 0.0000
0.1667 0.3056 0.0000
0.1111 0.4444 0.0000
0.1667 0.4167 0.0000
0.1111 0.5556 0.0000
0.1667 0.5278 0.0000
0.1111 0.6667 0.0000
0.1667 0.6389 0.0000
0.1111 0.7778 0.0000
0.1667 0.7500 0.0000
0.1111 0.8889 0.0000
0.1667 0.8611 0.0000
0.1111 1.0000 0.0000
0.1667 0.9722 0.0000
0.3333 0.1111 0.0000
0.3889 0.0833 0.0000
0.3333 0.2222 0.0000
0.3889 0.1944 0.0000
0.3333 0.3333 0.0000
0.3889 0.3056 0.0000
0.3333 0.4444 0.0000
0.3889 0.4167 0.0000
0.3333 0.5556 0.0000
0.3889 0.5278 0.0000
0.3333 0.6667 0.0000
0.3889 0.6389 0.0000
0.3333 0.7778 0.0000
0.3889 0.7500 0.0000
0.3333 0.8889 0.0000
0.3889 0.8611 0.0000
0.3333 1.0000 0.0000
0.3889 0.9722 0.0000
0.5556 0.1111 0.0000
[...]
         <PointData>
            <DataArray Name="fValues" NumberOfComponents="3" format="ascii" type="Float64">
-1.22377e-15 -4.28318e-15        00000 
-1.81575e-15  4.95205e-16        00000 
 2.86714e-16  1.13396e-15        00000 
-7.89078e-16 -5.26052e-16        00000 
 2.19186e-18 -2.68181e-17        00000 
 2.63026e-16  6.57565e-17        00000 
-5.26038e-17 -3.75446e-16        00000 
-1.57673e-15 -8.21213e-16        00000 
 3.43424e-15  3.96259e-16        00000 
 3.67130e-15 -6.11883e-16        00000 
-4.86714e+01 -3.68915e+01        00000 
-3.31935e+01 -2.83293e+01        00000 
-2.16777e+01 -2.22908e+01        00000 
-1.23860e+01 -1.88000e+01        00000 
-4.07415e+00 -1.72084e+01        00000 
 3.94171e+00 -1.72069e+01        00000 
 1.22256e+01 -1.87998e+01        00000 
 2.14736e+01 -2.22729e+01        00000 
 3.29606e+01 -2.82827e+01        00000 
 4.84245e+01 -3.68298e+01        00000 
-8.86540e+01 -7.83130e+01        00000 
-6.53137e+01 -7.08895e+01        00000 
-4.45700e+01 -6.51355e+01        00000 
-2.59368e+01 -6.12684e+01        00000 
-8.60238e+00 -5.93367e+01        00000 
 8.37566e+00 -5.93233e+01        00000 
 2.56762e+01 -6.12510e+01        00000 
 4.42587e+01 -6.51169e+01        00000 
 6.49717e+01 -7.08839e+01        00000 
 8.82968e+01 -7.83099e+01        00000 
-1.23946e+02 -1.35711e+02        00000 
-9.29471e+01 -1.29324e+02        00000 
-6.45131e+01 -1.24379e+02        00000 
-3.80121e+01 -1.21033e+02        00000 
-1.26505e+01 -1.19337e+02        00000 
 1.23323e+01 -1.19310e+02        00000 
 3.76589e+01 -1.20974e+02        00000 
 6.41489e+01 -1.24322e+02        00000 
 9.25905e+01 -1.29273e+02        00000 
 1.23608e+02 -1.35688e+02        00000 
-1.53936e+02 -2.07590e+02        00000 
-1.16315e+02 -2.02254e+02        00000 
-8.12961e+01 -1.98160e+02        00000 
-4.81284e+01 -1.95398e+02        00000 
-1.60874e+01 -1.93995e+02        00000 
 1.56605e+01 -1.93955e+02        00000 
 4.77931e+01 -1.95320e+02        00000 
 8.10269e+01 -1.98094e+02        00000 
 1.16123e+02 -2.02229e+02        00000 
 1.53765e+02 -2.07616e+02        00000 
-1.78545e+02 -2.91599e+02        00000 
-1.35430e+02 -2.87325e+02        00000 
-9.49291e+01 -2.84050e+02        00000 
-5.62956e+01 -2.81862e+02        00000 
-1.87447e+01 -2.80810e+02        00000 
 1.84581e+01 -2.80850e+02        00000 
 5.60734e+01 -2.81959e+02        00000 
 9.48221e+01 -2.84146e+02        00000 
 1.35406e+02 -2.87418e+02        00000 
 1.78593e+02 -2.91720e+02        00000 
-1.97842e+02 -3.85500e+02        00000 
-1.50392e+02 -3.82257e+02        00000 
-1.05542e+02 -3.79806e+02        00000 
-6.25797e+01 -3.78219e+02        00000 
-2.07612e+01 -3.77458e+02        00000 
 2.06441e+01 -3.77498e+02        00000 
 6.24775e+01 -3.78321e+02        00000 
 1.05516e+02 -3.79947e+02        00000 
 1.50445e+02 -3.82401e+02        00000 
 1.97957e+02 -3.85649e+02        00000 
-2.11932e+02 -4.86838e+02        00000 
-1.61194e+02 -4.84615e+02        00000 
-1.13032e+02 -4.83060e+02        00000 
-6.69412e+01 -4.82133e+02        00000 
-2.21795e+01 -4.81704e+02        00000 
 2.21409e+01 -4.81738e+02        00000 
 6.69097e+01 -4.82219e+02        00000 
 1.13032e+02 -4.83190e+02        00000 
 1.61218e+02 -4.84752e+02        00000 
 2.11934e+02 -4.86948e+02        00000 
-2.21341e+02 -5.93560e+02        00000 
-1.67719e+02 -5.92371e+02        00000 
-1.17091e+02 -5.91688e+02        00000 
-6.91661e+01 -5.91208e+02        00000 
-2.28980e+01 -5.90963e+02        00000 
 2.28661e+01 -5.90980e+02        00000 
 6.91366e+01 -5.91264e+02        00000 
 1.17034e+02 -5.91787e+02        00000 
 1.67616e+02 -5.92518e+02        00000 
 2.21221e+02 -5.93690e+02        00000 
-2.27198e+02 -7.09895e+02        00000 
-1.70382e+02 -7.07107e+02        00000 
-1.18918e+02 -7.03794e+02        00000 
-7.03139e+01 -7.01220e+02        00000 
-2.32817e+01 -6.99862e+02        00000 
 2.32871e+01 -6.99882e+02        00000 
 7.03031e+01 -7.01266e+02        00000 
 1.18958e+02 -7.03847e+02        00000 
 1.70304e+02 -7.07203e+02        00000 
 2.26999e+02 -7.10066e+02        00000 
-1.97115e+01 -1.57209e+01        00000 
-1.26215e+01 -9.55366e+00        00000 
-7.86284e+00 -6.56187e+00        00000 
-3.81000e+00 -5.14295e+00        00000 
-1.66398e-02 -4.72676e+00        00000 
 3.74668e+00 -5.14523e+00        00000 
 7.77698e+00 -6.57157e+00        00000 
 1.25034e+01 -9.54782e+00        00000 
 1.95835e+01 -1.56672e+01        00000 
-5.91754e+01 -5.14840e+01        00000 
-4.13079e+01 -4.43453e+01        00000 
-2.61151e+01 -3.93123e+01        00000 
-1.27078e+01 -3.64195e+01        00000 
-8.76101e-02 -3.54773e+01        00000 
 1.25083e+01 -3.64298e+01        00000 
 2.58694e+01 -3.93219e+01        00000 
 4.10066e+01 -4.43396e+01        00000 
 5.88571e+01 -5.14528e+01        00000 
-9.29444e+01 -1.01450e+02        00000 
-6.70069e+01 -9.52560e+01        00000 
-4.33656e+01 -9.07461e+01        00000 
-2.13553e+01 -8.80079e+01        00000 
-1.30287e-01 -8.70984e+01        00000 
 2.10746e+01 -8.79941e+01        00000 
 4.30369e+01 -9.07127e+01        00000 
 6.66612e+01 -9.52155e+01        00000 
 9.25756e+01 -1.01397e+02        00000 
-1.22017e+02 -1.66917e+02        00000 
-8.89606e+01 -1.61690e+02        00000 
-5.81218e+01 -1.57884e+02        00000 
-2.88041e+01 -1.55580e+02        00000 
-1.87682e-01 -1.54762e+02        00000 
 2.84184e+01 -1.55488e+02        00000 
 5.77701e+01 -1.57786e+02        00000 
 8.86368e+01 -1.61618e+02        00000 
 1.21743e+02 -1.66892e+02        00000 
-1.46290e+02 -2.45700e+02        00000 
-1.07167e+02 -2.41426e+02        00000 
-7.02845e+01 -2.38346e+02        00000 
-3.48962e+01 -2.36487e+02        00000 
-2.05941e-01 -2.35884e+02        00000 
 3.45521e+01 -2.36500e+02        00000 
 7.00504e+01 -2.38347e+02        00000 
 1.07032e+02 -2.41444e+02        00000 
 1.46202e+02 -2.45729e+02        00000 
-1.65769e+02 -3.35490e+02        00000 
-1.21732e+02 -3.32150e+02        00000 
-7.99567e+01 -3.29773e+02        00000 
-3.96395e+01 -3.28374e+02        00000 
-8.97268e-02 -3.27941e+02        00000 
 3.94766e+01 -3.28448e+02        00000 
 7.98602e+01 -3.29889e+02        00000 
 1.21727e+02 -3.32287e+02        00000 
 1.65837e+02 -3.35634e+02        00000 
-1.80548e+02 -4.33919e+02        00000 
-1.32738e+02 -4.31531e+02        00000 
-8.71617e+01 -4.29902e+02        00000 
-4.31805e+01 -4.28978e+02        00000 
-3.24707e-02 -4.28696e+02        00000 
 4.31166e+01 -4.29045e+02        00000 
 8.71167e+01 -4.30028e+02        00000 
 1.32742e+02 -4.31689e+02        00000 
 1.80615e+02 -4.34085e+02        00000 
-1.90757e+02 -5.38690e+02        00000 
-1.39939e+02 -5.37280e+02        00000 
-9.16613e+01 -5.36451e+02        00000 
-4.53555e+01 -5.36018e+02        00000 
-1.40775e-02 -5.35896e+02        00000 
 4.53216e+01 -5.36077e+02        00000 
 9.16253e+01 -5.36551e+02        00000 
 1.39895e+02 -5.37400e+02        00000 
 1.90699e+02 -5.38788e+02        00000 
-1.96425e+02 -6.48918e+02        00000 
-1.43123e+02 -6.48074e+02        00000 
-9.35259e+01 -6.47042e+02        00000 
-4.62266e+01 -6.46250e+02        00000 
-2.21020e-03 -6.45975e+02        00000 
 4.62097e+01 -6.46293e+02        00000 
 9.35195e+01 -6.47114e+02        00000 
 1.43081e+02 -6.48211e+02        00000 
 1.96282e+02 -6.49101e+02        00000 
-1.91679e-16  1.70871e-16        00000 
-1.07691e+01 -8.22276e+00        00000 
-8.19139e+00 -5.78555e+00        00000 
 1.45102e-15  1.55961e-15        00000 
-6.61023e+00 -4.25165e+00        00000 
-5.36745e+00 -3.20907e+00        00000 
-2.49800e-16        00000        00000 
-4.26996e+00 -2.48241e+00        00000 
-3.25446e+00 -1.97596e+00        00000 
-2.50165e-16 -6.82481e-16        00000 
-2.29438e+00 -1.63769e+00        00000 
-1.37449e+00 -1.42259e+00        00000 
-9.36751e-17  5.62050e-16        00000 
-4.60246e-01 -1.32948e+00        00000 
 4.36375e-01 -1.33443e+00        00000 
 8.83068e-16  1.25024e-16        00000 
 1.34001e+00 -1.43518e+00        00000 
 2.25679e+00 -1.64389e+00        00000 
-6.24500e-16 -4.99600e-16        00000 
 3.21476e+00 -1.98099e+00        00000 
 4.22754e+00 -2.48711e+00        00000 
 1.24900e-15 -1.74860e-15        00000 
 5.31679e+00 -3.21287e+00        00000 
 6.55105e+00 -4.24595e+00        00000 
-6.36438e-15  9.71584e-16        00000 
 8.12132e+00 -5.76320e+00        00000 
 1.07026e+01 -8.18210e+00        00000 
-4.04799e+01 -3.24332e+01        00000 
-5.44441e+01 -4.38523e+01        00000 
-4.57477e+01 -3.95590e+01        00000 
-2.70501e+01 -2.49533e+01        00000 
-3.78767e+01 -3.58050e+01        00000 
-3.08523e+01 -3.26887e+01        00000 
-1.68437e+01 -2.02692e+01        00000 
-2.44810e+01 -3.02021e+01        00000 
-1.86112e+01 -2.82991e+01        00000 
-8.15443e+00 -1.77850e+01        00000 
-1.30931e+01 -2.69302e+01        00000 
-7.80229e+00 -2.60387e+01        00000 
-6.29182e-02 -1.70141e+01        00000 
-2.63353e+00 -2.56031e+01        00000 
 2.47826e+00 -2.56026e+01        00000 
 8.00852e+00 -1.77955e+01        00000 
 7.63752e+00 -2.60454e+01        00000 
 1.29116e+01 -2.69424e+01        00000 
 1.66672e+01 -2.02684e+01        00000 
 1.84090e+01 -2.83084e+01        00000 
 2.42494e+01 -3.02058e+01        00000 
 2.68190e+01 -2.49202e+01        00000 
 3.05933e+01 -3.26739e+01        00000 
 3.76073e+01 -3.57788e+01        00000 
 4.02353e+01 -3.23680e+01        00000 
 4.54713e+01 -3.95213e+01        00000 
 5.41571e+01 -4.37852e+01        00000 
-7.66405e+01 -7.44260e+01        00000 
-9.13526e+01 -8.95215e+01        00000 
-7.86953e+01 -8.57594e+01        00000 
-5.46504e+01 -6.77859e+01        00000 
-6.67025e+01 -8.24894e+01        00000 
-5.53224e+01 -7.96879e+01        00000 
-3.50450e+01 -6.29556e+01        00000 
-4.45115e+01 -7.73455e+01        00000 
-3.41653e+01 -7.54740e+01        00000 
-1.71703e+01 -6.00559e+01        00000 
-2.41854e+01 -7.40517e+01        00000 
-1.44718e+01 -7.31090e+01        00000 
-1.11672e-01 -5.90899e+01        00000 
-4.88485e+00 -7.26317e+01        00000 
 4.64734e+00 -7.26316e+01        00000 
 1.69221e+01 -6.00472e+01        00000 
 1.42158e+01 -7.30945e+01        00000 
 2.39052e+01 -7.40324e+01        00000 
 3.47505e+01 -6.29410e+01        00000 
 3.38595e+01 -7.54404e+01        00000 
 4.41855e+01 -7.73118e+01        00000 
 5.43094e+01 -6.77694e+01        00000 
 5.49986e+01 -7.96537e+01        00000 
 6.63587e+01 -8.24643e+01        00000 
 7.62847e+01 -7.44161e+01        00000 
 7.83340e+01 -8.57319e+01        00000 
 9.09769e+01 -8.94915e+01        00000 
-1.08086e+02 -1.32367e+02        00000 
-1.23469e+02 -1.50994e+02        00000 
-1.07115e+02 -1.47775e+02        00000 
-7.84483e+01 -1.26661e+02        00000 
-9.14268e+01 -1.44991e+02        00000 
-7.63481e+01 -1.42604e+02        00000 
-5.10586e+01 -1.22498e+02        00000 
-6.17879e+01 -1.40611e+02        00000 
-4.76545e+01 -1.39010e+02        00000 
-2.52425e+01 -1.19978e+02        00000 
-3.38638e+01 -1.37803e+02        00000 
-2.02961e+01 -1.36986e+02        00000 
-1.50950e-01 -1.19118e+02        00000 
-6.86132e+00 -1.36557e+02        00000 
 6.52173e+00 -1.36535e+02        00000 
 2.49058e+01 -1.19933e+02        00000 
 1.99430e+01 -1.36926e+02        00000 
 3.35011e+01 -1.37713e+02        00000 
 5.07039e+01 -1.22438e+02        00000 
 4.72912e+01 -1.38913e+02        00000 
 6.14215e+01 -1.40520e+02        00000 
 7.80926e+01 -1.26602e+02        00000 
 7.59976e+01 -1.42525e+02        00000 
 9.10947e+01 -1.44924e+02        00000 
 1.07729e+02 -1.32316e+02        00000 
 1.06780e+02 -1.47725e+02        00000 
 1.23160e+02 -1.50963e+02        00000 
-1.34750e+02 -2.04791e+02        00000 
-1.50528e+02 -2.26365e+02        00000 
-1.30995e+02 -2.23698e+02        00000 
-9.85288e+01 -2.00044e+02        00000 
-1.12152e+02 -2.21398e+02        00000 
-9.39121e+01 -2.19439e+02        00000 
-6.45211e+01 -1.96611e+02        00000 
-7.61898e+01 -2.17815e+02        00000 
-5.88804e+01 -2.16503e+02        00000 
-3.20194e+01 -1.94527e+02        00000 
-4.19003e+01 -2.15513e+02        00000 
-2.51445e+01 -2.14851e+02        00000 
-2.25697e-01 -1.93806e+02        00000 
-8.52271e+00 -2.14516e+02        00000 
 8.08164e+00 -2.14508e+02        00000 
 3.16342e+01 -1.94466e+02        00000 
 2.47455e+01 -2.14832e+02        00000 
 4.15528e+01 -2.15475e+02        00000 
 6.42196e+01 -1.96532e+02        00000 
 5.85819e+01 -2.16460e+02        00000 
 7.59379e+01 -2.17770e+02        00000 
 9.82965e+01 -2.00000e+02        00000 
 9.37147e+01 -2.19412e+02        00000 
 1.11994e+02 -2.21388e+02        00000 
 1.34573e+02 -2.04785e+02        00000 
 1.30854e+02 -2.23709e+02        00000 
 1.50395e+02 -2.26376e+02        00000 
-1.56624e+02 -2.89356e+02        00000 
-1.72503e+02 -3.13307e+02        00000 
-1.50366e+02 -3.11199e+02        00000 
-1.14901e+02 -2.85557e+02        00000 
-1.28907e+02 -3.09376e+02        00000 
-1.08079e+02 -3.07828e+02        00000 
-7.54342e+01 -2.82823e+02        00000 
-8.77714e+01 -3.06545e+02        00000 
-6.78732e+01 -3.05519e+02        00000 
-3.74282e+01 -2.81200e+02        00000 
-4.82777e+01 -3.04763e+02        00000 
-2.89207e+01 -3.04275e+02        00000 
-1.49975e-01 -2.80698e+02        00000 
-9.70283e+00 -3.04041e+02        00000 
 9.46735e+00 -3.04067e+02        00000 
 3.71694e+01 -2.81275e+02        00000 
 2.86969e+01 -3.04347e+02        00000 
 4.80740e+01 -3.04869e+02        00000 
 7.52648e+01 -2.82916e+02        00000 
 6.77039e+01 -3.05643e+02        00000 
 8.76684e+01 -3.06667e+02        00000 
 1.14834e+02 -2.85649e+02        00000 
 1.08035e+02 -3.07953e+02        00000 
 1.28905e+02 -3.09495e+02        00000 
 1.56630e+02 -2.89448e+02        00000 
 1.50388e+02 -3.11317e+02        00000 
 1.72570e+02 -3.13434e+02        00000 
-1.73738e+02 -3.83792e+02        00000 
-1.89450e+02 -4.09508e+02        00000 
-1.65300e+02 -4.07947e+02        00000 
-1.27689e+02 -3.80920e+02        00000 
-1.41833e+02 -4.06604e+02        00000 
-1.18958e+02 -4.05479e+02        00000 
-8.38700e+01 -3.78906e+02        00000 
-9.66041e+01 -4.04563e+02        00000 
-7.46836e+01 -4.03851e+02        00000 
-4.15701e+01 -3.77742e+02        00000 
-5.31037e+01 -4.03332e+02        00000 
-3.17811e+01 -4.02994e+02        00000 
-5.78647e-02 -3.77384e+02        00000 
-1.06010e+01 -4.02836e+02        00000 
 1.05138e+01 -4.02857e+02        00000 
 4.14597e+01 -3.77808e+02        00000 
 3.16882e+01 -4.03056e+02        00000 
 5.30190e+01 -4.03432e+02        00000 
 8.38061e+01 -3.79027e+02        00000 
 7.46203e+01 -4.03980e+02        00000 
 9.65733e+01 -4.04711e+02        00000 
 1.27710e+02 -3.81060e+02        00000 
 1.18962e+02 -4.05635e+02        00000 
 1.41866e+02 -4.06765e+02        00000 
 1.73838e+02 -3.83937e+02        00000 
 1.65367e+02 -4.08111e+02        00000 
 1.89558e+02 -4.09662e+02        00000 
-1.86205e+02 -4.85647e+02        00000 
-2.01551e+02 -5.12611e+02        00000 
-1.75844e+02 -5.11569e+02        00000 
-1.36823e+02 -4.83746e+02        00000 
-1.50796e+02 -5.10726e+02        00000 
-1.26368e+02 -5.10057e+02        00000 
-8.97666e+01 -4.82526e+02        00000 
-1.02527e+02 -5.09548e+02        00000 
-7.92011e+01 -5.09166e+02        00000 
-4.44520e+01 -4.81862e+02        00000 
-5.62911e+01 -5.08900e+02        00000 
-3.36649e+01 -5.08726e+02        00000 
-2.86668e-02 -4.81660e+02        00000 
-1.12111e+01 -5.08643e+02        00000 
 1.11887e+01 -5.08662e+02        00000 
 4.44152e+01 -4.81918e+02        00000 
 3.36390e+01 -5.08773e+02        00000 
 5.62638e+01 -5.08972e+02        00000 
 8.97409e+01 -4.82642e+02        00000 
 7.91819e+01 -5.09266e+02        00000 
 1.02504e+02 -5.09669e+02        00000 
 1.36835e+02 -4.83886e+02        00000 
 1.26357e+02 -5.10187e+02        00000 
 1.50789e+02 -5.10849e+02        00000 
 1.86223e+02 -4.85777e+02        00000 
 1.75840e+02 -5.11690e+02        00000 
 2.01529e+02 -5.12712e+02        00000 
-1.94217e+02 -5.92873e+02        00000 
-2.09300e+02 -6.20927e+02        00000 
-1.81929e+02 -6.20419e+02        00000 
-1.42012e+02 -5.92000e+02        00000 
-1.55513e+02 -6.20035e+02        00000 
-1.30016e+02 -6.19687e+02        00000 
-9.28426e+01 -5.91424e+02        00000 
-1.05317e+02 -6.19353e+02        00000 
-8.12585e+01 -6.19045e+02        00000 
-4.58973e+01 -5.91050e+02        00000 
-5.77037e+01 -6.18796e+02        00000 
-3.45031e+01 -6.18619e+02        00000 
-1.62572e-02 -5.90933e+02        00000 
-1.14855e+01 -6.18533e+02        00000 
 1.14701e+01 -6.18546e+02        00000 
 4.58708e+01 -5.91086e+02        00000 
 3.44802e+01 -6.18649e+02        00000 
 5.76891e+01 -6.18837e+02        00000 
 9.28108e+01 -5.91500e+02        00000 
 8.12415e+01 -6.19100e+02        00000 
 1.05292e+02 -6.19431e+02        00000 
 1.41937e+02 -5.92130e+02        00000 
 1.29969e+02 -6.19798e+02        00000 
 1.55429e+02 -6.20179e+02        00000 
 1.94103e+02 -5.93017e+02        00000 
 1.81806e+02 -6.20573e+02        00000 
 2.09154e+02 -6.21097e+02        00000 
-1.56339e+01 -1.20640e+01        00000 
-2.71984e+01 -2.18373e+01        00000 
-1.01113e+01 -7.80517e+00        00000 
-1.77152e+01 -1.54793e+01        00000 
-5.78450e+00 -5.70996e+00        00000 
-1.06098e+01 -1.20167e+01        00000 
-1.89870e+00 -4.83093e+00        00000 
-4.43925e+00 -1.03676e+01        00000 
 1.84721e+00 -4.83016e+00        00000 
 1.41270e+00 -1.00555e+01        00000 
 5.70419e+00 -5.70856e+00        00000 
 7.34312e+00 -1.10085e+01        00000 
 1.00107e+01 -7.80329e+00        00000 
 1.38440e+01 -1.34649e+01        00000 
 1.54982e+01 -1.20347e+01        00000 
 2.17952e+01 -1.81637e+01        00000 
 2.70119e+01 -2.10850e+01        00000 
 3.39876e+01 -2.64605e+01        00000 
-4.98747e+01 -4.76846e+01        00000 
-6.28098e+01 -6.06440e+01        00000 
-3.34248e+01 -4.15557e+01        00000 
-4.35171e+01 -5.41368e+01        00000 
-1.92519e+01 -3.76137e+01        00000 
-2.65921e+01 -4.96791e+01        00000 
-6.34879e+00 -3.57168e+01        00000 
-1.12036e+01 -4.72450e+01        00000 
 6.17424e+00 -3.57167e+01        00000 
 3.58875e+00 -4.67508e+01        00000 
 1.90297e+01 -3.76209e+01        00000 
 1.85332e+01 -4.82123e+01        00000 
 3.31475e+01 -4.15593e+01        00000 
 3.45197e+01 -5.16458e+01        00000 
 4.95655e+01 -4.76655e+01        00000 
 5.25067e+01 -5.71306e+01        00000 
 6.88833e+01 -5.56089e+01        00000 
 7.31260e+01 -6.46472e+01        00000 
-7.96608e+01 -9.81524e+01        00000 
-9.34683e+01 -1.14891e+02        00000 
-5.49332e+01 -9.27843e+01        00000 
-6.62663e+01 -1.09261e+02        00000 
-3.22122e+01 -8.91530e+01        00000 
-4.11891e+01 -1.05333e+02        00000 
-1.07017e+01 -8.73272e+01        00000 
-1.74991e+01 -1.03137e+02        00000 
 1.04271e+01 -8.73240e+01        00000 
 5.62002e+00 -1.02686e+02        00000 
 3.18982e+01 -8.91315e+01        00000 
 2.89055e+01 -1.03982e+02        00000 
 5.45936e+01 -9.27484e+01        00000 
 5.31472e+01 -1.07044e+02        00000 
 7.93008e+01 -9.81088e+01        00000 
 7.92116e+01 -1.11807e+02        00000 
 1.06564e+02 -1.05025e+02        00000 
 1.07673e+02 -1.18327e+02        00000 
-1.05166e+02 -1.64131e+02        00000 
-1.19618e+02 -1.84156e+02        00000 
-7.33130e+01 -1.59604e+02        00000 
-8.55715e+01 -1.79440e+02        00000 
-4.33197e+01 -1.56537e+02        00000 
-5.35494e+01 -1.76168e+02        00000 
-1.44525e+01 -1.54980e+02        00000 
-2.28541e+01 -1.74331e+02        00000 
 1.40683e+01 -1.54927e+02        00000 
 7.32740e+00 -1.73912e+02        00000 
 4.29546e+01 -1.56438e+02        00000 
 3.77262e+01 -1.74982e+02        00000 
 7.29651e+01 -1.59514e+02        00000 
 6.90291e+01 -1.77543e+02        00000 
 1.04874e+02 -1.64077e+02        00000 
 1.02036e+02 -1.81562e+02        00000 
 1.39359e+02 -1.69998e+02        00000 
 1.37423e+02 -1.87082e+02        00000 
-1.26400e+02 -2.43413e+02        00000 