<?xml version="1.0" encoding="utf-8"?>
<VTKFile byte_order="LittleEndian" type="UnstructuredGrid" version="0.1">
   <UnstructuredGrid>
      <Piece NumberOfCells="1296" NumberOfPoints="685">
         <Points>
            <DataArray Name="Points" NumberOfComponents="3" format="ascii" type="Float32">
0.0000 0.0000 0.0000
0.0000 0.1111 0.0000
0.0000 0.2222 0.0000
0.0000 0.3333 0.0000
0.0000 0.4444 0.0000
0.0000 0.5556 0.0000
0.0000 0.6667 0.0000
0.0000 0.7778 0.0000
0.0000 0.8889 0.0000
0.0000 1.0000 0.0000
0.2222 0.0000 0.0000
0.2222 0.1111 0.0000
0.2222 0.2222 0.0000
0.2222 0.3333 0.0000
0.2222 0.4444 0.0000
0.2222 0.5556 0.0000
0.2222 0.6667 0.0000
0.2222 0.7778 0.0000
0.2222 0.8889 0.0000
0.2222 1.0000 0.0000
0.4444 0.0000 0.0000
0.4444 0.1111 0.0000
0.4444 0.2222 0.0000
0.4444 0.3333 0.0000
0.4444 0.4444 0.0000
0.4444 0.5556 0.0000
0.4444 0.6667 0.0000
0.4444 0.7778 0.0000
0.4444 0.8889 0.0000
0.4444 1.0000 0.0000
0.6667 0.0000 0.0000
0.6667 0.1111 0.0000
0.6667 0.2222 0.0000
0.6667 0.3333 0.0000
0.6667 0.4444 0.0000
0.6667 0.5556 0.0000
0.6667 0.6667 0.0000
0.6667 0.7778 0.0000
0.6667 0.8889 0.0000
0.6667 1.0000 0.0000
0.8889 0.0000 0.0000
0.8889 0.1111 0.0000
0.8889 0.2222 0.0000
0.8889 0.3333 0.0000
0.8889 0.4444 0.0000
0.8889 0.5556 0.0000
0.8889 0.6667 0.0000
0.8889 0.7778 0.0000
0.8889 0.8889 0.0000
0.8889 1.0000 0.0000
1.1111 0.0000 0.0000
1.1111 0.1111 0.0000
1.1111 0.2222 0.0000
1.1111 0.3333 0.0000
1.1111 0.4444 0.0000
1.1111 0.5556 0.0000
1.1111 0.6667 0.0000
1.1111 0.7778 0.0000
1.1111 0.8889 0.0000
1.1111 1.0000 0.0000
1.3333 0.0000 0.0000
1.3333 0.1111 0.0000
1.3333 0.2222 0.0000
1.3333 0.3333 0.0000
1.3333 0.4444 0.0000
1.3333 0.5556 0.0000
1.3333 0.6667 0.0000
1.3333 0.7778 0.0000
1.3333 0.8889 0.0000
1.3333 1.0000 0.0000
1.5556 0.0000 0.0000
1.5556 0.1111 0.0000
1.5556 0.2222 0.0000
1.5556 0.3333 0.0000
1.5556 0.4444 0.0000
1.5556 0.5556 0.0000
1.5556 0.6667 0.0000
1.5556 0.7778 0.0000
1.5556 0.8889 0.0000
1.5556 1.0000 0.0000
1.7778 0.0000 0.0000
1.7778 0.1111 0.0000
1.7778 0.2222 0.0000
1.7778 0.3333 0.0000
1.7778 0.4444 0.0000
1.7778 0.5556 0.0000
1.7778 0.6667 0.0000
1.7778 0.7778 0.0000
1.7778 0.8889 0.0000
1.7778 1.0000 0.0000
2.0000 0.0000 0.0000
2.0000 0.1111 0.0000
2.0000 0.2222 0.0000
2.0000 0.3333 0.0000
2.0000 0.4444 0.0000
2.0000 0.5556 0.0000
2.0000 0.6667 0.0000
2.0000 0.7778 0.0000
2.0000 0.8889 0.0000
2.0000 1.0000 0.0000
0.1111 0.0556 0.0000
0.1111 0.1667 0.0000
0.1111 0.2778 0.0000
0.1111 0.3889 0.0000
0.1111 0.5000 0.0000
0.1111 0.6111 0.0000
0.1111 0.7222 0.0000
0.1111 0.8333 0.0000
0.1111 0.9444 0.0000
0.3333 0.0556 0.0000
0.3333 0.1667 0.0000
0.3333 0.2778 0.0000
0.3333 0.3889 0.0000
0.3333 0.5000 0.0000
0.3333 0.6111 0.0000
0.3333 0.7222 0.0000
0.3333 0.8333 0.0000
0.3333 0.9444 0.0000
0.5556 0.0556 0.0000
0.5556 0.1667 0.0000
0.5556 0.2778 0.0000
0.5556 0.3889 0.0000
0.5556 0.5000 0.0000
0.5556 0.6111 0.0000
0.5556 0.7222 0.0000
0.5556 0.8333 0.0000
0.5556 0.9444 0.0000
0.7778 0.0556 0.0000
0.7778 0.1667 0.0000
0.7778 0.2778 0.0000
0.7778 0.3889 0.0000
0.7778 0.5000 0.0000
0.7778 0.6111 0.0000
0.7778 0.7222 0.0000
0.7778 0.8333 0.0000
0.7778 0.9444 0.0000
1.0000 0.0556 0.0000
1.0000 0.1667 0.0000
1.0000 0.2778 0.0000
1.0000 0.3889 0.0000
1.0000 0.5000 0.0000
1.0000 0.6111 0.0000
1.0000 0.7222 0.0000
1.0000 0.8333 0.0000
1.0000 0.9444 0.0000
1.2222 0.0556 0.0000
1.2222 0.1667 0.0000
1.2222 0.2778 0.0000
1.2222 0.3889 0.0000
1.2222 0.5000 0.0000
1.2222 0.6111 0.0000
1.2222 0.7222 0.0000
1.2222 0.8333 0.0000
1.2222 0.9444 0.0000
1.4444 0.0556 0.0000
1.4444 0.1667 0.0000
1.4444 0.2778 0.0000
1.4444 0.3889 0.0000
1.4444 0.5000 0.0000
1.4444 0.6111 0.0000
1.4444 0.7222 0.0000
1.4444 0.8333 0.0000
1.4444 0.9444 0.0000
1.6667 0.0556 0.0000
1.6667 0.1667 0.0000
1.6667 0.2778 0.0000
1.6667 0.3889 0.0000
1.6667 0.5000 0.0000
1.6667 0.6111 0.0000
1.6667 0.7222 0.0000
1.6667 0.8333 0.0000
1.6667 0.9444 0.0000
1.8889 0.0556 0.0000
1.8889 0.1667 0.0000
1.8889 0.2778 0.0000
1.8889 0.3889 0.0000
1.8889 0.5000 0.0000
1.8889 0.6111 0.0000
1.8889 0.7222 0.0000
1.8889 0.8333 0.0000
1.8889 0.9444 0.0000
0.0000 0.0556 0.0000
0.0556 0.0278 0.0000
0.0556 0.0833 0.0000
0.0000 0.1667 0.0000
0.0556 0.1389 0.0000
0.0556 0.1944 0.0000
0.0000 0.2778 0.0000
0.0556 0.2500 0.0000
0.0556 0.3056 0.0000
0.0000 0.3889 0.0000
0.0556 0.3611 0.0000
0.0556 0.4167 0.0000
0.0000 0.5000 0.0000
0.0556 0.4722 0.0000
0.0556 0.5278 0.0000
0.0000 0.6111 0.0000
0.0556 0.5833 0.0000
0.0556 0.6389 0.0000
0.0000 0.7222 0.0000
0.0556 0.6944 0.0000
0.0556 0.7500 0.0000
0.0000 0.8333 0.0000
0.0556 0.8056 0.0000
0.0556 0.8611 0.0000
0.0000 0.9444 0.0000
0.0556 0.9167 0.0000
0.0556 0.9722 0.0000
0.2222 0.0556 0.0000
0.2778 0.0278 0.0000
0.2778 0.0833 0.0000
0.2222 0.1667 0.0000
0.2778 0.1389 0.0000
0.2778 0.1944 0.0000
0.2222 0.2778 0.0000
0.2778 0.2500 0.0000
0.2778 0.3056 0.0000
0.2222 0.3889 0.0000
0.2778 0.3611 0.0000
0.2778 0.4167 0.0000
0.2222 0.5000 0.0000
0.2778 0.4722 0.0000
0.2778 0.5278 0.0000
0.2222 0.6111 0.0000
0.2778 0.5833 0.0000
0.2778 0.6389 0.0000
0.2222 0.7222 0.0000
0.2778 0.6944 0.0000
0.2778 0.7500 0.0000
0.2222 0.8333 0.0000
0.2778 0.8056 0.0000
0.2778 0.8611 0.0000
0.2222 0.9444 0.0000
0.2778 0.9167 0.0000
0.2778 0.9722 0.0000
0.4444 0.0556 0.0000
0.5000 0.0278 0.0000
0.5000 0.0833 0.0000
0.4444 0.1667 0.0000
0.5000 0.1389 0.0000
0.5000 0.1944 0.0000
0.4444 0.2778 0.0000
0.5000 0.2500 0.0000
0.5000 0.3056 0.0000
0.4444 0.3889 0.0000
0.5000 0.3611 0.0000
0.5000 0.4167 0.0000
0.4444 0.5000 0.0000
0.5000 0.4722 0.0000
0.5000 0.5278 0.0000
0.4444 0.6111 0.0000
0.5000 0.5833 0.0000
0.5000 0.6389 0.0000
0.4444 0.7222 0.0000
0.5000 0.6944 0.0000
0.5000 0.7500 0.0000
0.4444 0.8333 0.0000
0.5000 0.8056 0.0000
0.5000 0.8611 0.0000
0.4444 0.9444 0.0000
0.5000 0.9167 0.0000
0.5000 0.9722 0.0000
0.6667 0.0556 0.0000
0.7222 0.0278 0.0000
0.7222 0.0833 0.0000
0.6667 0.1667 0.0000
0.7222 0.1389 0.0000
0.7222 0.1944 0.0000
0.6667 0.2778 0.0000
0.7222 0.2500 0.0000
0.7222 0.3056 0.0000
0.6667 0.3889 0.0000
0.7222 0.3611 0.0000
0.7222 0.4167 0.0000
0.6667 0.5000 0.0000
0.7222 0.4722 0.0000
0.7222 0.5278 0.0000
0.6667 0.6111 0.0000
0.7222 0.5833 0.0000
0.7222 0.6389 0.0000
0.6667 0.7222 0.0000
0.7222 0.6944 0.0000
0.7222 0.7500 0.0000
0.6667 0.8333 0.0000
0.7222 0.8056 0.0000
0.7222 0.8611 0.0000
0.6667 0.9444 0.0000
0.7222 0.9167 0.0000
0.7222 0.9722 0.0000
0.8889 0.0556 0.0000
0.9444 0.0278 0.0000
0.9444 0.0833 0.0000
0.8889 0.1667 0.0000
0.9444 0.1389 0.0000
0.9444 0.1944 0.0000
0.8889 0.2778 0.0000
0.9444 0.2500 0.0000
0.9444 0.3056 0.0000
0.8889 0.3889 0.0000
0.9444 0.3611 0.0000
0.9444 0.4167 0.0000
0.8889 0.5000 0.0000
0.9444 0.4722 0.0000
0.9444 0.5278 0.0000
0.8889 0.6111 0.0000
0.9444 0.5833 0.0000
0.9444 0.6389 0.0000
0.8889 0.7222 0.0000
0.9444 0.6944 0.0000
0.9444 0.7500 0.0000
0.8889 0.8333 0.0000
0.9444 0.8056 0.0000
0.9444 0.8611 0.0000
0.8889 0.9444 0.0000
0.9444 0.9167 0.0000
0.9444 0.9722 0.0000
1.1111 0.0556 0.0000
1.1667 0.0278 0.0000
1.1667 0.0833 0.0000
1.1111 0.1667 0.0000
1.1667 0.1389 0.0000
1.1667 0.1944 0.0000
1.1111 0.2778 0.0000
1.1667 0.2500 0.0000
1.1667 0.3056 0.0000
1.1111 0.3889 0.0000
1.1667 0.3611 0.0000
1.1667 0.4167 0.0000
1.1111 0.5000 0.0000
1.1667 0.4722 0.0000
1.1667 0.5278 0.0000
1.1111 0.6111 0.0000
1.1667 0.5833 0.0000
1.1667 0.6389 0.0000
1.1111 0.7222 0.0000
1.1667 0.6944 0.0000
1.1667 0.7500 0.0000
1.1111 0.8333 0.0000
1.1667 0.8056 0.0000
1.1667 0.8611 0.0000
1.1111 0.9444 0.0000
1.1667 0.9167 0.0000
1.1667 0.9722 0.0000
1.3333 0.0556 0.0000
1.3889 0.0278 0.0000
1.3889 0.0833 0.0000
1.3333 0.1667 0.0000
1.3889 0.1389 0.0000
1.3889 0.1944 0.0000
1.3333 0.2778 0.0000
1.3889 0.2500 0.0000
1.3889 0.3056 0.0000
1.3333 0.3889 0.0000
1.3889 0.3611 0.0000
1.3889 0.4167 0.0000
1.3333 0.5000 0.0000
1.3889 0.4722 0.0000
1.3889 0.5278 0.0000
1.3333 0.6111 0.0000
1.3889 0.5833 0.0000
1.3889 0.6389 0.0000
1.3333 0.7222 0.0000
1.3889 0.6944 0.0000
1.3889 0.7500 0.0000
1.3333 0.8333 0.0000
1.3889 0.8056 0.0000
1.3889 0.8611 0.0000
1.3333 0.9444 0.0000
1.3889 0.9167 0.0000
1.3889 0.9722 0.0000
1.5556 0.0556 0.0000
1.6111 0.0278 0.0000
1.6111 0.0833 0.0000
1.5556 0.1667 0.0000
1.6111 0.1389 0.0000
1.6111 0.1944 0.0000
1.5556 0.2778 0.0000
1.6111 0.2500 0.0000
1.6111 0.3056 0.0000
1.5556 0.3889 0.0000
1.6111 0.3611 0.0000
1.6111 0.4167 0.0000
1.5556 0.5000 0.0000
1.6111 0.4722 0.0000
1.6111 0.5278 0.0000
1.5556 0.6111 0.0000
1.6111 0.5833 0.0000
1.6111 0.6389 0.0000
1.5556 0.7222 0.0000
1.6111 0.6944 0.0000
1.6111 0.7500 0.0000
1.5556 0.8333 0.0000
1.6111 0.8056 0.0000
1.6111 0.8611 0.0000
1.5556 0.9444 0.0000
1.6111 0.9167 0.0000
1.6111 0.9722 0.0000
1.7778 0.0556 0.0000
1.8333 0.0278 0.0000
1.8333 0.0833 0.0000
1.7778 0.1667 0.0000
1.8333 0.1389 0.0000
1.8333 0.1944 0.0000
1.7778 0.2778 0.0000
1.8333 0.2500 0.0000
1.8333 0.3056 0.0000
1.7778 0.3889 0.0000
1.8333 0.3611 0.0000
1.8333 0.4167 0.0000
1.7778 0.5000 0.0000
1.8333 0.4722 0.0000
1.8333 0.5278 0.0000
1.7778 0.6111 0.0000
1.8333 0.5833 0.0000
1.8333 0.6389 0.0000
1.7778 0.7222 0.0000
1.8333 0.6944 0.0000
1.8333 0.7500 0.0000
1.7778 0.8333 0.0000
1.8333 0.8056 0.0000
1.8333 0.8611 0.0000
1.7778 0.9444 0.0000
1.8333 0.9167 0.0000
1.8333 0.9722 0.0000
0.1111 0.1111 0.0000
0.1667 0.0833 0.0000
0.1111 0.2222 0.0000
0.1667 0.1944 0.0000
0.1111 0.3333 0.0000
0.1667 0.3056 0.0000
0.1111 0.4444 0.0000
0.1667 0.4167 0.0000
0.1111 0.5556 0.0000
0.1667 0.5278 0.0000
0.1111 0.6667 0.0000
0.1667 0.6389 0.0000
0.1111 0.7778 0.0000
0.1667 0.7500 0.0000
0.1111 0.8889 0.0000
0.1667 0.8611 0.0000
0.1111 1.0000 0.0000
0.1667 0.9722 0.0000
0.3333 0.1111 0.0000
0.3889 0.0833 0.0000
0.3333 0.2222 0.0000
0.3889 0.1944 0.0000
0.3333 0.3333 0.0000
0.3889 0.3056 0.0000
0.3333 0.4444 0.0000
0.3889 0.4167 0.0000
0.3333 0.5556 0.0000
0.3889 0.5278 0.0000
0.3333 0.6667 0.0000
0.3889 0.6389 0.0000
0.3333 0.7778 0.0000
0.3889 0.7500 0.0000
0.3333 0.8889 0.0000
0.3889 0.8611 0.0000
0.3333 1.0000 0.0000
0.3889 0.9722 0.0000
0.5556 0.1111 0.0000
[...]
         <PointData>
            <DataArray Name="fValues" NumberOfComponents="3" format="ascii" type="Float64">
       00000 -1.19508e-18        00000 
 1.48303e-18  1.06392e-18        00000 
 5.96438e-19  8.22039e-20        00000 
 1.28431e-19  3.21077e-20        00000 
-6.15958e-19  2.04983e-19        00000 
       00000 -5.81952e-20        00000 
 3.78105e-19 -4.02909e-20        00000 
-4.49101e-19 -8.01966e-19        00000 
-1.80587e-18  1.03192e-18        00000 
-1.19508e-18 -3.58525e-18        00000 
-7.18468e-02 -4.98081e-02        00000 
-5.04178e-02 -3.66937e-02        00000 
-3.46984e-02 -2.68062e-02        00000 
-2.12850e-02 -2.02467e-02        00000 
-9.01664e-03 -1.66971e-02        00000 
 2.53470e-03 -1.59170e-02        00000 
 1.42606e-02 -1.76622e-02        00000 
 2.69431e-02 -2.21132e-02        00000 
 4.14528e-02 -2.98323e-02        00000 
 5.94387e-02 -4.08267e-02        00000 
-1.33637e-01 -1.05532e-01        00000 
-1.02677e-01 -9.31045e-02        00000 
-7.37867e-02 -8.31250e-02        00000 
-4.69398e-02 -7.56874e-02        00000 
-2.14770e-02 -7.09714e-02        00000 
 3.07796e-03 -6.88976e-02        00000 
 2.81303e-02 -6.99260e-02        00000 
 5.46381e-02 -7.36411e-02        00000 
 8.28846e-02 -8.04784e-02        00000 
 1.13761e-01 -9.03940e-02        00000 
-1.94058e-01 -1.84624e-01        00000 
-1.49773e-01 -1.73645e-01        00000 
-1.09182e-01 -1.64964e-01        00000 
-7.14220e-02 -1.58483e-01        00000 
-3.48993e-02 -1.54223e-01        00000 
 1.43485e-03 -1.51889e-01        00000 
 3.86598e-02 -1.51951e-01        00000 
 7.75025e-02 -1.54422e-01        00000 
 1.18600e-01 -1.59687e-01        00000 
 1.63065e-01 -1.67844e-01        00000 
-2.47077e-01 -2.88984e-01        00000 
-1.92439e-01 -2.79310e-01        00000 
-1.41773e-01 -2.71569e-01        00000 
-9.38280e-02 -2.65509e-01        00000 
-4.74282e-02 -2.61402e-01        00000 
-1.12891e-03 -2.59056e-01        00000 
 4.64021e-02 -2.58820e-01        00000 
 9.61002e-02 -2.60707e-01        00000 
 1.48295e-01 -2.64991e-01        00000 
 2.04285e-01 -2.71890e-01        00000 
-2.92306e-01 -4.13818e-01        00000 
-2.28740e-01 -4.05679e-01        00000 
-1.69040e-01 -3.99107e-01        00000 
-1.12507e-01 -3.94360e-01        00000 
-5.78313e-02 -3.91309e-01        00000 
-3.32896e-03 -3.89599e-01        00000 
 5.23699e-02 -3.89483e-01        00000 
 1.10499e-01 -3.90985e-01        00000 
 1.71956e-01 -3.94542e-01        00000 
 2.38307e-01 -4.00146e-01        00000 
-3.27804e-01 -5.53910e-01        00000 
-2.57249e-01 -5.47594e-01        00000 
-1.90732e-01 -5.42713e-01        00000 
-1.27415e-01 -5.38965e-01        00000 
-6.65277e-02 -5.36622e-01        00000 
-5.67031e-03 -5.35415e-01        00000 
 5.61727e-02 -5.35575e-01        00000 
 1.20620e-01 -5.36911e-01        00000 
 1.88429e-01 -5.39413e-01        00000 
 2.60712e-01 -5.43020e-01        00000 
-3.53953e-01 -7.04402e-01        00000 
-2.78397e-01 -7.00209e-01        00000 
-2.06740e-01 -6.97081e-01        00000 
-1.38710e-01 -6.94971e-01        00000 
-7.30509e-02 -6.93701e-01        00000 
-7.52482e-03 -6.93016e-01        00000 
 5.89942e-02 -6.93115e-01        00000 
 1.27513e-01 -6.94079e-01        00000 
 1.99513e-01 -6.95691e-01        00000 
 2.76825e-01 -6.98118e-01        00000 
-3.71149e-01 -8.64291e-01        00000 
-2.90999e-01 -8.61917e-01        00000 
-2.15550e-01 -8.60587e-01        00000 
-1.45115e-01 -8.59513e-01        00000 
-7.73233e-02 -8.58704e-01        00000 
-9.77741e-03 -8.58236e-01        00000 
 5.92381e-02 -8.57932e-01        00000 
 1.30669e-01 -8.58162e-01        00000 
 2.05910e-01 -8.58949e-01        00000 
 2.86425e-01 -8.60392e-01        00000 
-3.80722e-01 -1.03577e+00        00000 
-2.96766e-01 -1.03162e+00        00000 
-2.19468e-01 -1.02586e+00        00000 
-1.48451e-01 -1.02095e+00        00000 
-7.97184e-02 -1.01883e+00        00000 
-1.11378e-02 -1.01927e+00        00000 
 5.86750e-02 -1.02188e+00        00000 
 1.31675e-01 -1.02599e+00        00000 
 2.09031e-01 -1.03178e+00        00000 
 2.95441e-01 -1.03666e+00        00000 
-2.91160e-02 -2.05992e-02        00000 
-1.94869e-02 -1.11922e-02        00000 
-1.28198e-02 -6.20750e-03        00000 
-6.87431e-03 -3.57579e-03        00000 
-1.40034e-03 -2.62928e-03        00000 
 3.88187e-03 -3.00902e-03        00000 
 9.47544e-03 -4.97641e-03        00000 
 1.57434e-02 -9.42705e-03        00000 
 2.40658e-02 -1.74893e-02        00000 
-8.95831e-02 -6.93481e-02        00000 
-6.52287e-02 -5.71447e-02        00000 
-4.40422e-02 -4.79082e-02        00000 
-2.43236e-02 -4.17432e-02        00000 
-5.80938e-03 -3.86049e-02        00000 
 1.22343e-02 -3.84876e-02        00000 
 3.11468e-02 -4.13906e-02        00000 
 5.17763e-02 -4.74468e-02        00000 
 7.45074e-02 -5.65552e-02        00000 
-1.45335e-01 -1.35478e-01        00000 
-1.08936e-01 -1.25013e-01        00000 
-7.55007e-02 -1.17132e-01        00000 
-4.37924e-02 -1.11441e-01        00000 
-1.28026e-02 -1.08029e-01        00000 
 1.79309e-02 -1.07057e-01        00000 
 4.98673e-02 -1.08805e-01        00000 
 8.38762e-02 -1.13587e-01        00000 
 1.20107e-01 -1.21212e-01        00000 
-1.96140e-01 -2.29147e-01        00000 
-1.48567e-01 -2.19453e-01        00000 
-1.04408e-01 -2.12052e-01        00000 
-6.22217e-02 -2.06702e-01        00000 
-2.06896e-02 -2.03469e-01        00000 
 2.10633e-02 -2.02190e-01        00000 
 6.44728e-02 -2.03193e-01        00000 
 1.10338e-01 -2.06854e-01        00000 
 1.58895e-01 -2.13093e-01        00000 
-2.40711e-01 -3.44751e-01        00000 
-1.83385e-01 -3.36541e-01        00000 
-1.29741e-01 -3.30142e-01        00000 
-7.83285e-02 -3.25504e-01        00000 
-2.76681e-02 -3.22605e-01        00000 
 2.33101e-02 -3.21496e-01        00000 
 7.61877e-02 -3.22221e-01        00000 
 1.31945e-01 -3.24785e-01        00000 
 1.91156e-01 -3.29567e-01        00000 
-2.77059e-01 -4.77889e-01        00000 
-2.11858e-01 -4.71759e-01        00000 
-1.50222e-01 -4.67086e-01        00000 
-9.11854e-02 -4.63764e-01        00000 
-3.33897e-02 -4.61792e-01        00000 
 2.47223e-02 -4.61123e-01        00000 
 8.47649e-02 -4.61898e-01        00000 
 1.48081e-01 -4.64109e-01        00000 
 2.15274e-01 -4.67716e-01        00000 
-3.04826e-01 -6.24965e-01        00000 
-2.33658e-01 -6.20343e-01        00000 
-1.66356e-01 -6.16928e-01        00000 
-1.01730e-01 -6.14376e-01        00000 
-3.85446e-02 -6.12835e-01        00000 
 2.52777e-02 -6.12498e-01        00000 
 9.04729e-02 -6.13299e-01        00000 
 1.58879e-01 -6.14851e-01        00000 
 2.31312e-01 -6.17079e-01        00000 
-3.24236e-01 -7.81901e-01        00000 
-2.48440e-01 -7.79363e-01        00000 
-1.76968e-01 -7.77790e-01        00000 
-1.08814e-01 -7.76542e-01        00000 
-4.21398e-02 -7.75779e-01        00000 
 2.51957e-02 -7.75434e-01        00000 
 9.41223e-02 -7.75590e-01        00000 
 1.65954e-01 -7.76294e-01        00000 
 2.42024e-01 -7.77773e-01        00000 
-3.35100e-01 -9.46233e-01        00000 
-2.55257e-01 -9.44200e-01        00000 
-1.81858e-01 -9.42216e-01        00000 
-1.12850e-01 -9.40618e-01        00000 
-4.50612e-02 -9.39997e-01        00000 
 2.33129e-02 -9.40120e-01        00000 
 9.39713e-02 -9.40856e-01        00000 
 1.68232e-01 -9.42112e-01        00000 
 2.48319e-01 -9.43461e-01        00000 
-1.79840e-18 -2.23178e-18        00000 
-1.56751e-02 -1.09364e-02        00000 
-1.21763e-02 -7.34282e-03        00000 
 3.31583e-18  1.44997e-18        00000 
-1.00131e-02 -4.88171e-03        00000 
-8.26865e-03 -3.20630e-03        00000 
-1.46367e-18 -4.87891e-19        00000 
-6.82805e-03 -2.01569e-03        00000 
-5.40820e-03 -1.04938e-03        00000 
-8.73122e-19 -3.08603e-19        00000 
-3.94616e-03 -4.80516e-04        00000 
-2.59911e-03 -1.02448e-04        00000 
-2.43945e-19  2.02017e-19        00000 
-1.27889e-03  8.50989e-05        00000 
-3.65727e-05  1.19490e-04        00000 
 3.02901e-19 -1.53374e-19        00000 
 1.21533e-03  6.05399e-05        00000 
 2.47871e-03 -2.54627e-04        00000 
-1.70762e-18 -6.40357e-19        00000 
 3.78084e-03 -7.60393e-04        00000 
 5.16333e-03 -1.59155e-03        00000 
 2.92735e-18  4.87891e-19        00000 
 6.64211e-03 -2.65919e-03        00000 
 8.26096e-03 -4.16103e-03        00000 
-1.20042e-18  1.08634e-18        00000 
 1.00584e-02 -6.31791e-03        00000 
 1.28671e-02 -9.39762e-03        00000 
-6.05414e-02 -4.29998e-02        00000 
-8.13669e-02 -5.93048e-02        00000 
-6.92978e-02 -5.25502e-02        00000 
-4.22301e-02 -3.12911e-02        00000 
-5.85871e-02 -4.64180e-02        00000 
-4.90621e-02 -4.12511e-02        00000 
-2.78678e-02 -2.31272e-02        00000 
-4.01635e-02 -3.68122e-02        00000 
-3.17608e-02 -3.31568e-02        00000 
-1.52287e-02 -1.81487e-02        00000 
-2.36232e-02 -3.02731e-02        00000 
-1.57888e-02 -2.82514e-02        00000 
-3.25968e-03 -1.60267e-02        00000 
-8.05326e-03 -2.68667e-02        00000 
-8.49755e-04 -2.63326e-02        00000 
 8.27835e-03 -1.65201e-02        00000 
 6.57820e-03 -2.63463e-02        00000 
 1.40335e-02 -2.71928e-02        00000 
 2.03907e-02 -1.95007e-02        00000 
 2.18657e-02 -2.85357e-02        00000 
 2.98893e-02 -3.08363e-02        00000 
 3.37968e-02 -2.55391e-02        00000 
 3.84454e-02 -3.38516e-02        00000 
 4.74939e-02 -3.78112e-02        00000 
 5.01207e-02 -3.50997e-02        00000 
 5.73633e-02 -4.26792e-02        00000 
 6.76557e-02 -4.82423e-02        00000 
-1.17979e-01 -9.91589e-02        00000 
-1.40559e-01 -1.19928e-01        00000 
-1.23262e-01 -1.13581e-01        00000 
-8.79570e-02 -8.78276e-02        00000 
-1.06596e-01 -1.08119e-01        00000 
-9.06707e-02 -1.03338e-01        00000 
-6.01924e-02 -7.91491e-02        00000 
-7.53817e-02 -9.92347e-02        00000 
-6.05522e-02 -9.57726e-02        00000 
-3.41382e-02 -7.30476e-02        00000 
-4.61096e-02 -9.28677e-02        00000 
-3.18511e-02 -9.04564e-02        00000 
-9.14598e-03 -6.96552e-02        00000 
-1.77521e-02 -8.86496e-02        00000 
-3.99811e-03 -8.75708e-02        00000 
 1.55000e-02 -6.90802e-02        00000 
 9.81482e-03 -8.72206e-02        00000 
 2.38588e-02 -8.75697e-02        00000 
 4.11702e-02 -7.14669e-02        00000 
 3.82885e-02 -8.84945e-02        00000 
 5.31364e-02 -9.01853e-02        00000 
 6.85040e-02 -7.67164e-02        00000 
 6.84807e-02 -9.27085e-02        00000 
 8.43991e-02 -9.60142e-02        00000 
 9.78438e-02 -8.51143e-02        00000 
 1.00812e-01 -1.00223e-01        00000 
 1.17764e-01 -1.05208e-01        00000 
-1.71430e-01 -1.78766e-01        00000 
-1.95860e-01 -2.06168e-01        00000 
-1.72260e-01 -2.00770e-01        00000 
-1.29136e-01 -1.69057e-01        00000 
-1.49715e-01 -1.95722e-01        00000 
-1.28325e-01 -1.91492e-01        00000 
-9.01181e-02 -1.61445e-01        00000 
-1.07479e-01 -1.87648e-01        00000 
-8.73509e-02 -1.84526e-01        00000 
-5.32182e-02 -1.56145e-01        00000 
-6.75739e-02 -1.81888e-01        00000 
-4.80415e-02 -1.79769e-01        00000 
-1.67630e-02 -1.52859e-01        00000 
-2.84756e-02 -1.78010e-01        00000 
-9.07606e-03 -1.76947e-01        00000 
 1.98640e-02 -1.51653e-01        00000 
 1.05089e-02 -1.76312e-01        00000 
 3.03622e-02 -1.76335e-01        00000 
 5.77788e-02 -1.52870e-01        00000 
 5.07801e-02 -1.76720e-01        00000 
 7.16031e-02 -1.77857e-01        00000 
 9.76478e-02 -1.56701e-01        00000 
 9.30667e-02 -1.79665e-01        00000 
 1.15233e-01 -1.82336e-01        00000 
 1.40344e-01 -1.63381e-01        00000 
 1.38086e-01 -1.85796e-01        00000 
 1.61712e-01 -1.89843e-01        00000 
-2.19328e-01 -2.83944e-01        00000 
-2.44721e-01 -3.16313e-01        00000 
-2.16018e-01 -3.11375e-01        00000 
-1.66761e-01 -2.75280e-01        00000 
-1.88597e-01 -3.07144e-01        00000 
-1.62102e-01 -3.03406e-01        00000 
-1.17660e-01 -2.68391e-01        00000 
-1.36508e-01 -3.00111e-01        00000 
-1.11432e-01 -2.97241e-01        00000 
-7.06903e-02 -2.63367e-01        00000 
-8.68854e-02 -2.94889e-01        00000 
-6.24838e-02 -2.92831e-01        00000 
-2.43810e-02 -2.60120e-01        00000 
-3.82027e-02 -2.91237e-01        00000 
-1.40138e-02 -2.90131e-01        00000 
 2.23313e-02 -2.58778e-01        00000 
 1.04090e-02 -2.89518e-01        00000 
 3.52020e-02 -2.89437e-01        00000 
 7.08698e-02 -2.59547e-01        00000 
 6.06847e-02 -2.89689e-01        00000 
 8.66984e-02 -2.90486e-01        00000 
 1.21745e-01 -2.62606e-01        00000 
 1.13440e-01 -2.91849e-01        00000 
 1.40850e-01 -2.93878e-01        00000 
 1.75700e-01 -2.68170e-01        00000 
 1.69144e-01 -2.96684e-01        00000 
 1.98424e-01 -3.00101e-01        00000 
-2.60091e-01 -4.09695e-01        00000 
-2.85432e-01 -4.45417e-01        00000 
-2.52710e-01 -4.41397e-01        00000 
-1.98564e-01 -4.02222e-01        00000 
-2.20967e-01 -4.37982e-01        00000 
-1.90168e-01 -4.34938e-01        00000 
-1.40550e-01 -3.96595e-01        00000 
-1.60267e-01 -4.32385e-01        00000 
-1.31028e-01 -4.30239e-01        00000 
-8.51353e-02 -3.92775e-01        00000 
-1.02480e-01 -4.28550e-01        00000 
-7.42330e-02 -4.27081e-01        00000 
-3.06679e-02 -3.90369e-01        00000 
-4.61094e-02 -4.25988e-01        00000 
-1.80057e-02 -4.25242e-01        00000 
 2.42258e-02 -3.89394e-01        00000 
 1.02030e-02 -4.24909e-01        00000 
 3.87633e-02 -4.24954e-01        00000 
 8.09916e-02 -3.90007e-01        00000 
 6.81175e-02 -4.25253e-01        00000 
 9.80022e-02 -4.25953e-01        00000 
 1.40592e-01 -3.92515e-01        00000 
 1.28812e-01 -4.27080e-01        00000 
 1.60498e-01 -4.28802e-01        00000 
 2.04305e-01 -3.97189e-01        00000 
 1.93360e-01 -4.31065e-01        00000 
 2.27195e-01 -4.33570e-01        00000 
-2.91933e-01 -5.50587e-01        00000 
-3.16747e-01 -5.89117e-01        00000 
-2.80823e-01 -5.86111e-01        00000 
-2.23705e-01 -5.45066e-01        00000 
-2.45952e-01 -5.83566e-01        00000 
-2.12145e-01 -5.81382e-01        00000 
-1.58800e-01 -5.40708e-01        00000 
-1.78994e-01 -5.79371e-01        00000 
-1.46703e-01 -5.77717e-01        00000 
-9.68350e-02 -5.37727e-01        00000 
-1.15073e-01 -5.76356e-01        00000 
-8.39794e-02 -5.75201e-01        00000 
-3.62852e-02 -5.35922e-01        00000 
-5.30474e-02 -5.74289e-01        00000 
-2.19453e-02 -5.73730e-01        00000 
 2.49915e-02 -5.35371e-01        00000 
 9.33392e-03 -5.73570e-01        00000 
 4.08407e-02 -5.73724e-01        00000 
 8.79087e-02 -5.36099e-01        00000 
 7.29225e-02 -5.74083e-01        00000 
 1.05689e-01 -5.74720e-01        00000 
 1.53922e-01 -5.38094e-01        00000 
 1.39316e-01 -5.75479e-01        00000 
 1.73924e-01 -5.76641e-01        00000 
 2.23958e-01 -5.41030e-01        00000 
 2.09587e-01 -5.78004e-01        00000 
 2.46321e-01 -5.79727e-01        00000 
-3.15649e-01 -7.02184e-01        00000 
-3.39539e-01 -7.42843e-01        00000 
-3.01187e-01 -7.40985e-01        00000 
-2.42206e-01 -6.98551e-01        00000 
-2.63895e-01 -7.39438e-01        00000 
-2.27722e-01 -7.38238e-01        00000 
-1.72521e-01 -6.95955e-01        00000 
-1.92283e-01 -7.37098e-01        00000 
-1.57937e-01 -7.36362e-01        00000 
-1.05832e-01 -6.94255e-01        00000 
-1.24137e-01 -7.35555e-01        00000 
-9.10401e-02 -7.35032e-01        00000 
-4.05194e-02 -6.93292e-01        00000 
-5.79141e-02 -7.34475e-01        00000 
-2.48901e-02 -7.34160e-01        00000 
 2.54866e-02 -6.92922e-01        00000 
 8.53966e-03 -7.34038e-01        00000 
 4.21038e-02 -7.34140e-01        00000 
 9.28061e-02 -6.93524e-01        00000 
 7.63225e-02 -7.34242e-01        00000 
 1.10918e-01 -7.34586e-01        00000 
 1.62913e-01 -6.94739e-01        00000 
 1.46423e-01 -7.35018e-01        00000 
 1.82788e-01 -7.35822e-01        00000 
 2.37382e-01 -6.96783e-01        00000 
 2.20536e-01 -7.36741e-01        00000 
 2.59498e-01 -7.37731e-01        00000 
-3.30674e-01 -8.62991e-01        00000 
-3.53696e-01 -9.04793e-01        00000 
-3.12850e-01 -9.03773e-01        00000 
-2.52641e-01 -8.61152e-01        00000 
-2.73217e-01 -9.02803e-01        00000 
-2.35254e-01 -9.02051e-01        00000 
-1.79979e-01 -8.60000e-01        00000 
-1.98707e-01 -9.01293e-01        00000 
-1.63505e-01 -9.00727e-01        00000 
-1.11238e-01 -8.58995e-01        00000 
-1.29108e-01 -9.00027e-01        00000 
-9.51455e-02 -8.99679e-01        00000 
-4.38404e-02 -8.58312e-01        00000 
-6.13325e-02 -8.99231e-01        00000 
-2.76219e-02 -8.99115e-01        00000 
 2.43346e-02 -8.58020e-01        00000 
 6.55548e-03 -8.99047e-01        00000 
 4.10983e-02 -8.98999e-01        00000 
 9.43349e-02 -8.57963e-01        00000 
 7.62426e-02 -8.98981e-01        00000 
 1.12267e-01 -8.99185e-01        00000 
 1.67527e-01 -8.58523e-01        00000 
 1.49140e-01 -8.99503e-01        00000 
 1.87143e-01 -9.00103e-01        00000 
 2.45623e-01 -8.59431e-01        00000 
 2.26609e-01 -9.00600e-01        00000 
 2.68038e-01 -9.01475e-01        00000 
-2.35553e-02 -1.51095e-02        00000 
-4.08138e-02 -2.82855e-02        00000 
-1.59704e-02 -8.37013e-03        00000 
-2.78057e-02 -1.82422e-02        00000 
-9.76541e-03 -4.74394e-03        00000 
-1.77037e-02 -1.21882e-02        00000 
-4.09637e-03 -2.94576e-03        00000 
-8.64497e-03 -8.81200e-03        00000 
 1.19293e-03 -2.65442e-03        00000 
-2.56729e-04 -7.78133e-03        00000 
 6.63627e-03 -3.75126e-03        00000 
 8.20979e-03 -8.82019e-03        00000 
 1.24518e-02 -6.87875e-03        00000 
 1.72544e-02 -1.22995e-02        00000 
 1.94284e-02 -1.27778e-02        00000 
 2.73617e-02 -1.87126e-02        00000 
 3.22014e-02 -2.43908e-02        00000 
 4.17037e-02 -2.93301e-02        00000 
-7.68969e-02 -6.29191e-02        00000 
-9.68146e-02 -8.04590e-02        00000 
-5.43557e-02 -5.20916e-02        00000 
-7.03711e-02 -6.89127e-02        00000 
-3.40380e-02 -4.44248e-02        00000 
-4.62661e-02 -6.04835e-02        00000 
-1.48839e-02 -3.97668e-02        00000 
-2.36010e-02 -5.48554e-02        00000 
 3.07445e-03 -3.81591e-02        00000 
-2.07943e-03 -5.22914e-02        00000 
 2.14969e-02 -3.95278e-02        00000 
 1.94484e-02 -5.27793e-02        00000 
 4.11517e-02 -4.40585e-02        00000 
 4.21684e-02 -5.64003e-02        00000 
 6.28060e-02 -5.16632e-02        00000 
 6.65820e-02 -6.29650e-02        00000 
 8.63917e-02 -6.21249e-02        00000 
 9.31542e-02 -7.28059e-02        00000 
-1.26729e-01 -1.29971e-01        00000 
-1.48411e-01 -1.53723e-01        00000 
-9.19025e-02 -1.20806e-01        00000 
-1.09898e-01 -1.43985e-01        00000 
-5.95630e-02 -1.14122e-01        00000 
-7.42489e-02 -1.36782e-01        00000 
-2.82313e-02 -1.09483e-01        00000 
-4.01518e-02 -1.31788e-01        00000 
 2.37385e-03 -1.07233e-01        00000 
-6.54863e-03 -1.28968e-01        00000 
 3.36798e-02 -1.07602e-01        00000 
 2.75579e-02 -1.28477e-01        00000 
 6.65374e-02 -1.10863e-01        00000 
 6.30093e-02 -1.30829e-01        00000 
 1.01684e-01 -1.17031e-01        00000 
 1.00496e-01 -1.35830e-01        00000 
 1.38946e-01 -1.26386e-01        00000 
 1.40857e-01 -1.43881e-01        00000 
-1.71764e-01 -2.24017e-01        00000 
-1.94986e-01 -2.53520e-01        00000 
-1.26245e-01 -2.15502e-01        00000 
-1.45873e-01 -2.44551e-01        00000 
-8.31932e-02 -2.09123e-01        00000 
-9.97785e-02 -2.37738e-01        00000 
-4.14984e-02 -2.04805e-01        00000 
-5.54017e-02 -2.32923e-01        00000 
-7.10228e-05 -2.02510e-01        00000 
-1.15695e-02 -2.30145e-01        00000 
 4.24561e-02 -2.02329e-01        00000 
 3.31548e-02 -2.29419e-01        00000 
 8.70226e-02 -2.04666e-01        00000 
 7.97489e-02 -2.31119e-01        00000 
 1.34229e-01 -2.09646e-01        00000 
 1.28752e-01 -2.35241e-01        00000 
 1.84247e-01 -2.17172e-01        00000 
 1.80879e-01 -2.41966e-01        00000 
-2.11382e-01 -3.40377e-01        00000 