<?xml version="1.0" encoding="utf-8"?>
<VTKFile byte_order="LittleEndian" type="UnstructuredGrid" version="0.1">
   <UnstructuredGrid>
      <Piece NumberOfCells="1296" NumberOfPoints="685">
         <Points>
            <DataArray Name="Points" NumberOfComponents="3" format="ascii" type="Float32">
0.0000 0.0000 0.0000
0.0000 0.1111 0.0000
0.0000 0.2222 0.0000
0.0000 0.3333 0.0000
0.0000 0.4444 0.0000
0.0000 0.5556 0.0000
0.0000 0.6667 0.0000
0.0000 0.7778 0.0000
0.0000 0.8889 0.0000
0.0000 1.0000 0.0000
0.2222 0.0000 0.0000
0.2222 0.1111 0.0000
0.2222 0.2222 0.0000
0.2222 0.3333 0.0000
0.2222 0.4444 0.0000
0.2222 0.5556 0.0000
0.2222 0.6667 0.0000
0.2222 0.7778 0.0000
0.2222 0.8889 0.0000
0.2222 1.0000 0.0000
0.4444 0.0000 0.0000
0.4444 0.1111 0.0000
0.4444 0.2222 0.0000
0.4444 0.3333 0.0000
0.4444 0.4444 0.0000
0.4444 0.5556 0.0000
0.4444 0.6667 0.0000
0.4444 0.7778 0.0000
0.4444 0.8889 0.0000
0.4444 1.0000 0.0000
0.6667 0.0000 0.0000
0.6667 0.1111 0.0000
0.6667 0.2222 0.0000
0.6667 0.3333 0.0000
0.6667 0.4444 0.0000
0.6667 0.5556 0.0000
0.6667 0.6667 0.0000
0.6667 0.7778 0.0000
0.6667 0.8889 0.0000
0.6667 1.0000 0.0000
0.8889 0.0000 0.0000
0.8889 0.1111 0.0000
0.8889 0.2222 0.0000
0.8889 0.3333 0.0000
0.8889 0.4444 0.0000
0.8889 0.5556 0.0000
0.8889 0.6667 0.0000
0.8889 0.7778 0.0000
0.8889 0.8889 0.0000
0.8889 1.0000 0.0000
1.1111 0.0000 0.0000
1.1111 0.1111 0.0000
1.1111 0.2222 0.0000
1.1111 0.3333 0.0000
1.1111 0.4444 0.0000
1.1111 0.5556 0.0000
1.1111 0.6667 0.0000
1.1111 0.7778 0.0000
1.1111 0.8889 0.0000
1.1111 1.0000 0.0000
1.3333 0.0000 0.0000
1.3333 0.1111 0.0000
1.3333 0.2222 0.0000
1.3333 0.3333 0.0000
1.3333 0.4444 0.0000
1.3333 0.5556 0.0000
1.3333 0.6667 0.0000
1.3333 0.7778 0.0000
1.3333 0.8889 0.0000
1.3333 1.0000 0.0000
1.5556 0.0000 0.0000
1.5556 0.1111 0.0000
1.5556 0.2222 0.0000
1.5556 0.3333 0.0000
1.5556 0.4444 0.0000
1.5556 0.5556 0.0000
1.5556 0.6667 0.0000
1.5556 0.7778 0.0000
1.5556 0.8889 0.0000
1.5556 1.0000 0.0000
1.7778 0.0000 0.0000
1.7778 0.1111 0.0000
1.7778 0.2222 0.0000
1.7778 0.3333 0.0000
1.7778 0.4444 0.0000
1.7778 0.5556 0.0000
1.7778 0.6667 0.0000
1.7778 0.7778 0.0000
1.7778 0.8889 0.0000
1.7778 1.0000 0.0000
2.0000 0.0000 0.0000
2.0000 0.1111 0.0000
2.0000 0.2222 0.0000
2.0000 0.3333 0.0000
2.0000 0.4444 0.0000
2.0000 0.5556 0.0000
2.0000 0.6667 0.0000
2.0000 0.7778 0.0000
2.0000 0.8889 0.0000
2.0000 1.0000 0.0000
0.1111 0.0556 0.0000
0.1111 0.1667 0.0000
0.1111 0.2778 0.0000
0.1111 0.3889 0.0000
0.1111 0.5000 0.0000
0.1111 0.6111 0.0000
0.1111 0.7222 0.0000
0.1111 0.8333 0.0000
0.1111 0.9444 0.0000
0.3333 0.0556 0.0000
0.3333 0.1667 0.0000
0.3333 0.2778 0.0000
0.3333 0.3889 0.0000
0.3333 0.5000 0.0000
0.3333 0.6111 0.0000
0.3333 0.7222 0.0000
0.3333 0.8333 0.0000
0.3333 0.9444 0.0000
0.5556 0.0556 0.0000
0.5556 0.1667 0.0000
0.5556 0.2778 0.0000
0.5556 0.3889 0.0000
0.5556 0.5000 0.0000
0.5556 0.6111 0.0000
0.5556 0.7222 0.0000
0.5556 0.8333 0.0000
0.5556 0.9444 0.0000
0.7778 0.0556 0.0000
0.7778 0.1667 0.0000
0.7778 0.2778 0.0000
0.7778 0.3889 0.0000
0.7778 0.5000 0.0000
0.7778 0.6111 0.0000
0.7778 0.7222 0.0000
0.7778 0.8333 0.0000
0.7778 0.9444 0.0000
1.0000 0.0556 0.0000
1.0000 0.1667 0.0000
1.0000 0.2778 0.0000
1.0000 0.3889 0.0000
1.0000 0.5000 0.0000
1.0000 0.6111 0.0000
1.0000 0.7222 0.0000
1.0000 0.8333 0.0000
1.0000 0.9444 0.0000
1.2222 0.0556 0.0000
1.2222 0.1667 0.0000
1.2222 0.2778 0.0000
1.2222 0.3889 0.0000
1.2222 0.5000 0.0000
1.2222 0.6111 0.0000
1.2222 0.7222 0.0000
1.2222 0.8333 0.0000
1.2222 0.9444 0.0000
1.4444 0.0556 0.0000
1.4444 0.1667 0.0000
1.4444 0.2778 0.0000
1.4444 0.3889 0.0000
1.4444 0.5000 0.0000
1.4444 0.6111 0.0000
1.4444 0.7222 0.0000
1.4444 0.8333 0.0000
1.4444 0.9444 0.0000
1.6667 0.0556 0.0000
1.6667 0.1667 0.0000
1.6667 0.2778 0.0000
1.6667 0.3889 0.0000
1.6667 0.5000 0.0000
1.6667 0.6111 0.0000
1.6667 0.7222 0.0000
1.6667 0.8333 0.0000
1.6667 0.9444 0.0000
1.8889 0.0556 0.0000
1.8889 0.1667 0.0000
1.8889 0.2778 0.0000
1.8889 0.3889 0.0000
1.8889 0.5000 0.0000
1.8889 0.6111 0.0000
1.8889 0.7222 0.0000
1.8889 0.8333 0.0000
1.8889 0.9444 0.0000
0.0000 0.0556 0.0000
0.0556 0.0278 0.0000
0.0556 0.0833 0.0000
0.0000 0.1667 0.0000
0.0556 0.1389 0.0000
0.0556 0.1944 0.0000
0.0000 0.2778 0.0000
0.0556 0.2500 0.0000
0.0556 0.3056 0.0000
0.0000 0.3889 0.0000
0.0556 0.3611 0.0000
0.0556 0.4167 0.0000
0.0000 0.5000 0.0000
0.0556 0.4722 0.0000
0.0556 0.5278 0.0000
0.0000 0.6111 0.0000
0.0556 0.5833 0.0000
0.0556 0.6389 0.0000
0.0000 0.7222 0.0000
0.0556 0.6944 0.0000
0.0556 0.7500 0.0000
0.0000 0.8333 0.0000
0.0556 0.8056 0.0000
0.0556 0.8611 0.0000
0.0000 0.9444 0.0000
0.0556 0.9167 0.0000
0.0556 0.9722 0.0000
0.2222 0.0556 0.0000
0.2778 0.0278 0.0000
0.2778 0.0833 0.0000
0.2222 0.1667 0.0000
0.2778 0.1389 0.0000
0.2778 0.1944 0.0000
0.2222 0.2778 0.0000
0.2778 0.2500 0.0000
0.2778 0.3056 0.0000
0.2222 0.3889 0.0000
0.2778 0.3611 0.0000
0.2778 0.4167 0.0000
0.2222 0.5000 0.0000
0.2778 0.4722 0.0000
0.2778 0.5278 0.0000
0.2222 0.6111 0.0000
0.2778 0.5833 0.0000
0.2778 0.6389 0.0000
0.2222 0.7222 0.0000
0.2778 0.6944 0.0000
0.2778 0.7500 0.0000
0.2222 0.8333 0.0000
0.2778 0.8056 0.0000
0.2778 0.8611 0.0000
0.2222 0.9444 0.0000
0.2778 0.9167 0.0000
0.2778 0.9722 0.0000
0.4444 0.0556 0.0000
0.5000 0.0278 0.0000
0.5000 0.0833 0.0000
0.4444 0.1667 0.0000
0.5000 0.1389 0.0000
0.5000 0.1944 0.0000
0.4444 0.2778 0.0000
0.5000 0.2500 0.0000
0.5000 0.3056 0.0000
0.4444 0.3889 0.0000
0.5000 0.3611 0.0000
0.5000 0.4167 0.0000
0.4444 0.5000 0.0000
0.5000 0.4722 0.0000
0.5000 0.5278 0.0000
0.4444 0.6111 0.0000
0.5000 0.5833 0.0000
0.5000 0.6389 0.0000
0.4444 0.7222 0.0000
0.5000 0.6944 0.0000
0.5000 0.7500 0.0000
0.4444 0.8333 0.0000
0.5000 0.8056 0.0000
0.5000 0.8611 0.0000
0.4444 0.9444 0.0000
0.5000 0.9167 0.0000
0.5000 0.9722 0.0000
0.6667 0.0556 0.0000
0.7222 0.0278 0.0000
0.7222 0.0833 0.0000
0.6667 0.1667 0.0000
0.7222 0.1389 0.0000
0.7222 0.1944 0.0000
0.6667 0.2778 0.0000
0.7222 0.2500 0.0000
0.7222 0.3056 0.0000
0.6667 0.3889 0.0000
0.7222 0.3611 0.0000
0.7222 0.4167 0.0000
0.6667 0.5000 0.0000
0.7222 0.4722 0.0000
0.7222 0.5278 0.0000
0.6667 0.6111 0.0000
0.7222 0.5833 0.0000
0.7222 0.6389 0.0000
0.6667 0.7222 0.0000
0.7222 0.6944 0.0000
0.7222 0.7500 0.0000
0.6667 0.8333 0.0000
0.7222 0.8056 0.0000
0.7222 0.8611 0.0000
0.6667 0.9444 0.0000
0.7222 0.9167 0.0000
0.7222 0.9722 0.0000
0.8889 0.0556 0.0000
0.9444 0.0278 0.0000
0.9444 0.0833 0.0000
0.8889 0.1667 0.0000
0.9444 0.1389 0.0000
0.9444 0.1944 0.0000
0.8889 0.2778 0.0000
0.9444 0.2500 0.0000
0.9444 0.3056 0.0000
0.8889 0.3889 0.0000
0.9444 0.3611 0.0000
0.9444 0.4167 0.0000
0.8889 0.5000 0.0000
0.9444 0.4722 0.0000
0.9444 0.5278 0.0000
0.8889 0.6111 0.0000
0.9444 0.5833 0.0000
0.9444 0.6389 0.0000
0.8889 0.7222 0.0000
0.9444 0.6944 0.0000
0.9444 0.7500 0.0000
0.8889 0.8333 0.0000
0.9444 0.8056 0.0000
0.9444 0.8611 0.0000
0.8889 0.9444 0.0000
0.9444 0.9167 0.0000
0.9444 0.9722 0.0000
1.1111 0.0556 0.0000
1.1667 0.0278 0.0000
1.1667 0.0833 0.0000
1.1111 0.1667 0.0000
1.1667 0.1389 0.0000
1.1667 0.1944 0.0000
1.1111 0.2778 0.0000
1.1667 0.2500 0.0000
1.1667 0.3056 0.0000
1.1111 0.3889 0.0000
1.1667 0.3611 0.0000
1.1667 0.4167 0.0000
1.1111 0.5000 0.0000
1.1667 0.4722 0.0000
1.1667 0.5278 0.0000
1.1111 0.6111 0.0000
1.1667 0.5833 0.0000
1.1667 0.6389 0.0000
1.1111 0.7222 0.0000
1.1667 0.6944 0.0000
1.1667 0.7500 0.0000
1.1111 0.8333 0.0000
1.1667 0.8056 0.0000
1.1667 0.8611 0.0000
1.1111 0.9444 0.0000
1.1667 0.9167 0.0000
1.1667 0.9722 0.0000
1.3333 0.0556 0.0000
1.3889 0.0278 0.0000
1.3889 0.0833 0.0000
1.3333 0.1667 0.0000
1.3889 0.1389 0.0000
1.3889 0.1944 0.0000
1.3333 0.2778 0.0000
1.3889 0.2500 0.0000
1.3889 0.3056 0.0000
1.3333 0.3889 0.0000
1.3889 0.3611 0.0000
1.3889 0.4167 0.0000
1.3333 0.5000 0.0000
1.3889 0.4722 0.0000
1.3889 0.5278 0.0000
1.3333 0.6111 0.0000
1.3889 0.5833 0.0000
1.3889 0.6389 0.0000
1.3333 0.7222 0.0000
1.3889 0.6944 0.0000
1.3889 0.7500 0.0000
1.3333 0.8333 0.0000
1.3889 0.8056 0.0000
1.3889 0.8611 0.0000
1.3333 0.9444 0.0000
1.3889 0.9167 0.0000
1.3889 0.9722 0.0000
1.5556 0.0556 0.0000
1.6111 0.0278 0.0000
1.6111 0.0833 0.0000
1.5556 0.1667 0.0000
1.6111 0.1389 0.0000
1.6111 0.1944 0.0000
1.5556 0.2778 0.0000
1.6111 0.2500 0.0000
1.6111 0.3056 0.0000
1.5556 0.3889 0.0000
1.6111 0.3611 0.0000
1.6111 0.4167 0.0000
1.5556 0.5000 0.0000
1.6111 0.4722 0.0000
1.6111 0.5278 0.0000
1.5556 0.6111 0.0000
1.6111 0.5833 0.0000
1.6111 0.6389 0.0000
1.5556 0.7222 0.0000
1.6111 0.6944 0.0000
1.6111 0.7500 0.0000
1.5556 0.8333 0.0000
1.6111 0.8056 0.0000
1.6111 0.8611 0.0000
1.5556 0.9444 0.0000
1.6111 0.9167 0.0000
1.6111 0.9722 0.0000
1.7778 0.0556 0.0000
1.8333 0.0278 0.0000
1.8333 0.0833 0.0000
1.7778 0.1667 0.0000
1.8333 0.1389 0.0000
1.8333 0.1944 0.0000
1.7778 0.2778 0.0000
1.8333 0.2500 0.0000
1.8333 0.3056 0.0000
1.7778 0.3889 0.0000
1.8333 0.3611 0.0000
1.8333 0.4167 0.0000
1.7778 0.5000 0.0000
1.8333 0.4722 0.0000
1.8333 0.5278 0.0000
1.7778 0.6111 0.0000
1.8333 0.5833 0.0000
1.8333 0.6389 0.0000
1.7778 0.7222 0.0000
1.8333 0.6944 0.0000
1.8333 0.7500 0.0000
1.7778 0.8333 0.0000
1.8333 0.8056 0.0000
1.8333 0.8611 0.0000
1.7778 0.9444 0.0000
1.8333 0.9167 0.0000
1.8333 0.9722 0.0000
0.1111 0.1111 0.0000
0.1667 0.0833 0.0000
0.1111 0.2222 0.0000
0.1667 0.1944 0.0000
0.1111 0.3333 0.0000
0.1667 0.3056 0.0000
0.1111 0.4444 0.0000
0.1667 0.4167 0.0000
0.1111 0.5556 0.0000
0.1667 0.5278 0.0000
0.1111 0.6667 0.0000
0.1667 0.6389 0.0000
0.1111 0.7778 0.0000
0.1667 0.7500 0.0000
0.1111 0.8889 0.0000
0.1667 0.8611 0.0000
0.1111 1.0000 0.0000
0.1667 0.9722 0.0000
0.3333 0.1111 0.0000
0.3889 0.0833 0.0000
0.3333 0.2222 0.0000
0.3889 0.1944 0.0000
0.3333 0.3333 0.0000
0.3889 0.3056 0.0000
0.3333 0.4444 0.0000
0.3889 0.4167 0.0000
0.3333 0.5556 0.0000
0.3889 0.5278 0.0000
0.3333 0.6667 0.0000
0.3889 0.6389 0.0000
0.3333 0.7778 0.0000
0.3889 0.7500 0.0000
0.3333 0.8889 0.0000
0.3889 0.8611 0.0000
0.3333 1.0000 0.0000
0.3889 0.9722 0.0000
0.5556 0.1111 0.0000
[...]
         <PointData>
            <DataArray Name="fValues" NumberOfComponents="3" format="ascii" type="Float64">
-3.58525e-18  1.19508e-18        00000 
 2.57919e-18  1.38632e-18        00000 
 4.96780e-19  1.83653e-18        00000 
-3.85292e-19 -1.15588e-18        00000 
-4.59828e-19  4.65368e-19        00000 
-1.92646e-19 -3.21077e-19        00000 
 1.17347e-18 -4.83490e-20        00000 
-1.86056e-18 -2.56629e-19        00000 
 3.61173e-18  2.06385e-18        00000 
 3.58525e-18 -3.58525e-18        00000 
-7.29229e-02 -5.54604e-02        00000 
-4.96181e-02 -4.26481e-02        00000 
-3.23485e-02 -3.36311e-02        00000 
-1.84445e-02 -2.84105e-02        00000 
-6.01086e-03 -2.60425e-02        00000 
 6.00141e-03 -2.60421e-02        00000 
 1.84352e-02 -2.84092e-02        00000 
 3.23392e-02 -3.36286e-02        00000 
 4.96086e-02 -4.26439e-02        00000 
 7.29129e-02 -5.54542e-02        00000 
-1.32723e-01 -1.17844e-01        00000 
-9.76786e-02 -1.06713e-01        00000 
-6.65999e-02 -9.80448e-02        00000 
-3.86779e-02 -9.22383e-02        00000 
-1.26868e-02 -8.93587e-02        00000 
 1.26687e-02 -8.93588e-02        00000 
 3.86595e-02 -9.22383e-02        00000 
 6.65809e-02 -9.80442e-02        00000 
 9.76597e-02 -1.06711e-01        00000 
 1.32706e-01 -1.17841e-01        00000 
-1.85509e-01 -2.03952e-01        00000 
-1.39031e-01 -1.94376e-01        00000 
-9.64286e-02 -1.86982e-01        00000 
-5.66820e-02 -1.81990e-01        00000 
-1.87021e-02 -1.79476e-01        00000 
 1.86794e-02 -1.79477e-01        00000 
 5.66587e-02 -1.81991e-01        00000 
 9.64040e-02 -1.86983e-01        00000 
 1.39005e-01 -1.94377e-01        00000 
 1.85483e-01 -2.03952e-01        00000 
-2.30449e-01 -3.11728e-01        00000 
-1.74027e-01 -3.03736e-01        00000 
-1.21509e-01 -2.97599e-01        00000 
-7.17838e-02 -2.93482e-01        00000 
-2.37475e-02 -2.91417e-01        00000 
 2.37222e-02 -2.91417e-01        00000 
 7.17574e-02 -2.93483e-01        00000 
 1.21481e-01 -2.97600e-01        00000 
 1.73996e-01 -3.03737e-01        00000 
 2.30416e-01 -3.11727e-01        00000 
-2.67272e-01 -4.37695e-01        00000 
-2.02672e-01 -4.31299e-01        00000 
-1.41979e-01 -4.26401e-01        00000 
-8.40722e-02 -4.23132e-01        00000 
-2.78459e-02 -4.21500e-01        00000 
 2.78175e-02 -4.21499e-01        00000 
 8.40428e-02 -4.23131e-01        00000 
 1.41947e-01 -4.26400e-01        00000 
 2.02637e-01 -4.31297e-01        00000 
 2.67234e-01 -4.37693e-01        00000 
-2.95946e-01 -5.78194e-01        00000 
-2.24962e-01 -5.73387e-01        00000 
-1.57850e-01 -5.69745e-01        00000 
-9.35567e-02 -5.67355e-01        00000 
-3.10000e-02 -5.66179e-01        00000 
 3.09682e-02 -5.66177e-01        00000 
 9.35242e-02 -5.67352e-01        00000 
 1.57816e-01 -5.69740e-01        00000 
 2.24926e-01 -5.73380e-01        00000 
 2.95908e-01 -5.78187e-01        00000 
-3.16670e-01 -7.29579e-01        00000 
-2.40919e-01 -7.26324e-01        00000 
-1.68964e-01 -7.24018e-01        00000 
-1.00059e-01 -7.22616e-01        00000 
-3.31375e-02 -7.21957e-01        00000 
 3.31005e-02 -7.21956e-01        00000 
 1.00022e-01 -7.22612e-01        00000 
 1.68928e-01 -7.24013e-01        00000 
 2.40883e-01 -7.26317e-01        00000 
 3.16636e-01 -7.29573e-01        00000 
-3.30439e-01 -8.88904e-01        00000 
-2.50449e-01 -8.87143e-01        00000 
-1.74928e-01 -8.86085e-01        00000 
-1.03355e-01 -8.85333e-01        00000 
-3.41980e-02 -8.84917e-01        00000 
 3.41570e-02 -8.84916e-01        00000 
 1.03316e-01 -8.85332e-01        00000 
 1.74891e-01 -8.86082e-01        00000 
 2.50414e-01 -8.87140e-01        00000 
 3.30406e-01 -8.88902e-01        00000 
-3.38923e-01 -1.06209e+00        00000 
-2.54418e-01 -1.05797e+00        00000 
-1.77686e-01 -1.05307e+00        00000 
-1.05107e-01 -1.04930e+00        00000 
-3.48042e-02 -1.04729e+00        00000 
 3.47624e-02 -1.04729e+00        00000 
 1.05068e-01 -1.04930e+00        00000 
 1.77649e-01 -1.05307e+00        00000 
 2.54384e-01 -1.05798e+00        00000 
 3.38891e-01 -1.06210e+00        00000 
-2.95103e-02 -2.36075e-02        00000 
-1.88356e-02 -1.44057e-02        00000 
-1.17185e-02 -9.94369e-03        00000 
-5.67017e-03 -7.81522e-03        00000 
-2.38099e-06 -7.17772e-03        00000 
 5.66542e-03 -7.81450e-03        00000 
 1.17139e-02 -9.94237e-03        00000 
 1.88311e-02 -1.44036e-02        00000 
 2.95055e-02 -2.36039e-02        00000 
-8.85462e-02 -7.75026e-02        00000 
-6.16985e-02 -6.68137e-02        00000 
-3.89703e-02 -5.92749e-02        00000 
-1.88879e-02 -5.49501e-02        00000 
-7.03304e-06 -5.35513e-02        00000 
 1.88739e-02 -5.49496e-02        00000 
 3.89561e-02 -5.92735e-02        00000 
 6.16840e-02 -6.68107e-02        00000 
 8.85321e-02 -7.74976e-02        00000 
-1.39066e-01 -1.52561e-01        00000 
-1.00206e-01 -1.43304e-01        00000 
-6.47764e-02 -1.36551e-01        00000 
-3.17715e-02 -1.32463e-01        00000 
-1.04406e-05 -1.31097e-01        00000 
 3.17504e-02 -1.32463e-01        00000 
 6.47545e-02 -1.36552e-01        00000 
 1.00183e-01 -1.43305e-01        00000 
 1.39044e-01 -1.52561e-01        00000 
-1.82594e-01 -2.50723e-01        00000 
-1.33018e-01 -2.42901e-01        00000 
-8.67868e-02 -2.37237e-01        00000 
-4.28240e-02 -2.33814e-01        00000 
-1.21385e-05 -2.32670e-01        00000 
 4.27994e-02 -2.33815e-01        00000 
 8.67611e-02 -2.37239e-01        00000 
 1.32991e-01 -2.42903e-01        00000 
 1.82565e-01 -2.50724e-01        00000 
-2.18947e-01 -3.68883e-01        00000 
-1.60313e-01 -3.62487e-01        00000 
-1.05017e-01 -3.57878e-01        00000 
-5.19543e-02 -3.55106e-01        00000 
-1.33696e-05 -3.54182e-01        00000 
 5.19269e-02 -3.55106e-01        00000 
 1.04988e-01 -3.57878e-01        00000 
 1.60282e-01 -3.62487e-01        00000 
 2.18912e-01 -3.68882e-01        00000 
-2.48055e-01 -5.03413e-01        00000 
-1.82135e-01 -4.98443e-01        00000 
-1.19551e-01 -4.94885e-01        00000 
-5.92148e-02 -4.92763e-01        00000 
-1.51025e-05 -4.92058e-01        00000 
 5.91844e-02 -4.92761e-01        00000 
 1.19519e-01 -4.94882e-01        00000 
 1.82101e-01 -4.98440e-01        00000 
 2.48017e-01 -5.03409e-01        00000 
-2.69959e-01 -6.50621e-01        00000 
-1.98456e-01 -6.47089e-01        00000 
-1.30314e-01 -6.44649e-01        00000 
-6.45468e-02 -6.43244e-01        00000 
-1.71127e-05 -6.42786e-01        00000 
 6.45124e-02 -6.43241e-01        00000 
 1.30279e-01 -6.44643e-01        00000 
 1.98421e-01 -6.47083e-01        00000 
 2.69922e-01 -6.50613e-01        00000 
-2.84924e-01 -8.06974e-01        00000 
-2.09084e-01 -8.04925e-01        00000 
-1.36988e-01 -8.03690e-01        00000 
-6.77553e-02 -8.03017e-01        00000 
-1.95953e-05 -8.02799e-01        00000 
 6.77166e-02 -8.03015e-01        00000 
 1.36950e-01 -8.03686e-01        00000 
 2.09048e-01 -8.04920e-01        00000 
 2.84889e-01 -8.06969e-01        00000 
-2.93216e-01 -9.71431e-01        00000 
-2.13789e-01 -9.70141e-01        00000 
-1.39780e-01 -9.68579e-01        00000 
-6.91019e-02 -9.67374e-01        00000 
-2.10857e-05 -9.66930e-01        00000 
 6.90610e-02 -9.67374e-01        00000 
 1.39741e-01 -9.68579e-01        00000 
 2.13754e-01 -9.70142e-01        00000 
 2.93183e-01 -9.71431e-01        00000 
-4.68944e-19 -3.30957e-18        00000 
-1.61288e-02 -1.23272e-02        00000 
-1.22435e-02 -8.68191e-03        00000 
-5.70688e-19  2.37731e-18        00000 
-9.87589e-03 -6.39917e-03        00000 
-8.00472e-03 -4.85192e-03        00000 
 4.87891e-19 -1.21973e-18        00000 
-6.36384e-03 -3.77076e-03        00000 
-4.85198e-03 -3.01462e-03        00000 
-6.55199e-19 -9.31371e-19        00000 
-3.41906e-03 -2.50162e-03        00000 
-2.03433e-03 -2.18261e-03        00000 
-9.14796e-20  4.87891e-19        00000 
-6.76061e-04 -2.02954e-03        00000 
 6.73780e-04 -2.02941e-03        00000 
-1.17136e-18  9.83840e-19        00000 
 2.03201e-03 -2.18230e-03        00000 
 3.41672e-03 -2.50098e-03        00000 
 1.95156e-18 -1.21973e-18        00000 
 4.84973e-03 -3.01386e-03        00000 
 6.36164e-03 -3.76984e-03        00000 
 4.87891e-19 -1.46367e-18        00000 
 8.00258e-03 -4.85086e-03        00000 
 9.87379e-03 -6.39791e-03        00000 
-2.18544e-18  3.19185e-18        00000 
 1.22413e-02 -8.68031e-03        00000 
 1.61264e-02 -1.23252e-02        00000 
-6.05829e-02 -4.87852e-02        00000 
-8.15061e-02 -6.59698e-02        00000 
-6.84234e-02 -5.95539e-02        00000 
-4.03805e-02 -3.75984e-02        00000 
-5.65898e-02 -5.39410e-02        00000 
-4.60547e-02 -4.92819e-02        00000 
-2.51254e-02 -3.06139e-02        00000 
-3.65345e-02 -4.55676e-02        00000 
-2.77535e-02 -4.27259e-02        00000 
-1.21194e-02 -2.69121e-02        00000 
-1.94903e-02 -4.06756e-02        00000 
-1.15679e-02 -3.93482e-02        00000 
-4.74976e-06 -2.57573e-02        00000 
-3.83905e-03 -3.86965e-02        00000 
 3.82715e-03 -3.86962e-02        00000 
 1.21101e-02 -2.69112e-02        00000 
 1.15561e-02 -3.93476e-02        00000 
 1.94786e-02 -4.06746e-02        00000 
 2.51162e-02 -3.06121e-02        00000 
 2.77418e-02 -4.27245e-02        00000 
 3.65227e-02 -4.55656e-02        00000 
 4.03711e-02 -3.75951e-02        00000 
 4.60427e-02 -4.92791e-02        00000 
 5.65779e-02 -5.39372e-02        00000 
 6.05732e-02 -4.87799e-02        00000 
 6.84115e-02 -5.95491e-02        00000 
 8.14944e-02 -6.59640e-02        00000 
-1.14671e-01 -1.12016e-01        00000 
-1.36707e-01 -1.34663e-01        00000 
-1.17723e-01 -1.29037e-01        00000 
-8.16816e-02 -1.02037e-01        00000 
-9.97534e-02 -1.24139e-01        00000 
-8.27143e-02 -1.19929e-01        00000 
-5.23157e-02 -9.47743e-02        00000 
-6.65015e-02 -1.16407e-01        00000 
-5.09878e-02 -1.13585e-01        00000 
-2.55229e-02 -9.04356e-02        00000 
-3.60261e-02 -1.11468e-01        00000 
-2.14610e-02 -1.10058e-01        00000 
-9.07506e-06 -8.90007e-02        00000 
-7.13380e-03 -1.09354e-01        00000 
 7.11409e-03 -1.09354e-01        00000 
 2.55047e-02 -9.04357e-02        00000 
 2.14413e-02 -1.10058e-01        00000 
 3.60062e-02 -1.11468e-01        00000 
 5.22970e-02 -9.47740e-02        00000 
 5.09674e-02 -1.13585e-01        00000 
 6.64808e-02 -1.16408e-01        00000 
 8.16625e-02 -1.02035e-01        00000 
 8.26933e-02 -1.19929e-01        00000 
 9.97325e-02 -1.24139e-01        00000 
 1.14652e-01 -1.12013e-01        00000 
 1.17702e-01 -1.29036e-01        00000 
 1.36687e-01 -1.34661e-01        00000 
-1.61718e-01 -1.98923e-01        00000 
-1.84781e-01 -2.26847e-01        00000 
-1.60247e-01 -2.22034e-01        00000 
-1.17308e-01 -1.90385e-01        00000 
-1.36742e-01 -2.17868e-01        00000 
-1.14139e-01 -2.14303e-01        00000 
-7.62641e-02 -1.84179e-01        00000 
-9.23103e-02 -2.11327e-01        00000 
-7.11226e-02 -2.08939e-01        00000 
-3.75429e-02 -1.80420e-01        00000 
-5.04400e-02 -2.07142e-01        00000 
-3.01218e-02 -2.05941e-01        00000 
-1.12885e-05 -1.79162e-01        00000 
-1.00238e-02 -2.05340e-01        00000 
 1.00004e-02 -2.05340e-01        00000 
 3.75200e-02 -1.80421e-01        00000 
 3.00982e-02 -2.05942e-01        00000 
 5.04160e-02 -2.07143e-01        00000 
 7.62403e-02 -1.84181e-01        00000 
 7.10981e-02 -2.08940e-01        00000 
 9.22851e-02 -2.11329e-01        00000 
 1.17283e-01 -1.90387e-01        00000 
 1.14113e-01 -2.14305e-01        00000 
 1.36715e-01 -2.17870e-01        00000 
 1.61692e-01 -1.98924e-01        00000 
 1.60220e-01 -2.22035e-01        00000 
 1.84753e-01 -2.26848e-01        00000 
-2.01675e-01 -3.07528e-01        00000 
-2.25319e-01 -3.39880e-01        00000 
-1.96030e-01 -3.35899e-01        00000 
-1.47351e-01 -3.00419e-01        00000 
-1.67781e-01 -3.32460e-01        00000 
-1.40434e-01 -3.29525e-01        00000 
-9.63660e-02 -2.95285e-01        00000 
-1.13853e-01 -3.27082e-01        00000 
-8.79007e-02 -3.25127e-01        00000 
-4.76244e-02 -2.92192e-01        00000 
-6.24383e-02 -3.23660e-01        00000 
-3.73274e-02 -3.22682e-01        00000 
-1.26107e-05 -2.91159e-01        00000 
-1.24275e-02 -3.22193e-01        00000 
 1.24015e-02 -3.22193e-01        00000 
 4.75986e-02 -2.92193e-01        00000 
 3.73010e-02 -3.22682e-01        00000 
 6.24115e-02 -3.23661e-01        00000 
 9.63386e-02 -2.95287e-01        00000 
 8.78729e-02 -3.25128e-01        00000 
 1.13824e-01 -3.27083e-01        00000 
 1.47321e-01 -3.00420e-01        00000 
 1.40404e-01 -3.29526e-01        00000 
 1.67749e-01 -3.32461e-01        00000 
 2.01642e-01 -3.07528e-01        00000 
 1.95997e-01 -3.35899e-01        00000 
 2.25285e-01 -3.39880e-01        00000 
-2.34407e-01 -4.34332e-01        00000 
-2.58170e-01 -4.70197e-01        00000 
-2.25017e-01 -4.67053e-01        00000 
-1.71908e-01 -4.28649e-01        00000 
-1.92903e-01 -4.64340e-01        00000 
-1.61691e-01 -4.62029e-01        00000 
-1.12746e-01 -4.24562e-01        00000 
-1.31244e-01 -4.60112e-01        00000 
-1.01425e-01 -4.58582e-01        00000 
-5.58186e-02 -4.22111e-01        00000 
-7.20983e-02 -4.57438e-01        00000 
-4.31235e-02 -4.56677e-01        00000 
-1.41493e-05 -4.21295e-01        00000 
-1.43606e-02 -4.56296e-01        00000 
 1.43313e-02 -4.56296e-01        00000 
 5.57897e-02 -4.22111e-01        00000 
 4.30941e-02 -4.56675e-01        00000 
 7.20685e-02 -4.57437e-01        00000 
 1.12716e-01 -4.24561e-01        00000 
 1.01395e-01 -4.58580e-01        00000 
 1.31212e-01 -4.60110e-01        00000 
 1.71875e-01 -4.28647e-01        00000 
 1.61658e-01 -4.62027e-01        00000 
 1.92869e-01 -4.64337e-01        00000 
 2.34371e-01 -4.34330e-01        00000 
 2.24981e-01 -4.67050e-01        00000 
 2.58132e-01 -4.70194e-01        00000 
-2.59898e-01 -5.75663e-01        00000 
-2.83347e-01 -6.14120e-01        00000 
-2.47218e-01 -6.11806e-01        00000 
-1.90989e-01 -5.71409e-01        00000 
-2.12108e-01 -6.09822e-01        00000 
-1.77895e-01 -6.08151e-01        00000 
-1.25417e-01 -5.68395e-01        00000 
-1.44457e-01 -6.06782e-01        00000 
-1.11667e-01 -6.05705e-01        00000 
-6.21318e-02 -5.66618e-01        00000 
-7.93924e-02 -6.04908e-01        00000 
-4.74908e-02 -6.04383e-01        00000 
-1.58791e-05 -5.66032e-01        00000 
-1.58160e-02 -6.04122e-01        00000 
 1.57828e-02 -6.04121e-01        00000 
 6.20996e-02 -5.66616e-01        00000 
 4.74575e-02 -6.04381e-01        00000 
 7.93588e-02 -6.04905e-01        00000 
 1.25384e-01 -5.68391e-01        00000 
 1.11634e-01 -6.05700e-01        00000 
 1.44423e-01 -6.06777e-01        00000 
 1.90954e-01 -5.71403e-01        00000 
 1.77860e-01 -6.08145e-01        00000 
 2.12072e-01 -6.09815e-01        00000 
 2.59861e-01 -5.75656e-01        00000 
 2.47182e-01 -6.11799e-01        00000 
 2.83310e-01 -6.14113e-01        00000 
-2.78277e-01 -7.27847e-01        00000 
-3.01113e-01 -7.68049e-01        00000 
-2.62740e-01 -7.66529e-01        00000 
-2.04508e-01 -7.25048e-01        00000 
-2.25336e-01 -7.65291e-01        00000 
-1.88860e-01 -7.64310e-01        00000 
-1.34189e-01 -7.23215e-01        00000 
-1.53244e-01 -7.63548e-01        00000 
-1.18377e-01 -7.62974e-01        00000 
-6.64285e-02 -7.22201e-01        00000 
-8.41147e-02 -7.62561e-01        00000 
-5.02964e-02 -7.62294e-01        00000 
-1.85364e-05 -7.21876e-01        00000 
-1.67481e-02 -7.62162e-01        00000 
 1.67098e-02 -7.62161e-01        00000 
 6.63914e-02 -7.22198e-01        00000 
 5.02584e-02 -7.62292e-01        00000 
 8.40771e-02 -7.62558e-01        00000 
 1.34153e-01 -7.23210e-01        00000 
 1.18339e-01 -7.62970e-01        00000 
 1.53207e-01 -7.63543e-01        00000 
 2.04471e-01 -7.25042e-01        00000 
 1.88824e-01 -7.64304e-01        00000 
 2.25300e-01 -7.65286e-01        00000 
 2.78241e-01 -7.27840e-01        00000 
 2.62704e-01 -7.66523e-01        00000 
 3.01078e-01 -7.68043e-01        00000 
-2.89978e-01 -8.87885e-01        00000 
-3.12424e-01 -9.29720e-01        00000 
-2.71628e-01 -9.28961e-01        00000 
-2.12114e-01 -8.86567e-01        00000 
-2.32248e-01 -9.28379e-01        00000 
-1.94228e-01 -9.27836e-01        00000 
-1.38739e-01 -8.85673e-01        00000 
-1.57370e-01 -9.27315e-01        00000 
-1.21450e-01 -9.26838e-01        00000 
-6.85758e-02 -8.85077e-01        00000 
-8.62503e-02 -9.26443e-01        00000 
-5.15574e-02 -9.26160e-01        00000 
-2.05303e-05 -8.84862e-01        00000 
-1.71664e-02 -9.26013e-01        00000 
 1.71246e-02 -9.26013e-01        00000 
 6.85354e-02 -8.85076e-01        00000 
 5.15161e-02 -9.26160e-01        00000 
 8.62099e-02 -9.26442e-01        00000 
 1.38701e-01 -8.85671e-01        00000 
 1.21411e-01 -9.26837e-01        00000 
 1.57332e-01 -9.27313e-01        00000 
 2.12077e-01 -8.86564e-01        00000 
 1.94192e-01 -9.27835e-01        00000 
 2.32213e-01 -9.28378e-01        00000 
 2.89944e-01 -8.87882e-01        00000 
 2.71594e-01 -9.28960e-01        00000 
 3.12391e-01 -9.29719e-01        00000 
-2.33544e-02 -1.81420e-02        00000 
-4.06775e-02 -3.28392e-02        00000 
-1.50700e-02 -1.17899e-02        00000 
-2.64238e-02 -2.33414e-02        00000 
-8.61677e-03 -8.66036e-03        00000 
-1.58134e-02 -1.81689e-02        00000 
-2.81493e-03 -7.33408e-03        00000 
-6.58476e-03 -1.57093e-02        00000 
 2.81014e-03 -7.33376e-03        00000 
 2.17823e-03 -1.52485e-02        00000 
 8.61219e-03 -8.65936e-03        00000 
 1.10898e-02 -1.66600e-02        00000 
 1.50655e-02 -1.17882e-02        00000 
 2.08528e-02 -2.03393e-02        00000 
 2.33498e-02 -1.81393e-02        00000 
 3.28198e-02 -2.74019e-02        00000 
 4.06931e-02 -3.17592e-02        00000 
 5.11981e-02 -3.98720e-02        00000 
-7.45612e-02 -7.18121e-02        00000 
-9.39473e-02 -9.13068e-02        00000 
-4.99005e-02 -6.26272e-02        00000 
-6.50167e-02 -8.15281e-02        00000 
-2.86965e-02 -5.67297e-02        00000 
-3.96739e-02 -7.48325e-02        00000 
-9.37548e-03 -5.38989e-02        00000 
-1.66165e-02 -7.11984e-02        00000 
 9.36146e-03 -5.38987e-02        00000 
 5.50244e-03 -7.04816e-02        00000 
 2.86825e-02 -5.67288e-02        00000 
 2.79307e-02 -7.26423e-02        00000 
 4.98860e-02 -6.26252e-02        00000 
 5.19539e-02 -7.77885e-02        00000 
 7.45468e-02 -7.18081e-02        00000 
 7.89589e-02 -8.60405e-02        00000 
 1.03609e-01 -8.37199e-02        00000 
 1.09951e-01 -9.73223e-02        00000 
-1.19152e-01 -1.47637e-01        00000 
-1.39823e-01 -1.72717e-01        00000 
-8.21198e-02 -1.39601e-01        00000 
-9.90796e-02 -1.64299e-01        00000 
-4.80420e-02 -1.34168e-01        00000 
-6.14826e-02 -1.58436e-01        00000 
-1.58127e-02 -1.31439e-01        00000 
-2.59747e-02 -1.55158e-01        00000 
 1.57917e-02 -1.31439e-01        00000 
 8.61799e-03 -1.54501e-01        00000 
 4.80206e-02 -1.34169e-01        00000 
 4.35167e-02 -1.56472e-01        00000 
 8.20974e-02 -1.39602e-01        00000 
 7.99272e-02 -1.61050e-01        00000 
 1.19130e-01 -1.47637e-01        00000 
 1.18973e-01 -1.68187e-01        00000 
 1.60041e-01 -1.57993e-01        00000 
 1.61643e-01 -1.77940e-01        00000 
-1.57322e-01 -2.46553e-01        00000 
-1.78986e-01 -2.76577e-01        00000 
-1.09551e-01 -2.39792e-01        00000 
-1.27919e-01 -2.69526e-01        00000 
-6.45906e-02 -2.35243e-01        00000 
-7.99226e-02 -2.64650e-01        00000 
-2.13456e-02 -2.32956e-01        00000 
-3.39031e-02 -2.61932e-01        00000 
 2.13214e-02 -2.32957e-01        00000 
 1.12606e-02 -2.61388e-01        00000 
 6.45656e-02 -2.35244e-01        00000 
 5.67097e-02 -2.63021e-01        00000 
 1.09524e-01 -2.39794e-01        00000 
 1.03578e-01 -2.66821e-01        00000 
 1.57293e-01 -2.46555e-01        00000 
 1.52972e-01 -2.72776e-01        00000 
 2.08955e-01 -2.55340e-01        00000 
 2.05975e-01 -2.80975e-01        00000 
-1.89144e-01 -3.65471e-01        00000 