<?xml version="1.0" encoding="utf-8"?>
<VTKFile byte_order="LittleEndian" type="UnstructuredGrid" version="0.1">
   <UnstructuredGrid>
      <Piece NumberOfCells="1296" NumberOfPoints="685">
         <Points>
            <DataArray Name="Points" NumberOfComponents="3" format="ascii" type="Float32">
0.0000 0.0000 0.0000
0.0000 0.1111 0.0000
0.0000 0.2222 0.0000
0.0000 0.3333 0.0000
0.0000 0.4444 0.0000
0.0000 0.5556 0.0000
0.0000 0.6667 0.0000
0.0000 0.7778 0.0000
0.0000 0.8889 0.0000
0.0000 1.0000 0.0000
0.2222 0.0000 0.0000
0.2222 0.1111 0.0000
0.2222 0.2222 0.0000
0.2222 0.3333 0.0000
0.2222 0.4444 0.0000
0.2222 0.5556 0.0000
0.2222 0.6667 0.0000
0.2222 0.7778 0.0000
0.2222 0.8889 0.0000
0.2222 1.0000 0.0000
0.4444 0.0000 0.0000
0.4444 0.1111 0.0000
0.4444 0.2222 0.0000
0.4444 0.3333 0.0000
0.4444 0.4444 0.0000
0.4444 0.5556 0.0000
0.4444 0.6667 0.0000
0.4444 0.7778 0.0000
0.4444 0.8889 0.0000
0.4444 1.0000 0.0000
0.6667 0.0000 0.0000
0.6667 0.1111 0.0000
0.6667 0.2222 0.0000
0.6667 0.3333 0.0000
0.6667 0.4444 0.0000
0.6667 0.5556 0.0000
0.6667 0.6667 0.0000
0.6667 0.7778 0.0000
0.6667 0.8889 0.0000
0.6667 1.0000 0.0000
0.8889 0.0000 0.0000
0.8889 0.1111 0.0000
0.8889 0.2222 0.0000
0.8889 0.3333 0.0000
0.8889 0.4444 0.0000
0.8889 0.5556 0.0000
0.8889 0.6667 0.0000
0.8889 0.7778 0.0000
0.8889 0.8889 0.0000
0.8889 1.0000 0.0000
1.1111 0.0000 0.0000
1.1111 0.1111 0.0000
1.1111 0.2222 0.0000
1.1111 0.3333 0.0000
1.1111 0.4444 0.0000
1.1111 0.5556 0.0000
1.1111 0.6667 0.0000
1.1111 0.7778 0.0000
1.1111 0.8889 0.0000
1.1111 1.0000 0.0000
1.3333 0.0000 0.0000
1.3333 0.1111 0.0000
1.3333 0.2222 0.0000
1.3333 0.3333 0.0000
1.3333 0.4444 0.0000
1.3333 0.5556 0.0000
1.3333 0.6667 0.0000
1.3333 0.7778 0.0000
1.3333 0.8889 0.0000
1.3333 1.0000 0.0000
1.5556 0.0000 0.0000
1.5556 0.1111 0.0000
1.5556 0.2222 0.0000
1.5556 0.3333 0.0000
1.5556 0.4444 0.0000
1.5556 0.5556 0.0000
1.5556 0.6667 0.0000
1.5556 0.7778 0.0000
1.5556 0.8889 0.0000
1.5556 1.0000 0.0000
1.7778 0.0000 0.0000
1.7778 0.1111 0.0000
1.7778 0.2222 0.0000
1.7778 0.3333 0.0000
1.7778 0.4444 0.0000
1.7778 0.5556 0.0000
1.7778 0.6667 0.0000
1.7778 0.7778 0.0000
1.7778 0.8889 0.0000
1.7778 1.0000 0.0000
2.0000 0.0000 0.0000
2.0000 0.1111 0.0000
2.0000 0.2222 0.0000
2.0000 0.3333 0.0000
2.0000 0.4444 0.0000
2.0000 0.5556 0.0000
2.0000 0.6667 0.0000
2.0000 0.7778 0.0000
2.0000 0.8889 0.0000
2.0000 1.0000 0.0000
0.1111 0.0556 0.0000
0.1111 0.1667 0.0000
0.1111 0.2778 0.0000
0.1111 0.3889 0.0000
0.1111 0.5000 0.0000
0.1111 0.6111 0.0000
0.1111 0.7222 0.0000
0.1111 0.8333 0.0000
0.1111 0.9444 0.0000
0.3333 0.0556 0.0000
0.3333 0.1667 0.0000
0.3333 0.2778 0.0000
0.3333 0.3889 0.0000
0.3333 0.5000 0.0000
0.3333 0.6111 0.0000
0.3333 0.7222 0.0000
0.3333 0.8333 0.0000
0.3333 0.9444 0.0000
0.5556 0.0556 0.0000
0.5556 0.1667 0.0000
0.5556 0.2778 0.0000
0.5556 0.3889 0.0000
0.5556 0.5000 0.0000
0.5556 0.6111 0.0000
0.5556 0.7222 0.0000
0.5556 0.8333 0.0000
0.5556 0.9444 0.0000
0.7778 0.0556 0.0000
0.7778 0.1667 0.0000
0.7778 0.2778 0.0000
0.7778 0.3889 0.0000
0.7778 0.5000 0.0000
0.7778 0.6111 0.0000
0.7778 0.7222 0.0000
0.7778 0.8333 0.0000
0.7778 0.9444 0.0000
1.0000 0.0556 0.0000
1.0000 0.1667 0.0000
1.0000 0.2778 0.0000
1.0000 0.3889 0.0000
1.0000 0.5000 0.0000
1.0000 0.6111 0.0000
1.0000 0.7222 0.0000
1.0000 0.8333 0.0000
1.0000 0.9444 0.0000
1.2222 0.0556 0.0000
1.2222 0.1667 0.0000
1.2222 0.2778 0.0000
1.2222 0.3889 0.0000
1.2222 0.5000 0.0000
1.2222 0.6111 0.0000
1.2222 0.7222 0.0000
1.2222 0.8333 0.0000
1.2222 0.9444 0.0000
1.4444 0.0556 0.0000
1.4444 0.1667 0.0000
1.4444 0.2778 0.0000
1.4444 0.3889 0.0000
1.4444 0.5000 0.0000
1.4444 0.6111 0.0000
1.4444 0.7222 0.0000
1.4444 0.8333 0.0000
1.4444 0.9444 0.0000
1.6667 0.0556 0.0000
1.6667 0.1667 0.0000
1.6667 0.2778 0.0000
1.6667 0.3889 0.0000
1.6667 0.5000 0.0000
1.6667 0.6111 0.0000
1.6667 0.7222 0.0000
1.6667 0.8333 0.0000
1.6667 0.9444 0.0000
1.8889 0.0556 0.0000
1.8889 0.1667 0.0000
1.8889 0.2778 0.0000
1.8889 0.3889 0.0000
1.8889 0.5000 0.0000
1.8889 0.6111 0.0000
1.8889 0.7222 0.0000
1.8889 0.8333 0.0000
1.8889 0.9444 0.0000
0.0000 0.0556 0.0000
0.0556 0.0278 0.0000
0.0556 0.0833 0.0000
0.0000 0.1667 0.0000
0.0556 0.1389 0.0000
0.0556 0.1944 0.0000
0.0000 0.2778 0.0000
0.0556 0.2500 0.0000
0.0556 0.3056 0.0000
0.0000 0.3889 0.0000
0.0556 0.3611 0.0000
0.0556 0.4167 0.0000
0.0000 0.5000 0.0000
0.0556 0.4722 0.0000
0.0556 0.5278 0.0000
0.0000 0.6111 0.0000
0.0556 0.5833 0.0000
0.0556 0.6389 0.0000
0.0000 0.7222 0.0000
0.0556 0.6944 0.0000
0.0556 0.7500 0.0000
0.0000 0.8333 0.0000
0.0556 0.8056 0.0000
0.0556 0.8611 0.0000
0.0000 0.9444 0.0000
0.0556 0.9167 0.0000
0.0556 0.9722 0.0000
0.2222 0.0556 0.0000
0.2778 0.0278 0.0000
0.2778 0.0833 0.0000
0.2222 0.1667 0.0000
0.2778 0.1389 0.0000
0.2778 0.1944 0.0000
0.2222 0.2778 0.0000
0.2778 0.2500 0.0000
0.2778 0.3056 0.0000
0.2222 0.3889 0.0000
0.2778 0.3611 0.0000
0.2778 0.4167 0.0000
0.2222 0.5000 0.0000
0.2778 0.4722 0.0000
0.2778 0.5278 0.0000
0.2222 0.6111 0.0000
0.2778 0.5833 0.0000
0.2778 0.6389 0.0000
0.2222 0.7222 0.0000
0.2778 0.6944 0.0000
0.2778 0.7500 0.0000
0.2222 0.8333 0.0000
0.2778 0.8056 0.0000
0.2778 0.8611 0.0000
0.2222 0.9444 0.0000
0.2778 0.9167 0.0000
0.2778 0.9722 0.0000
0.4444 0.0556 0.0000
0.5000 0.0278 0.0000
0.5000 0.0833 0.0000
0.4444 0.1667 0.0000
0.5000 0.1389 0.0000
0.5000 0.1944 0.0000
0.4444 0.2778 0.0000
0.5000 0.2500 0.0000
0.5000 0.3056 0.0000
0.4444 0.3889 0.0000
0.5000 0.3611 0.0000
0.5000 0.4167 0.0000
0.4444 0.5000 0.0000
0.5000 0.4722 0.0000
0.5000 0.5278 0.0000
0.4444 0.6111 0.0000
0.5000 0.5833 0.0000
0.5000 0.6389 0.0000
0.4444 0.7222 0.0000
0.5000 0.6944 0.0000
0.5000 0.7500 0.0000
0.4444 0.8333 0.0000
0.5000 0.8056 0.0000
0.5000 0.8611 0.0000
0.4444 0.9444 0.0000
0.5000 0.9167 0.0000
0.5000 0.9722 0.0000
0.6667 0.0556 0.0000
0.7222 0.0278 0.0000
0.7222 0.0833 0.0000
0.6667 0.1667 0.0000
0.7222 0.1389 0.0000
0.7222 0.1944 0.0000
0.6667 0.2778 0.0000
0.7222 0.2500 0.0000
0.7222 0.3056 0.0000
0.6667 0.3889 0.0000
0.7222 0.3611 0.0000
0.7222 0.4167 0.0000
0.6667 0.5000 0.0000
0.7222 0.4722 0.0000
0.7222 0.5278 0.0000
0.6667 0.6111 0.0000
0.7222 0.5833 0.0000
0.7222 0.6389 0.0000
0.6667 0.7222 0.0000
0.7222 0.6944 0.0000
0.7222 0.7500 0.0000
0.6667 0.8333 0.0000
0.7222 0.8056 0.0000
0.7222 0.8611 0.0000
0.6667 0.9444 0.0000
0.7222 0.9167 0.0000
0.7222 0.9722 0.0000
0.8889 0.0556 0.0000
0.9444 0.0278 0.0000
0.9444 0.0833 0.0000
0.8889 0.1667 0.0000
0.9444 0.1389 0.0000
0.9444 0.1944 0.0000
0.8889 0.2778 0.0000
0.9444 0.2500 0.0000
0.9444 0.3056 0.0000
0.8889 0.3889 0.0000
0.9444 0.3611 0.0000
0.9444 0.4167 0.0000
0.8889 0.5000 0.0000
0.9444 0.4722 0.0000
0.9444 0.5278 0.0000
0.8889 0.6111 0.0000
0.9444 0.5833 0.0000
0.9444 0.6389 0.0000
0.8889 0.7222 0.0000
0.9444 0.6944 0.0000
0.9444 0.7500 0.0000
0.8889 0.8333 0.0000
0.9444 0.8056 0.0000
0.9444 0.8611 0.0000
0.8889 0.9444 0.0000
0.9444 0.9167 0.0000
0.9444 0.9722 0.0000
1.1111 0.0556 0.0000
1.1667 0.0278 0.0000
1.1667 0.0833 0.0000
1.1111 0.1667 0.0000
1.1667 0.1389 0.0000
1.1667 0.1944 0.0000
1.1111 0.2778 0.0000
1.1667 0.2500 0.0000
1.1667 0.3056 0.0000
1.1111 0.3889 0.0000
1.1667 0.3611 0.0000
1.1667 0.4167 0.0000
1.1111 0.5000 0.0000
1.1667 0.4722 0.0000
1.1667 0.5278 0.0000
1.1111 0.6111 0.0000
1.1667 0.5833 0.0000
1.1667 0.6389 0.0000
1.1111 0.7222 0.0000
1.1667 0.6944 0.0000
1.1667 0.7500 0.0000
1.1111 0.8333 0.0000
1.1667 0.8056 0.0000
1.1667 0.8611 0.0000
1.1111 0.9444 0.0000
1.1667 0.9167 0.0000
1.1667 0.9722 0.0000
1.3333 0.0556 0.0000
1.3889 0.0278 0.0000
1.3889 0.0833 0.0000
1.3333 0.1667 0.0000
1.3889 0.1389 0.0000
1.3889 0.1944 0.0000
1.3333 0.2778 0.0000
1.3889 0.2500 0.0000
1.3889 0.3056 0.0000
1.3333 0.3889 0.0000
1.3889 0.3611 0.0000
1.3889 0.4167 0.0000
1.3333 0.5000 0.0000
1.3889 0.4722 0.0000
1.3889 0.5278 0.0000
1.3333 0.6111 0.0000
1.3889 0.5833 0.0000
1.3889 0.6389 0.0000
1.3333 0.7222 0.0000
1.3889 0.6944 0.0000
1.3889 0.7500 0.0000
1.3333 0.8333 0.0000
1.3889 0.8056 0.0000
1.3889 0.8611 0.0000
1.3333 0.9444 0.0000
1.3889 0.9167 0.0000
1.3889 0.9722 0.0000
1.5556 0.0556 0.0000
1.6111 0.0278 0.0000
1.6111 0.0833 0.0000
1.5556 0.1667 0.0000
1.6111 0.1389 0.0000
1.6111 0.1944 0.0000
1.5556 0.2778 0.0000
1.6111 0.2500 0.0000
1.6111 0.3056 0.0000
1.5556 0.3889 0.0000
1.6111 0.3611 0.0000
1.6111 0.4167 0.0000
1.5556 0.5000 0.0000
1.6111 0.4722 0.0000
1.6111 0.5278 0.0000
1.5556 0.6111 0.0000
1.6111 0.5833 0.0000
1.6111 0.6389 0.0000
1.5556 0.7222 0.0000
1.6111 0.6944 0.0000
1.6111 0.7500 0.0000
1.5556 0.8333 0.0000
1.6111 0.8056 0.0000
1.6111 0.8611 0.0000
1.5556 0.9444 0.0000
1.6111 0.9167 0.0000
1.6111 0.9722 0.0000
1.7778 0.0556 0.0000
1.8333 0.0278 0.0000
1.8333 0.0833 0.0000
1.7778 0.1667 0.0000
1.8333 0.1389 0.0000
1.8333 0.1944 0.0000
1.7778 0.2778 0.0000
1.8333 0.2500 0.0000
1.8333 0.3056 0.0000
1.7778 0.3889 0.0000
1.8333 0.3611 0.0000
1.8333 0.4167 0.0000
1.7778 0.5000 0.0000
1.8333 0.4722 0.0000
1.8333 0.5278 0.0000
1.7778 0.6111 0.0000
1.8333 0.5833 0.0000
1.8333 0.6389 0.0000
1.7778 0.7222 0.0000
1.8333 0.6944 0.0000
1.8333 0.7500 0.0000
1.7778 0.8333 0.0000
1.8333 0.8056 0.0000
1.8333 0.8611 0.0000
1.7778 0.9444 0.0000
1.8333 0.9167 0.0000
1.8333 0.9722 0.0000
0.1111 0.1111 0.0000
0.1667 0.0833 0.0000
0.1111 0.2222 0.0000
0.1667 0.1944 0.0000
0.1111 0.3333 0.0000
0.1667 0.3056 0.0000
0.1111 0.4444 0.0000
0.1667 0.4167 0.0000
0.1111 0.5556 0.0000
0.1667 0.5278 0.0000
0.1111 0.6667 0.0000
0.1667 0.6389 0.0000
0.1111 0.7778 0.0000
0.1667 0.7500 0.0000
0.1111 0.8889 0.0000
0.1667 0.8611 0.0000
0.1111 1.0000 0.0000
0.1667 0.9722 0.0000
0.3333 0.1111 0.0000
0.3889 0.0833 0.0000
0.3333 0.2222 0.0000
0.3889 0.1944 0.0000
0.3333 0.3333 0.0000
0.3889 0.3056 0.0000
0.3333 0.4444 0.0000
0.3889 0.4167 0.0000
0.3333 0.5556 0.0000
0.3889 0.5278 0.0000
0.3333 0.6667 0.0000
0.3889 0.6389 0.0000
0.3333 0.7778 0.0000
0.3889 0.7500 0.0000
0.3333 0.8889 0.0000
0.3889 0.8611 0.0000
0.3333 1.0000 0.0000
0.3889 0.9722 0.0000
0.5556 0.1111 0.0000
[...]
         <PointData>
            <DataArray Name="fValues" NumberOfComponents="3" format="ascii" type="Float64">
-3.58525e-18 -1.19508e-18        00000 
 1.28960e-19  2.25679e-18        00000 
 6.99244e-19  1.44319e-18        00000 
-1.15588e-18 -8.99015e-19        00000 
-2.32306e-19 -3.39457e-19        00000 
 1.92646e-19  1.92646e-19        00000 
-8.41072e-19 -1.16844e-18        00000 
-9.62359e-19  1.37938e-18        00000 
       00000 -7.73943e-19        00000 
-1.19508e-18  1.19508e-18        00000 
-7.32202e-02 -5.47818e-02        00000 
-5.05182e-02 -4.16809e-02        00000 
-3.35165e-02 -3.23877e-02        00000 
-1.98051e-02 -2.69629e-02        00000 
-7.52159e-03 -2.45268e-02        00000 
 4.37077e-03 -2.44287e-02        00000 
 1.66027e-02 -2.66469e-02        00000 
 3.02563e-02 -3.16566e-02        00000 
 4.71616e-02 -4.03012e-02        00000 
 6.97032e-02 -5.26277e-02        00000 
-1.33883e-01 -1.14617e-01        00000 
-9.99364e-02 -1.03222e-01        00000 
-6.92809e-02 -9.44540e-02        00000 
-4.14423e-02 -8.85926e-02        00000 
-1.55832e-02 -8.57604e-02        00000 
 9.51956e-03 -8.58128e-02        00000 
 3.51516e-02 -8.86753e-02        00000 
 6.26702e-02 -9.44267e-02        00000 
 9.33260e-02 -1.02933e-01        00000 
 1.27852e-01 -1.13797e-01        00000 
-1.88658e-01 -1.98908e-01        00000 
-1.42576e-01 -1.89039e-01        00000 
-1.00145e-01 -1.81555e-01        00000 
-6.03504e-02 -1.76559e-01        00000 
-2.24055e-02 -1.74082e-01        00000 
 1.47187e-02 -1.74186e-01        00000 
 5.23082e-02 -1.76859e-01        00000 
 9.15432e-02 -1.81963e-01        00000 
 1.33542e-01 -1.89333e-01        00000 
 1.79354e-01 -1.98770e-01        00000 
-2.35131e-01 -3.05612e-01        00000 
-1.78902e-01 -2.97267e-01        00000 
-1.26298e-01 -2.90843e-01        00000 
-7.64292e-02 -2.86536e-01        00000 
-2.81896e-02 -2.84430e-01        00000 
 1.93563e-02 -2.84504e-01        00000 
 6.71340e-02 -2.86717e-01        00000 
 1.16284e-01 -2.90990e-01        00000 
 1.68092e-01 -2.97234e-01        00000 
 2.23801e-01 -3.05262e-01        00000 
-2.73765e-01 -4.30905e-01        00000 
-2.08945e-01 -4.24257e-01        00000 
-1.47939e-01 -4.19238e-01        00000 
-8.96373e-02 -4.15880e-01        00000 
-3.29990e-02 -4.14113e-01        00000 
 2.28767e-02 -4.13963e-01        00000 
 7.91357e-02 -4.15463e-01        00000 
 1.36760e-01 -4.18645e-01        00000 
 1.96935e-01 -4.23576e-01        00000 
 2.61079e-01 -4.30016e-01        00000 
-3.03700e-01 -5.72228e-01        00000 
-2.32119e-01 -5.67224e-01        00000 
-1.64521e-01 -5.63348e-01        00000 
-9.98058e-02 -5.60629e-01        00000 
-3.68127e-02 -5.59099e-01        00000 
 2.55092e-02 -5.58734e-01        00000 
 8.83188e-02 -5.59620e-01        00000 
 1.52728e-01 -5.61792e-01        00000 
 2.19718e-01 -5.65396e-01        00000 
 2.90576e-01 -5.70268e-01        00000 
-3.24450e-01 -7.24034e-01        00000 
-2.48600e-01 -7.20713e-01        00000 
-1.76337e-01 -7.18245e-01        00000 
-1.07117e-01 -7.16567e-01        00000 
-3.97017e-02 -7.15602e-01        00000 
 2.70864e-02 -7.15336e-01        00000 
 9.45063e-02 -7.15862e-01        00000 
 1.63709e-01 -7.17131e-01        00000 
 2.35823e-01 -7.19384e-01        00000 
 3.12019e-01 -7.22654e-01        00000 
-3.38563e-01 -8.83507e-01        00000 
-2.58394e-01 -8.81685e-01        00000 
-1.82623e-01 -8.80618e-01        00000 
-1.10797e-01 -8.79855e-01        00000 
-4.11822e-02 -8.79394e-01        00000 
 2.78448e-02 -8.79247e-01        00000 
 9.76341e-02 -8.79508e-01        00000 
 1.69664e-01 -8.80108e-01        00000 
 2.45553e-01 -8.81072e-01        00000 
 3.25826e-01 -8.82843e-01        00000 
-3.47158e-01 -1.05689e+00        00000 
-2.62457e-01 -1.05282e+00        00000 
-1.85438e-01 -1.04802e+00        00000 
-1.12526e-01 -1.04445e+00        00000 
-4.18256e-02 -1.04265e+00        00000 
 2.83540e-02 -1.04277e+00        00000 
 9.93339e-02 -1.04471e+00        00000 
 1.72400e-01 -1.04829e+00        00000 
 2.49494e-01 -1.05313e+00        00000 
 3.34708e-01 -1.05732e+00        00000 
-2.97486e-02 -2.33659e-02        00000 
-1.92639e-02 -1.39823e-02        00000 
-1.22936e-02 -9.41020e-03        00000 
-6.38907e-03 -7.20154e-03        00000 
-8.04078e-04 -6.47355e-03        00000 
 4.78867e-03 -7.07143e-03        00000 
 1.07411e-02 -9.09737e-03        00000 
 1.77149e-02 -1.33749e-02        00000 
 2.80416e-02 -2.22143e-02        00000 
-8.97273e-02 -7.55857e-02        00000 
-6.35329e-02 -6.46080e-02        00000 
-4.10201e-02 -5.68284e-02        00000 
-2.10750e-02 -5.24301e-02        00000 
-2.36543e-03 -5.09883e-02        00000 
 1.62709e-02 -5.23220e-02        00000 
 3.60300e-02 -5.64868e-02        00000 
 5.83925e-02 -6.37557e-02        00000 
 8.47549e-02 -7.40781e-02        00000 
-1.41649e-01 -1.47928e-01        00000 
-1.03317e-01 -1.38586e-01        00000 
-6.80357e-02 -1.31839e-01        00000 
-3.50480e-02 -1.27831e-01        00000 
-3.48775e-03 -1.26572e-01        00000 
 2.78930e-02 -1.28055e-01        00000 
 6.04875e-02 -1.32188e-01        00000 
 9.54434e-02 -1.38923e-01        00000 
 1.33773e-01 -1.48009e-01        00000 
-1.86703e-01 -2.44898e-01        00000 
-1.37253e-01 -2.36849e-01        00000 
-9.09889e-02 -2.31034e-01        00000 
-4.69484e-02 -2.27499e-01        00000 
-4.17050e-03 -2.26381e-01        00000 
 3.84283e-02 -2.27702e-01        00000 
 8.19437e-02 -2.31348e-01        00000 
 1.27528e-01 -2.37125e-01        00000 
 1.76405e-01 -2.44937e-01        00000 
-2.24551e-01 -3.62110e-01        00000 
-1.65856e-01 -3.55432e-01        00000 
-1.10311e-01 -3.50630e-01        00000 
-5.69163e-02 -3.47764e-01        00000 
-4.72889e-03 -3.46824e-01        00000 
 4.72410e-02 -3.47706e-01        00000 
 1.00024e-01 -3.50500e-01        00000 
 1.54731e-01 -3.55170e-01        00000 
 2.12704e-01 -3.61618e-01        00000 
-2.55065e-01 -4.96882e-01        00000 
-1.88686e-01 -4.91711e-01        00000 
-1.25634e-01 -4.87977e-01        00000 
-6.49116e-02 -4.85643e-01        00000 
-5.35729e-03 -4.84692e-01        00000 
 5.40459e-02 -4.85134e-01        00000 
 1.14431e-01 -4.87052e-01        00000 
 1.76819e-01 -4.90539e-01        00000 
 2.42344e-01 -4.95603e-01        00000 
-2.77623e-01 -6.45022e-01        00000 
-2.05715e-01 -6.41266e-01        00000 
-1.37166e-01 -6.38501e-01        00000 
-7.09779e-02 -6.36683e-01        00000 
-5.99991e-03 -6.35854e-01        00000 
 5.89369e-02 -6.35998e-01        00000 
 1.25043e-01 -6.37188e-01        00000 
 1.93346e-01 -6.39476e-01        00000 
 2.64907e-01 -6.42929e-01        00000 
-2.92809e-01 -8.01361e-01        00000 
-2.16773e-01 -7.99286e-01        00000 
-1.44424e-01 -7.98002e-01        00000 
-7.48188e-02 -7.97195e-01        00000 
-6.51458e-03 -7.96797e-01        00000 
 6.18667e-02 -7.96867e-01        00000 
 1.31551e-01 -7.97398e-01        00000 
 2.03959e-01 -7.98570e-01        00000 
 2.80059e-01 -8.00680e-01        00000 
-3.01310e-01 -9.66098e-01        00000 
-2.21652e-01 -9.64830e-01        00000 
-1.47353e-01 -9.63317e-01        00000 
-7.63281e-02 -9.62202e-01        00000 
-6.72889e-03 -9.61763e-01        00000 
 6.30584e-02 -9.62104e-01        00000 
 1.34327e-01 -9.63188e-01        00000 
 2.08734e-01 -9.64650e-01        00000 
 2.88592e-01 -9.65823e-01        00000 
-3.08096e-18  2.13760e-18        00000 
-1.61820e-02 -1.22380e-02        00000 
-1.23555e-02 -8.59835e-03        00000 
 3.78659e-18  1.71103e-18        00000 
-1.00319e-02 -6.29605e-03        00000 
-8.19574e-03 -4.73311e-03        00000 
 4.87891e-19 -2.43945e-19        00000 
-6.60188e-03 -3.64299e-03        00000 
-5.11691e-03 -2.87940e-03        00000 
-9.37064e-19  5.65761e-20        00000 
-3.73474e-03 -2.35149e-03        00000 
-2.37517e-03 -1.99170e-03        00000 
-1.21973e-19 -7.31836e-19        00000 
-1.04939e-03 -1.81689e-03        00000 
 2.90012e-04 -1.77855e-03        00000 
-2.25740e-19 -2.93152e-19        00000 
 1.61229e-03 -1.91818e-03        00000 
 2.97231e-03 -2.19471e-03        00000 
-2.43945e-19 -1.09775e-18        00000 
 4.37716e-03 -2.68882e-03        00000 
 5.86575e-03 -3.40991e-03        00000 
-4.87891e-19 -9.75782e-19        00000 
 7.47054e-03 -4.45624e-03        00000 
 9.31302e-03 -5.94258e-03        00000 
-3.05751e-18  1.15989e-18        00000 
 1.16083e-02 -8.12765e-03        00000 
 1.53204e-02 -1.16139e-02        00000 
-6.12400e-02 -4.79707e-02        00000 
-8.21844e-02 -6.46821e-02        00000 
-6.95048e-02 -5.81670e-02        00000 
-4.14200e-02 -3.64811e-02        00000 
-5.79410e-02 -5.24040e-02        00000 
-4.75930e-02 -4.75819e-02        00000 
-2.63963e-02 -2.92385e-02        00000 
-3.81794e-02 -4.37408e-02        00000 
-2.94590e-02 -4.08144e-02        00000 
-1.35542e-02 -2.54230e-02        00000 
-2.12795e-02 -3.87387e-02        00000 
-1.34362e-02 -3.73835e-02        00000 
-1.57083e-03 -2.41794e-02        00000 
-5.79296e-03 -3.66892e-02        00000 
 1.80955e-03 -3.66330e-02        00000 
 1.03785e-02 -2.52201e-02        00000 
 9.42808e-03 -3.72293e-02        00000 
 1.72335e-02 -3.84840e-02        00000 
 2.31746e-02 -2.87513e-02        00000 
 2.53569e-02 -4.04480e-02        00000 
 3.39924e-02 -4.31791e-02        00000 
 3.81126e-02 -3.54431e-02        00000 
 4.33373e-02 -4.67430e-02        00000 
 5.36918e-02 -5.12229e-02        00000 
 5.78237e-02 -4.61946e-02        00000 
 6.52776e-02 -5.66383e-02        00000 
 7.80477e-02 -6.28018e-02        00000 
-1.16494e-01 -1.08629e-01        00000 
-1.38659e-01 -1.30667e-01        00000 
-1.20122e-01 -1.24908e-01        00000 
-8.42218e-02 -9.84895e-02        00000 
-1.02491e-01 -1.19961e-01        00000 
-8.56498e-02 -1.15748e-01        00000 
-5.50500e-02 -9.11567e-02        00000 
-6.95136e-02 -1.12250e-01        00000 
-5.40260e-02 -1.09429e-01        00000 
-2.83446e-02 -8.68036e-02        00000 
-3.90801e-02 -1.07351e-01        00000 
-2.45644e-02 -1.05996e-01        00000 
-3.02918e-03 -8.54447e-02        00000 
-1.03498e-02 -1.05338e-01        00000 
 3.74506e-03 -1.05382e-01        00000 
 2.21730e-02 -8.68861e-02        00000 
 1.79101e-02 -1.06114e-01        00000 
 3.22957e-02 -1.07521e-01        00000 
 4.85769e-02 -9.11975e-02        00000 
 4.70431e-02 -1.09643e-01        00000 
 6.23356e-02 -1.12477e-01        00000 
 7.75331e-02 -9.83497e-02        00000 
 7.83342e-02 -1.15962e-01        00000 
 9.51581e-02 -1.20110e-01        00000 
 1.10096e-01 -1.08106e-01        00000 
 1.12904e-01 -1.24903e-01        00000 
 1.31620e-01 -1.30365e-01        00000 
-1.65081e-01 -1.93690e-01        00000 
-1.88438e-01 -2.21394e-01        00000 
-1.64046e-01 -2.16440e-01        00000 
-1.20968e-01 -1.84981e-01        00000 
-1.40650e-01 -2.12179e-01        00000 
-1.18096e-01 -2.08562e-01        00000 
-7.99809e-02 -1.78729e-01        00000 
-9.62745e-02 -2.05558e-01        00000 
-7.50515e-02 -2.03139e-01        00000 
-4.12044e-02 -1.74973e-01        00000 
-5.43324e-02 -2.01332e-01        00000 
-3.40049e-02 -2.00126e-01        00000 
-3.81979e-03 -1.73787e-01        00000 
-1.39511e-02 -1.99543e-01        00000 
 5.96796e-03 -1.99570e-01        00000 
 3.33634e-02 -1.75182e-01        00000 
 2.59200e-02 -2.00256e-01        00000 
 4.60499e-02 -2.01554e-01        00000 
 7.16621e-02 -1.79094e-01        00000 
 6.65164e-02 -2.03451e-01        00000 
 8.74328e-02 -2.05927e-01        00000 
 1.12124e-01 -1.85363e-01        00000 
 1.08947e-01 -2.08930e-01        00000 
 1.31232e-01 -2.12516e-01        00000 
 1.55927e-01 -1.93814e-01        00000 
 1.54416e-01 -2.16664e-01        00000 
 1.78599e-01 -2.21372e-01        00000 
-2.06510e-01 -3.01224e-01        00000 
-2.30482e-01 -3.33418e-01        00000 
-2.01250e-01 -3.29258e-01        00000 
-1.52200e-01 -2.93786e-01        00000 
-1.73017e-01 -3.25662e-01        00000 
-1.45629e-01 -3.22592e-01        00000 
-1.01106e-01 -2.88401e-01        00000 
-1.18955e-01 -3.20036e-01        00000 
-9.28753e-02 -3.17993e-01        00000 
-5.21875e-02 -2.85188e-01        00000 
-6.72650e-02 -3.16496e-01        00000 
-4.20415e-02 -3.15519e-01        00000 
-4.40728e-03 -2.84175e-01        00000 
-1.70227e-02 -3.15011e-01        00000 
 7.85662e-03 -3.15036e-01        00000 
 4.31460e-02 -2.85326e-01        00000 
 3.27629e-02 -3.15536e-01        00000 
 5.77885e-02 -3.16544e-01        00000 
 9.14459e-02 -2.88584e-01        00000 
 8.30663e-02 -3.18046e-01        00000 
 1.08747e-01 -3.20084e-01        00000 
 1.41764e-01 -2.93865e-01        00000 
 1.35002e-01 -3.22578e-01        00000 
 1.61996e-01 -3.25577e-01        00000 
 1.95417e-01 -3.01036e-01        00000 
 1.89931e-01 -3.29045e-01        00000 
 2.18875e-01 -3.33006e-01        00000 
-2.40792e-01 -4.27381e-01        00000 
-2.64993e-01 -4.63499e-01        00000 
-2.31631e-01 -4.60243e-01        00000 
-1.78041e-01 -4.21513e-01        00000 
-1.99345e-01 -4.57434e-01        00000 
-1.67944e-01 -4.55078e-01        00000 
-1.18513e-01 -4.17330e-01        00000 
-1.37264e-01 -4.53088e-01        00000 
-1.07244e-01 -4.51524e-01        00000 
-6.11684e-02 -4.14765e-01        00000 
-7.77004e-02 -4.50302e-01        00000 
-4.85352e-02 -4.49491e-01        00000 
-5.03857e-03 -4.13817e-01        00000 
-1.95976e-02 -4.48969e-01        00000 
 9.19279e-03 -4.48875e-01        00000 
 5.08816e-02 -4.14477e-01        00000 
 3.80533e-02 -4.49126e-01        00000 
 6.70636e-02 -4.49793e-01        00000 
 1.07707e-01 -4.16809e-01        00000 
 9.63883e-02 -4.50817e-01        00000 
 1.26093e-01 -4.52325e-01        00000 
 1.66430e-01 -4.20889e-01        00000 
 1.56396e-01 -4.54206e-01        00000 
 1.87382e-01 -4.56545e-01        00000 
 2.28417e-01 -4.26626e-01        00000 
 2.19275e-01 -4.59264e-01        00000 
 2.52213e-01 -4.62485e-01        00000 
-2.67362e-01 -5.69602e-01        00000 
-2.91049e-01 -6.08322e-01        00000 
-2.54687e-01 -6.05964e-01        00000 
-1.97888e-01 -5.65133e-01        00000 
-2.19314e-01 -6.03856e-01        00000 
-1.84894e-01 -6.02059e-01        00000 
-1.31888e-01 -5.61837e-01        00000 
-1.51237e-01 -6.00535e-01        00000 
-1.18248e-01 -5.99287e-01        00000 
-6.81730e-02 -5.59702e-01        00000 
-8.57486e-02 -5.98300e-01        00000 
-5.36337e-02 -5.97593e-01        00000 
-5.64884e-03 -5.58766e-01        00000 
-2.17606e-02 -5.97117e-01        00000 
 1.00370e-02 -5.96935e-01        00000 
 5.67565e-02 -5.59018e-01        00000 
 4.18991e-02 -5.97012e-01        00000 
 7.39462e-02 -5.97381e-01        00000 
 1.20256e-01 -5.60538e-01        00000 
 1.06361e-01 -5.98013e-01        00000 
 1.39256e-01 -5.99020e-01        00000 
 1.85825e-01 -5.63428e-01        00000 
 1.72748e-01 -6.00309e-01        00000 
 2.06958e-01 -6.01952e-01        00000 
 2.54588e-01 -5.67705e-01        00000 
 2.42043e-01 -6.03917e-01        00000 
 2.78203e-01 -6.06282e-01        00000 
-2.86065e-01 -7.22302e-01        00000 
-3.08988e-01 -7.62466e-01        00000 
-2.70544e-01 -7.60878e-01        00000 
-2.12046e-01 -7.19388e-01        00000 
-2.33030e-01 -7.59621e-01        00000 
-1.96434e-01 -7.58584e-01        00000 
-1.41417e-01 -7.17325e-01        00000 
-1.60695e-01 -7.57757e-01        00000 
-1.25669e-01 -7.57103e-01        00000 
-7.32845e-02 -7.16011e-01        00000 
-9.12077e-02 -7.56591e-01        00000 
-5.71554e-02 -7.56240e-01        00000 
-6.32251e-03 -7.15379e-01        00000 
-2.33397e-02 -7.55972e-01        00000 
 1.04337e-02 -7.55872e-01        00000 
 6.06275e-02 -7.15503e-01        00000 
 4.43062e-02 -7.55906e-01        00000 
 7.84062e-02 -7.56120e-01        00000 
 1.28801e-01 -7.16386e-01        00000 
 1.12864e-01 -7.56457e-01        00000 
 1.47894e-01 -7.57004e-01        00000 
 1.99330e-01 -7.18116e-01        00000 
 1.83652e-01 -7.57709e-01        00000 
 2.20242e-01 -7.58702e-01        00000 
 2.73317e-01 -7.20903e-01        00000 
 2.57746e-01 -7.59956e-01        00000 
 2.96311e-01 -7.61502e-01        00000 
-2.98003e-01 -8.82463e-01        00000 
-3.20559e-01 -9.24359e-01        00000 
-2.79644e-01 -9.23575e-01        00000 
-2.19915e-01 -8.81104e-01        00000 
-2.40156e-01 -9.22990e-01        00000 
-2.02005e-01 -9.22438e-01        00000 
-1.46289e-01 -8.80203e-01        00000 
-1.65035e-01 -9.21942e-01        00000 
-1.28955e-01 -9.21488e-01        00000 
-7.58176e-02 -8.79591e-01        00000 
-9.36218e-02 -9.21124e-01        00000 
-5.87126e-02 -9.20853e-01        00000 
-6.65558e-03 -8.79284e-01        00000 
-2.40491e-02 -9.20689e-01        00000 
 1.06033e-02 -9.20605e-01        00000 
 6.25548e-02 -8.79353e-01        00000 
 4.53205e-02 -9.20693e-01        00000 
 8.03735e-02 -9.20870e-01        00000 
 1.33264e-01 -8.79793e-01        00000 
 1.15837e-01 -9.21214e-01        00000 
 1.52015e-01 -9.21597e-01        00000 
 2.07053e-01 -8.80563e-01        00000 
 1.89064e-01 -9.22085e-01        00000 
 2.27283e-01 -9.22574e-01        00000 
 2.85249e-01 -8.81822e-01        00000 
 2.66842e-01 -9.23097e-01        00000 
 3.07854e-01 -9.23877e-01        00000 
-2.37139e-02 -1.78179e-02        00000 
-4.12147e-02 -3.22865e-02        00000 
-1.55782e-02 -1.13069e-02        00000 
-2.71765e-02 -2.25146e-02        00000 
-9.26853e-03 -8.09544e-03        00000 
-1.67653e-02 -1.71499e-02        00000 
-3.58170e-03 -6.67471e-03        00000 
-7.69654e-03 -1.45914e-02        00000 
 1.97281e-03 -6.61781e-03        00000 
 9.84765e-04 -1.40550e-02        00000 
 7.69925e-03 -7.87802e-03        00000 
 9.76227e-03 -1.53926e-02        00000 
 1.40300e-02 -1.08714e-02        00000 
 1.93573e-02 -1.89109e-02        00000 
 2.21114e-02 -1.69638e-02        00000 
 3.10617e-02 -2.56886e-02        00000 
 3.86603e-02 -2.99934e-02        00000 
 4.87971e-02 -3.77076e-02        00000 
-7.61326e-02 -6.97617e-02        00000 
-9.56703e-02 -8.86083e-02        00000 
-5.18842e-02 -6.02707e-02        00000 
-6.73047e-02 -7.85897e-02        00000 
-3.07958e-02 -5.42419e-02        00000 
-4.21040e-02 -7.17386e-02        00000 
-1.16482e-02 -5.13518e-02        00000 
-1.91722e-02 -6.80552e-02        00000 
 6.90318e-03 -5.13101e-02        00000 
 2.73349e-03 -6.73646e-02        00000 
 2.59296e-02 -5.40370e-02        00000 
 2.48571e-02 -6.95003e-02        00000 
 4.67918e-02 -5.97185e-02        00000 
 4.84970e-02 -7.45164e-02        00000 
 7.10374e-02 -6.85842e-02        00000 
 7.51060e-02 -8.25738e-02        00000 
 9.95734e-02 -8.01117e-02        00000 
 1.05614e-01 -9.35568e-02        00000 
-1.22045e-01 -1.42936e-01        00000 
-1.42928e-01 -1.67688e-01        00000 
-8.53546e-02 -1.34886e-01        00000 
-1.02524e-01 -1.59145e-01        00000 
-5.13051e-02 -1.29503e-01        00000 
-6.49761e-02 -1.53262e-01        00000 
-1.91616e-02 -1.26871e-01        00000 
-2.94629e-02 -1.50034e-01        00000 
 1.21207e-02 -1.27000e-01        00000 
 4.87337e-03 -1.49501e-01        00000 
 4.39651e-02 -1.29798e-01        00000 
 3.93925e-02 -1.51631e-01        00000 
 7.75894e-02 -1.35260e-01        00000 
 7.53452e-02 -1.56291e-01        00000 
 1.14119e-01 -1.43198e-01        00000 
 1.13865e-01 -1.63447e-01        00000 
 1.54493e-01 -1.53330e-01        00000 
 1.55933e-01 -1.73071e-01        00000 
-1.61520e-01 -2.40606e-01        00000 
-1.83497e-01 -2.70432e-01        00000 
-1.13770e-01 -2.33642e-01        00000 
-1.32433e-01 -2.63087e-01        00000 
-6.87471e-02 -2.28988e-01        00000 
-8.43646e-02 -2.58010e-01        00000 
-2.54482e-02 -2.26645e-01        00000 
-3.82230e-02 -2.55178e-01        00000 
 1.70999e-02 -2.26747e-01        00000 
 6.97593e-03 -2.54712e-01        00000 
 6.00078e-02 -2.29268e-01        00000 
 5.22210e-02 -2.56545e-01        00000 
 1.04398e-01 -2.33980e-01        00000 
 9.85479e-02 -2.60531e-01        00000 
 1.51478e-01 -2.40792e-01        00000 
 1.47243e-01 -2.66594e-01        00000 
 2.02482e-01 -2.49553e-01        00000 
 1.99565e-01 -2.74832e-01        00000 
-1.94745e-01 -3.58564e-01        00000 