<?xml version="1.0" encoding="utf-8"?>
<VTKFile byte_order="LittleEndian" type="UnstructuredGrid" version="0.1">
   <UnstructuredGrid>
      <Piece NumberOfCells="1296" NumberOfPoints="685">
         <Points>
            <DataArray Name="Points" NumberOfComponents="3" format="ascii" type="Float32">
0.0000 0.0000 0.0000
0.0000 0.1111 0.0000
0.0000 0.2222 0.0000
0.0000 0.3333 0.0000
0.0000 0.4444 0.0000
0.0000 0.5556 0.0000
0.0000 0.6667 0.0000
0.0000 0.7778 0.0000
0.0000 0.8889 0.0000
0.0000 1.0000 0.0000
0.2222 0.0000 0.0000
0.2222 0.1111 0.0000
0.2222 0.2222 0.0000
0.2222 0.3333 0.0000
0.2222 0.4444 0.0000
0.2222 0.5556 0.0000
0.2222 0.6667 0.0000
0.2222 0.7778 0.0000
0.2222 0.8889 0.0000
0.2222 1.0000 0.0000
0.4444 0.0000 0.0000
0.4444 0.1111 0.0000
0.4444 0.2222 0.0000
0.4444 0.3333 0.0000
0.4444 0.4444 0.0000
0.4444 0.5556 0.0000
0.4444 0.6667 0.0000
0.4444 0.7778 0.0000
0.4444 0.8889 0.0000
0.4444 1.0000 0.0000
0.6667 0.0000 0.0000
0.6667 0.1111 0.0000
0.6667 0.2222 0.0000
0.6667 0.3333 0.0000
0.6667 0.4444 0.0000
0.6667 0.5556 0.0000
0.6667 0.6667 0.0000
0.6667 0.7778 0.0000
0.6667 0.8889 0.0000
0.6667 1.0000 0.0000
0.8889 0.0000 0.0000
0.8889 0.1111 0.0000
0.8889 0.2222 0.0000
0.8889 0.3333 0.0000
0.8889 0.4444 0.0000
0.8889 0.5556 0.0000
0.8889 0.6667 0.0000
0.8889 0.7778 0.0000
0.8889 0.8889 0.0000
0.8889 1.0000 0.0000
1.1111 0.0000 0.0000
1.1111 0.1111 0.0000
1.1111 0.2222 0.0000
1.1111 0.3333 0.0000
1.1111 0.4444 0.0000
1.1111 0.5556 0.0000
1.1111 0.6667 0.0000
1.1111 0.7778 0.0000
1.1111 0.8889 0.0000
1.1111 1.0000 0.0000
1.3333 0.0000 0.0000
1.3333 0.1111 0.0000
1.3333 0.2222 0.0000
1.3333 0.3333 0.0000
1.3333 0.4444 0.0000
1.3333 0.5556 0.0000
1.3333 0.6667 0.0000
1.3333 0.7778 0.0000
1.3333 0.8889 0.0000
1.3333 1.0000 0.0000
1.5556 0.0000 0.0000
1.5556 0.1111 0.0000
1.5556 0.2222 0.0000
1.5556 0.3333 0.0000
1.5556 0.4444 0.0000
1.5556 0.5556 0.0000
1.5556 0.6667 0.0000
1.5556 0.7778 0.0000
1.5556 0.8889 0.0000
1.5556 1.0000 0.0000
1.7778 0.0000 0.0000
1.7778 0.1111 0.0000
1.7778 0.2222 0.0000
1.7778 0.3333 0.0000
1.7778 0.4444 0.0000
1.7778 0.5556 0.0000
1.7778 0.6667 0.0000
1.7778 0.7778 0.0000
1.7778 0.8889 0.0000
1.7778 1.0000 0.0000
2.0000 0.0000 0.0000
2.0000 0.1111 0.0000
2.0000 0.2222 0.0000
2.0000 0.3333 0.0000
2.0000 0.4444 0.0000
2.0000 0.5556 0.0000
2.0000 0.6667 0.0000
2.0000 0.7778 0.0000
2.0000 0.8889 0.0000
2.0000 1.0000 0.0000
0.1111 0.0556 0.0000
0.1111 0.1667 0.0000
0.1111 0.2778 0.0000
0.1111 0.3889 0.0000
0.1111 0.5000 0.0000
0.1111 0.6111 0.0000
0.1111 0.7222 0.0000
0.1111 0.8333 0.0000
0.1111 0.9444 0.0000
0.3333 0.0556 0.0000
0.3333 0.1667 0.0000
0.3333 0.2778 0.0000
0.3333 0.3889 0.0000
0.3333 0.5000 0.0000
0.3333 0.6111 0.0000
0.3333 0.7222 0.0000
0.3333 0.8333 0.0000
0.3333 0.9444 0.0000
0.5556 0.0556 0.0000
0.5556 0.1667 0.0000
0.5556 0.2778 0.0000
0.5556 0.3889 0.0000
0.5556 0.5000 0.0000
0.5556 0.6111 0.0000
0.5556 0.7222 0.0000
0.5556 0.8333 0.0000
0.5556 0.9444 0.0000
0.7778 0.0556 0.0000
0.7778 0.1667 0.0000
0.7778 0.2778 0.0000
0.7778 0.3889 0.0000
0.7778 0.5000 0.0000
0.7778 0.6111 0.0000
0.7778 0.7222 0.0000
0.7778 0.8333 0.0000
0.7778 0.9444 0.0000
1.0000 0.0556 0.0000
1.0000 0.1667 0.0000
1.0000 0.2778 0.0000
1.0000 0.3889 0.0000
1.0000 0.5000 0.0000
1.0000 0.6111 0.0000
1.0000 0.7222 0.0000
1.0000 0.8333 0.0000
1.0000 0.9444 0.0000
1.2222 0.0556 0.0000
1.2222 0.1667 0.0000
1.2222 0.2778 0.0000
1.2222 0.3889 0.0000
1.2222 0.5000 0.0000
1.2222 0.6111 0.0000
1.2222 0.7222 0.0000
1.2222 0.8333 0.0000
1.2222 0.9444 0.0000
1.4444 0.0556 0.0000
1.4444 0.1667 0.0000
1.4444 0.2778 0.0000
1.4444 0.3889 0.0000
1.4444 0.5000 0.0000
1.4444 0.6111 0.0000
1.4444 0.7222 0.0000
1.4444 0.8333 0.0000
1.4444 0.9444 0.0000
1.6667 0.0556 0.0000
1.6667 0.1667 0.0000
1.6667 0.2778 0.0000
1.6667 0.3889 0.0000
1.6667 0.5000 0.0000
1.6667 0.6111 0.0000
1.6667 0.7222 0.0000
1.6667 0.8333 0.0000
1.6667 0.9444 0.0000
1.8889 0.0556 0.0000
1.8889 0.1667 0.0000
1.8889 0.2778 0.0000
1.8889 0.3889 0.0000
1.8889 0.5000 0.0000
1.8889 0.6111 0.0000
1.8889 0.7222 0.0000
1.8889 0.8333 0.0000
1.8889 0.9444 0.0000
0.0000 0.0556 0.0000
0.0556 0.0278 0.0000
0.0556 0.0833 0.0000
0.0000 0.1667 0.0000
0.0556 0.1389 0.0000
0.0556 0.1944 0.0000
0.0000 0.2778 0.0000
0.0556 0.2500 0.0000
0.0556 0.3056 0.0000
0.0000 0.3889 0.0000
0.0556 0.3611 0.0000
0.0556 0.4167 0.0000
0.0000 0.5000 0.0000
0.0556 0.4722 0.0000
0.0556 0.5278 0.0000
0.0000 0.6111 0.0000
0.0556 0.5833 0.0000
0.0556 0.6389 0.0000
0.0000 0.7222 0.0000
0.0556 0.6944 0.0000
0.0556 0.7500 0.0000
0.0000 0.8333 0.0000
0.0556 0.8056 0.0000
0.0556 0.8611 0.0000
0.0000 0.9444 0.0000
0.0556 0.9167 0.0000
0.0556 0.9722 0.0000
0.2222 0.0556 0.0000
0.2778 0.0278 0.0000
0.2778 0.0833 0.0000
0.2222 0.1667 0.0000
0.2778 0.1389 0.0000
0.2778 0.1944 0.0000
0.2222 0.2778 0.0000
0.2778 0.2500 0.0000
0.2778 0.3056 0.0000
0.2222 0.3889 0.0000
0.2778 0.3611 0.0000
0.2778 0.4167 0.0000
0.2222 0.5000 0.0000
0.2778 0.4722 0.0000
0.2778 0.5278 0.0000
0.2222 0.6111 0.0000
0.2778 0.5833 0.0000
0.2778 0.6389 0.0000
0.2222 0.7222 0.0000
0.2778 0.6944 0.0000
0.2778 0.7500 0.0000
0.2222 0.8333 0.0000
0.2778 0.8056 0.0000
0.2778 0.8611 0.0000
0.2222 0.9444 0.0000
0.2778 0.9167 0.0000
0.2778 0.9722 0.0000
0.4444 0.0556 0.0000
0.5000 0.0278 0.0000
0.5000 0.0833 0.0000
0.4444 0.1667 0.0000
0.5000 0.1389 0.0000
0.5000 0.1944 0.0000
0.4444 0.2778 0.0000
0.5000 0.2500 0.0000
0.5000 0.3056 0.0000
0.4444 0.3889 0.0000
0.5000 0.3611 0.0000
0.5000 0.4167 0.0000
0.4444 0.5000 0.0000
0.5000 0.4722 0.0000
0.5000 0.5278 0.0000
0.4444 0.6111 0.0000
0.5000 0.5833 0.0000
0.5000 0.6389 0.0000
0.4444 0.7222 0.0000
0.5000 0.6944 0.0000
0.5000 0.7500 0.0000
0.4444 0.8333 0.0000
0.5000 0.8056 0.0000
0.5000 0.8611 0.0000
0.4444 0.9444 0.0000
0.5000 0.9167 0.0000
0.5000 0.9722 0.0000
0.6667 0.0556 0.0000
0.7222 0.0278 0.0000
0.7222 0.0833 0.0000
0.6667 0.1667 0.0000
0.7222 0.1389 0.0000
0.7222 0.1944 0.0000
0.6667 0.2778 0.0000
0.7222 0.2500 0.0000
0.7222 0.3056 0.0000
0.6667 0.3889 0.0000
0.7222 0.3611 0.0000
0.7222 0.4167 0.0000
0.6667 0.5000 0.0000
0.7222 0.4722 0.0000
0.7222 0.5278 0.0000
0.6667 0.6111 0.0000
0.7222 0.5833 0.0000
0.7222 0.6389 0.0000
0.6667 0.7222 0.0000
0.7222 0.6944 0.0000
0.7222 0.7500 0.0000
0.6667 0.8333 0.0000
0.7222 0.8056 0.0000
0.7222 0.8611 0.0000
0.6667 0.9444 0.0000
0.7222 0.9167 0.0000
0.7222 0.9722 0.0000
0.8889 0.0556 0.0000
0.9444 0.0278 0.0000
0.9444 0.0833 0.0000
0.8889 0.1667 0.0000
0.9444 0.1389 0.0000
0.9444 0.1944 0.0000
0.8889 0.2778 0.0000
0.9444 0.2500 0.0000
0.9444 0.3056 0.0000
0.8889 0.3889 0.0000
0.9444 0.3611 0.0000
0.9444 0.4167 0.0000
0.8889 0.5000 0.0000
0.9444 0.4722 0.0000
0.9444 0.5278 0.0000
0.8889 0.6111 0.0000
0.9444 0.5833 0.0000
0.9444 0.6389 0.0000
0.8889 0.7222 0.0000
0.9444 0.6944 0.0000
0.9444 0.7500 0.0000
0.8889 0.8333 0.0000
0.9444 0.8056 0.0000
0.9444 0.8611 0.0000
0.8889 0.9444 0.0000
0.9444 0.9167 0.0000
0.9444 0.9722 0.0000
1.1111 0.0556 0.0000
1.1667 0.0278 0.0000
1.1667 0.0833 0.0000
1.1111 0.1667 0.0000
1.1667 0.1389 0.0000
1.1667 0.1944 0.0000
1.1111 0.2778 0.0000
1.1667 0.2500 0.0000
1.1667 0.3056 0.0000
1.1111 0.3889 0.0000
1.1667 0.3611 0.0000
1.1667 0.4167 0.0000
1.1111 0.5000 0.0000
1.1667 0.4722 0.0000
1.1667 0.5278 0.0000
1.1111 0.6111 0.0000
1.1667 0.5833 0.0000
1.1667 0.6389 0.0000
1.1111 0.7222 0.0000
1.1667 0.6944 0.0000
1.1667 0.7500 0.0000
1.1111 0.8333 0.0000
1.1667 0.8056 0.0000
1.1667 0.8611 0.0000
1.1111 0.9444 0.0000
1.1667 0.9167 0.0000
1.1667 0.9722 0.0000
1.3333 0.0556 0.0000
1.3889 0.0278 0.0000
1.3889 0.0833 0.0000
1.3333 0.1667 0.0000
1.3889 0.1389 0.0000
1.3889 0.1944 0.0000
1.3333 0.2778 0.0000
1.3889 0.2500 0.0000
1.3889 0.3056 0.0000
1.3333 0.3889 0.0000
1.3889 0.3611 0.0000
1.3889 0.4167 0.0000
1.3333 0.5000 0.0000
1.3889 0.4722 0.0000
1.3889 0.5278 0.0000
1.3333 0.6111 0.0000
1.3889 0.5833 0.0000
1.3889 0.6389 0.0000
1.3333 0.7222 0.0000
1.3889 0.6944 0.0000
1.3889 0.7500 0.0000
1.3333 0.8333 0.0000
1.3889 0.8056 0.0000
1.3889 0.8611 0.0000
1.3333 0.9444 0.0000
1.3889 0.9167 0.0000
1.3889 0.9722 0.0000
1.5556 0.0556 0.0000
1.6111 0.0278 0.0000
1.6111 0.0833 0.0000
1.5556 0.1667 0.0000
1.6111 0.1389 0.0000
1.6111 0.1944 0.0000
1.5556 0.2778 0.0000
1.6111 0.2500 0.0000
1.6111 0.3056 0.0000
1.5556 0.3889 0.0000
1.6111 0.3611 0.0000
1.6111 0.4167 0.0000
1.5556 0.5000 0.0000
1.6111 0.4722 0.0000
1.6111 0.5278 0.0000
1.5556 0.6111 0.0000
1.6111 0.5833 0.0000
1.6111 0.6389 0.0000
1.5556 0.7222 0.0000
1.6111 0.6944 0.0000
1.6111 0.7500 0.0000
1.5556 0.8333 0.0000
1.6111 0.8056 0.0000
1.6111 0.8611 0.0000
1.5556 0.9444 0.0000
1.6111 0.9167 0.0000
1.6111 0.9722 0.0000
1.7778 0.0556 0.0000
1.8333 0.0278 0.0000
1.8333 0.0833 0.0000
1.7778 0.1667 0.0000
1.8333 0.1389 0.0000
1.8333 0.1944 0.0000
1.7778 0.2778 0.0000
1.8333 0.2500 0.0000
1.8333 0.3056 0.0000
1.7778 0.3889 0.0000
1.8333 0.3611 0.0000
1.8333 0.4167 0.0000
1.7778 0.5000 0.0000
1.8333 0.4722 0.0000
1.8333 0.5278 0.0000
1.7778 0.6111 0.0000
1.8333 0.5833 0.0000
1.8333 0.6389 0.0000
1.7778 0.7222 0.0000
1.8333 0.6944 0.0000
1.8333 0.7500 0.0000
1.7778 0.8333 0.0000
1.8333 0.8056 0.0000
1.8333 0.8611 0.0000
1.7778 0.9444 0.0000
1.8333 0.9167 0.0000
1.8333 0.9722 0.0000
0.1111 0.1111 0.0000
0.1667 0.0833 0.0000
0.1111 0.2222 0.0000
0.1667 0.1944 0.0000
0.1111 0.3333 0.0000
0.1667 0.3056 0.0000
0.1111 0.4444 0.0000
0.1667 0.4167 0.0000
0.1111 0.5556 0.0000
0.1667 0.5278 0.0000
0.1111 0.6667 0.0000
0.1667 0.6389 0.0000
0.1111 0.7778 0.0000
0.1667 0.7500 0.0000
0.1111 0.8889 0.0000
0.1667 0.8611 0.0000
0.1111 1.0000 0.0000
0.1667 0.9722 0.0000
0.3333 0.1111 0.0000
0.3889 0.0833 0.0000
0.3333 0.2222 0.0000
0.3889 0.1944 0.0000
0.3333 0.3333 0.0000
0.3889 0.3056 0.0000
0.3333 0.4444 0.0000
0.3889 0.4167 0.0000
0.3333 0.5556 0.0000
0.3889 0.5278 0.0000
0.3333 0.6667 0.0000
0.3889 0.6389 0.0000
0.3333 0.7778 0.0000
0.3889 0.7500 0.0000
0.3333 0.8889 0.0000
0.3889 0.8611 0.0000
0.3333 1.0000 0.0000
0.3889 0.9722 0.0000
0.5556 0.1111 0.0000
[...]
         <PointData>
            <DataArray Name="fValues" NumberOfComponents="3" format="ascii" type="Float64">
 1.83565e-15 -1.22377e-15        00000 
-4.29177e-16  3.30136e-17        00000 
-7.71016e-17  2.45745e-16        00000 
-1.24937e-15 -2.63026e-16        00000 
 8.21304e-17 -2.98093e-16        00000 
-8.21957e-17  9.86348e-17        00000 
 6.68506e-17  1.54717e-16        00000 
 4.92728e-16 -2.95637e-16        00000 
-7.92517e-16  7.92517e-16        00000 
 1.22377e-15 -1.22377e-15        00000 
-2.93790e+01 -2.16688e+01        00000 
-2.02365e+01 -1.64685e+01        00000 
-1.34901e+01 -1.27811e+01        00000 
-8.20093e+00 -1.05617e+01        00000 
-3.42714e+00 -9.38696e+00        00000 
 1.30526e+00 -9.07545e+00        00000 
 6.32477e+00 -9.81607e+00        00000 
 1.19723e+01 -1.15736e+01        00000 
 1.86158e+01 -1.48586e+01        00000 
 2.71521e+01 -1.96157e+01        00000 
-5.36870e+01 -4.55573e+01        00000 
-4.00989e+01 -4.08622e+01        00000 
-2.80302e+01 -3.71872e+01        00000 
-1.72624e+01 -3.46982e+01        00000 
-6.97695e+00 -3.32331e+01        00000 
 3.16940e+00 -3.28645e+01        00000 
 1.35190e+01 -3.37153e+01        00000 
 2.46875e+01 -3.58284e+01        00000 
 3.70866e+01 -3.90157e+01        00000 
 5.08592e+01 -4.33698e+01        00000 
-7.60117e+01 -7.79141e+01        00000 
-5.81621e+01 -7.37448e+01        00000 
-4.12765e+01 -7.06036e+01        00000 
-2.54321e+01 -6.85341e+01        00000 
-1.01601e+01 -6.75051e+01        00000 
 4.97856e+00 -6.73951e+01        00000 
 2.01209e+01 -6.82820e+01        00000 
 3.61707e+01 -7.02120e+01        00000 
 5.34716e+01 -7.31188e+01        00000 
 7.17502e+01 -7.67930e+01        00000 
-9.68269e+01 -1.19757e+02        00000 
-7.39804e+01 -1.15980e+02        00000 
-5.25577e+01 -1.13403e+02        00000 
-3.21440e+01 -1.11727e+02        00000 
-1.26314e+01 -1.10936e+02        00000 
 6.62382e+00 -1.11019e+02        00000 
 2.61769e+01 -1.11897e+02        00000 
 4.64800e+01 -1.13753e+02        00000 
 6.78050e+01 -1.16471e+02        00000 
 9.06832e+01 -1.19975e+02        00000 
-1.14387e+02 -1.71247e+02        00000 
-8.75808e+01 -1.68098e+02        00000 
-6.21960e+01 -1.65696e+02        00000 
-3.80013e+01 -1.64187e+02        00000 
-1.46892e+01 -1.63481e+02        00000 
 8.42414e+00 -1.63565e+02        00000 
 3.16837e+01 -1.64406e+02        00000 
 5.55893e+01 -1.66166e+02        00000 
 8.06588e+01 -1.68775e+02        00000 
 1.07237e+02 -1.71862e+02        00000 
-1.28974e+02 -2.29742e+02        00000 
-9.85885e+01 -2.27331e+02        00000 
-6.99396e+01 -2.25675e+02        00000 
-4.26529e+01 -2.24762e+02        00000 
-1.62686e+01 -2.24485e+02        00000 
 9.94283e+00 -2.24619e+02        00000 
 3.64486e+01 -2.25194e+02        00000 
 6.36005e+01 -2.26350e+02        00000 
 9.19967e+01 -2.28076e+02        00000 
 1.22207e+02 -2.30578e+02        00000 
-1.40292e+02 -2.95586e+02        00000 
-1.06689e+02 -2.93942e+02        00000 
-7.49711e+01 -2.92966e+02        00000 
-4.52480e+01 -2.92501e+02        00000 
-1.68719e+01 -2.92430e+02        00000 
 1.11767e+01 -2.92687e+02        00000 
 3.98208e+01 -2.93125e+02        00000 
 6.94176e+01 -2.93807e+02        00000 
 1.00784e+02 -2.95091e+02        00000 
 1.33993e+02 -2.96914e+02        00000 
-1.48193e+02 -3.68182e+02        00000 
-1.11676e+02 -3.67175e+02        00000 
-7.79145e+01 -3.66488e+02        00000 
-4.65357e+01 -3.65902e+02        00000 
-1.67410e+01 -3.65650e+02        00000 
 1.24142e+01 -3.65774e+02        00000 
 4.20235e+01 -3.66035e+02        00000 
 7.30809e+01 -3.66302e+02        00000 
 1.06277e+02 -3.66684e+02        00000 
 1.42475e+02 -3.67630e+02        00000 
-1.53356e+02 -4.50001e+02        00000 
-1.13875e+02 -4.47315e+02        00000 
-7.96893e+01 -4.44267e+02        00000 
-4.76450e+01 -4.41917e+02        00000 
-1.68218e+01 -4.40501e+02        00000 
 1.29399e+01 -4.39998e+02        00000 
 4.28571e+01 -4.40840e+02        00000 
 7.44529e+01 -4.43164e+02        00000 
 1.08878e+02 -4.46541e+02        00000 
 1.48549e+02 -4.49593e+02        00000 
-1.19769e+01 -9.33172e+00        00000 
-7.71088e+00 -5.60430e+00        00000 
-4.96369e+00 -3.74957e+00        00000 
-2.70467e+00 -2.73944e+00        00000 
-5.40397e-01 -2.31352e+00        00000 
 1.73043e+00 -2.39065e+00        00000 
 4.20928e+00 -3.08739e+00        00000 
 7.05202e+00 -4.74203e+00        00000 
 1.09607e+01 -8.22616e+00        00000 
-3.59224e+01 -2.99323e+01        00000 
-2.54624e+01 -2.54919e+01        00000 
-1.66400e+01 -2.23416e+01        00000 
-8.91001e+00 -2.02954e+01        00000 
-1.52660e+00 -1.94659e+01        00000 
 5.99782e+00 -1.97111e+01        00000 
 1.40501e+01 -2.11363e+01        00000 
 2.31342e+01 -2.38467e+01        00000 
 3.34767e+01 -2.78657e+01        00000 
-5.70600e+01 -5.84165e+01        00000 
-4.19986e+01 -5.43989e+01        00000 
-2.80424e+01 -5.14543e+01        00000 
-1.50100e+01 -4.96395e+01        00000 
-2.36282e+00 -4.89441e+01        00000 
 1.03936e+01 -4.92145e+01        00000 
 2.35585e+01 -5.06445e+01        00000 
 3.79457e+01 -5.31820e+01        00000 
 5.34761e+01 -5.69249e+01        00000 
-7.63755e+01 -9.55000e+01        00000 
-5.65844e+01 -9.20994e+01        00000 
-3.79553e+01 -8.97450e+01        00000 
-2.00330e+01 -8.84088e+01        00000 
-2.79179e+00 -8.79944e+01        00000 
 1.44651e+01 -8.83740e+01        00000 
 3.22077e+01 -8.98314e+01        00000 
 5.09688e+01 -9.21908e+01        00000 
 7.09095e+01 -9.53521e+01        00000 
-9.33754e+01 -1.42474e+02        00000 
-6.90835e+01 -1.39535e+02        00000 
-4.62287e+01 -1.37549e+02        00000 
-2.43252e+01 -1.36483e+02        00000 
-3.09088e+00 -1.36170e+02        00000 
 1.82093e+01 -1.36723e+02        00000 
 3.99012e+01 -1.38108e+02        00000 
 6.25620e+01 -1.40240e+02        00000 
 8.66616e+01 -1.43166e+02        00000 
-1.07559e+02 -1.98144e+02        00000 
-7.97303e+01 -1.95749e+02        00000 
-5.33832e+01 -1.94090e+02        00000 
-2.79897e+01 -1.93112e+02        00000 
-3.16100e+00 -1.92795e+02        00000 
 2.16640e+01 -1.93270e+02        00000 
 4.69363e+01 -1.94424e+02        00000 
 7.31122e+01 -1.96367e+02        00000 
 1.00508e+02 -1.98953e+02        00000 
-1.18837e+02 -2.60716e+02        00000 
-8.76722e+01 -2.59063e+02        00000 
-5.83620e+01 -2.58163e+02        00000 
-3.03425e+01 -2.57851e+02        00000 
-3.14274e+00 -2.57891e+02        00000 
 2.42256e+01 -2.58193e+02        00000 
 5.23410e+01 -2.58789e+02        00000 
 8.14734e+01 -2.59894e+02        00000 
 1.12457e+02 -2.61724e+02        00000 
-1.26825e+02 -3.30232e+02        00000 
-9.28271e+01 -3.29297e+02        00000 
-6.10763e+01 -3.28788e+02        00000 
-3.13340e+01 -3.28579e+02        00000 
-2.52034e+00 -3.28588e+02        00000 
 2.64684e+01 -3.28749e+02        00000 
 5.63387e+01 -3.29128e+02        00000 
 8.76556e+01 -3.29822e+02        00000 
 1.21024e+02 -3.30773e+02        00000 
-1.31477e+02 -4.06381e+02        00000 
-9.54389e+01 -4.05634e+02        00000 
-6.26856e+01 -4.04557e+02        00000 
-3.17116e+01 -4.03659e+02        00000 
-1.88925e+00 -4.03253e+02        00000 
 2.74698e+01 -4.03464e+02        00000 
 5.77646e+01 -4.04009e+02        00000 
 9.02790e+01 -4.04779e+02        00000 
 1.26250e+02 -4.05621e+02        00000 
-4.43783e-16 -2.66910e-16        00000 
-6.48731e+00 -4.92575e+00        00000 
-4.97607e+00 -3.46593e+00        00000 
-2.36950e-16  1.83254e-15        00000 
-4.04947e+00 -2.53274e+00        00000 
-3.30640e+00 -1.91700e+00        00000 
 2.49800e-16  1.24900e-16        00000 
-2.68879e+00 -1.48072e+00        00000 
-2.09119e+00 -1.18860e+00        00000 
-3.88389e-16  1.12132e-16        00000 
-1.59267e+00 -9.17638e-01        00000 
-1.00579e+00 -7.23342e-01        00000 
-6.24500e-17 -9.36751e-17        00000 
-4.88214e-01 -5.98283e-01        00000 
 3.29998e-02 -5.55230e-01        00000 
-7.35918e-17  3.80139e-16        00000 
 5.57743e-01 -5.75077e-01        00000 
 1.10967e+00 -6.41573e-01        00000 
-4.99600e-16 -2.49800e-16        00000 
 1.69999e+00 -7.66754e-01        00000 
 2.34587e+00 -1.05885e+00        00000 
 7.49401e-16 -1.24900e-16        00000 
 2.98293e+00 -1.46981e+00        00000 
 3.67556e+00 -2.07934e+00        00000 
-1.16044e-15 -7.96363e-16        00000 
 4.53774e+00 -2.95577e+00        00000 
 5.91426e+00 -4.34372e+00        00000 
-2.45634e+01 -1.90014e+01        00000 
-3.29172e+01 -2.56427e+01        00000 
-2.78317e+01 -2.29638e+01        00000 
-1.66305e+01 -1.44352e+01        00000 
-2.31921e+01 -2.06485e+01        00000 
-1.91590e+01 -1.87493e+01        00000 
-1.07707e+01 -1.15309e+01        00000 
-1.54313e+01 -1.72083e+01        00000 
-1.20431e+01 -1.60336e+01        00000 
-5.74832e+00 -9.86013e+00        00000 
-8.84580e+00 -1.51024e+01        00000 
-5.84403e+00 -1.44279e+01        00000 
-1.09759e+00 -9.11377e+00        00000 
-2.83922e+00 -1.39765e+01        00000 
 2.04081e-01 -1.38251e+01        00000 
 3.76984e+00 -9.33853e+00        00000 
 3.32266e+00 -1.39753e+01        00000 
 6.46417e+00 -1.43630e+01        00000 
 9.05434e+00 -1.05834e+01        00000 
 9.80265e+00 -1.50252e+01        00000 
 1.33297e+01 -1.59853e+01        00000 
 1.50994e+01 -1.30019e+01        00000 
 1.71560e+01 -1.73131e+01        00000 
 2.12186e+01 -1.90344e+01        00000 
 2.26275e+01 -1.71053e+01        00000 
 2.57140e+01 -2.11075e+01        00000 
 3.05908e+01 -2.35345e+01        00000 
-4.66909e+01 -4.31145e+01        00000 
-5.55969e+01 -5.18359e+01        00000 
-4.83189e+01 -4.94552e+01        00000 
-3.38958e+01 -3.89049e+01        00000 
-4.13712e+01 -4.73457e+01        00000 
-3.47363e+01 -4.55321e+01        00000 
-2.25601e+01 -3.58029e+01        00000 
-2.83676e+01 -4.39781e+01        00000 
-2.23155e+01 -4.27611e+01        00000 
-1.20334e+01 -3.38259e+01        00000 
-1.64564e+01 -4.18424e+01        00000 
-1.07066e+01 -4.11834e+01        00000 
-1.90401e+00 -3.28884e+01        00000 
-5.09165e+00 -4.07509e+01        00000 
 7.22860e-01 -4.05984e+01        00000 
 8.24057e+00 -3.31508e+01        00000 
 6.43352e+00 -4.07178e+01        00000 
 1.22063e+01 -4.11647e+01        00000 
 1.89508e+01 -3.46443e+01        00000 
 1.82078e+01 -4.18958e+01        00000 
 2.44248e+01 -4.28652e+01        00000 
 3.07330e+01 -3.72783e+01        00000 
 3.09622e+01 -4.41652e+01        00000 
 3.78384e+01 -4.58001e+01        00000 
 4.37460e+01 -4.10330e+01        00000 
 4.50118e+01 -4.77400e+01        00000 
 5.24799e+01 -4.99862e+01        00000 
-6.69660e+01 -7.57112e+01        00000 
-7.65125e+01 -8.64908e+01        00000 
-6.69783e+01 -8.43704e+01        00000 
-4.95955e+01 -7.20726e+01        00000 
-5.77206e+01 -8.25882e+01        00000 
-4.87202e+01 -8.11179e+01        00000 
-3.32388e+01 -6.94500e+01        00000 
-3.99313e+01 -7.98381e+01        00000 
-3.14048e+01 -7.88517e+01        00000 
-1.77082e+01 -6.78741e+01        00000 
-2.30469e+01 -7.81598e+01        00000 
-1.48456e+01 -7.76994e+01        00000 
-2.64267e+00 -6.73424e+01        00000 
-6.78893e+00 -7.74172e+01        00000 
 1.36582e+00 -7.74040e+01        00000 
 1.24176e+01 -6.77317e+01        00000 
 9.44192e+00 -7.76240e+01        00000 
 1.75574e+01 -7.80774e+01        00000 
 2.79237e+01 -6.91586e+01        00000 
 2.58631e+01 -7.87690e+01        00000 
 3.43636e+01 -7.97583e+01        00000 
 4.46961e+01 -7.15378e+01        00000 
 4.33265e+01 -8.09065e+01        00000 
 5.25288e+01 -8.23304e+01        00000 
 6.24045e+01 -7.48726e+01        00000 
 6.19631e+01 -8.39317e+01        00000 
 7.16487e+01 -8.59162e+01        00000 
-8.52330e+01 -1.17785e+02        00000 
-9.54066e+01 -1.30898e+02        00000 
-8.34848e+01 -1.29042e+02        00000 
-6.30292e+01 -1.14550e+02        00000 
-7.18043e+01 -1.27452e+02        00000 
-6.05695e+01 -1.26166e+02        00000 
-4.22395e+01 -1.12444e+02        00000 
-4.96442e+01 -1.25128e+02        00000 
-3.89438e+01 -1.24363e+02        00000 
-2.22306e+01 -1.11204e+02        00000 
-2.84417e+01 -1.23823e+02        00000 
-1.82343e+01 -1.23460e+02        00000 
-3.01329e+00 -1.10868e+02        00000 
-8.14330e+00 -1.23303e+02        00000 
 2.02920e+00 -1.23356e+02        00000 
 1.63065e+01 -1.11351e+02        00000 
 1.21571e+01 -1.23649e+02        00000 
 2.24229e+01 -1.24118e+02        00000 
 3.62132e+01 -1.12708e+02        00000 
 3.28314e+01 -1.24789e+02        00000 
 4.34697e+01 -1.25631e+02        00000 
 5.69051e+01 -1.14996e+02        00000 
 5.43121e+01 -1.26768e+02        00000 
 6.54424e+01 -1.28108e+02        00000 
 7.90694e+01 -1.18099e+02        00000 
 7.70545e+01 -1.29594e+02        00000 
 8.89935e+01 -1.31362e+02        00000 
-1.00777e+02 -1.69565e+02        00000 
-1.11218e+02 -1.84498e+02        00000 
-9.73591e+01 -1.82961e+02        00000 
-7.47132e+01 -1.66823e+02        00000 
-8.39123e+01 -1.81633e+02        00000 
-7.07866e+01 -1.80552e+02        00000 
-4.99212e+01 -1.64809e+02        00000 
-5.80095e+01 -1.79644e+02        00000 
-4.54731e+01 -1.78915e+02        00000 
-2.62307e+01 -1.63703e+02        00000 
-3.32057e+01 -1.78392e+02        00000 
-2.11189e+01 -1.78050e+02        00000 
-3.16919e+00 -1.63416e+02        00000 
-9.17761e+00 -1.77909e+02        00000 
 2.80818e+00 -1.77977e+02        00000 
 1.99851e+01 -1.63888e+02        00000 
 1.48364e+01 -1.78243e+02        00000 
 2.68706e+01 -1.78644e+02        00000 
 4.35107e+01 -1.65156e+02        00000 
 3.90930e+01 -1.79250e+02        00000 
 5.14783e+01 -1.80092e+02        00000 
 6.79860e+01 -1.67325e+02        00000 
 6.41241e+01 -1.81108e+02        00000 
 7.71727e+01 -1.82320e+02        00000 
 9.36841e+01 -1.70254e+02        00000 
 9.03868e+01 -1.83705e+02        00000 
 1.04059e+02 -1.85314e+02        00000 
-1.13604e+02 -2.28462e+02        00000 
-1.24175e+02 -2.45027e+02        00000 
-1.08568e+02 -2.43866e+02        00000 
-8.40388e+01 -2.26375e+02        00000 
-9.33808e+01 -2.42945e+02        00000 
-7.86301e+01 -2.42188e+02        00000 
-5.62172e+01 -2.25130e+02        00000 
-6.43461e+01 -2.41673e+02        00000 
-5.03870e+01 -2.41316e+02        00000 
-2.94342e+01 -2.24596e+02        00000 
-3.66878e+01 -2.41117e+02        00000 
-2.32102e+01 -2.41036e+02        00000 
-3.19227e+00 -2.24517e+02        00000 
-9.79223e+00 -2.41022e+02        00000 
 3.49067e+00 -2.41087e+02        00000 
 2.31107e+01 -2.24820e+02        00000 
 1.69083e+01 -2.41214e+02        00000 
 3.05273e+01 -2.41425e+02        00000 
 4.98724e+01 -2.25715e+02        00000 
 4.42340e+01 -2.41765e+02        00000 
 5.81196e+01 -2.42277e+02        00000 
 7.75725e+01 -2.27135e+02        00000 
 7.23680e+01 -2.42872e+02        00000 
 8.69545e+01 -2.43639e+02        00000 
 1.06833e+02 -2.29261e+02        00000 
 1.02070e+02 -2.44658e+02        00000 
 1.17593e+02 -2.45957e+02        00000 
-1.23232e+02 -2.94664e+02        00000 
-1.33810e+02 -3.12695e+02        00000 
-1.16613e+02 -3.11910e+02        00000 
-9.05714e+01 -2.93367e+02        00000 
-9.99161e+01 -3.11327e+02        00000 
-8.38002e+01 -3.10949e+02        00000 
-5.98970e+01 -2.92651e+02        00000 
-6.81773e+01 -3.10670e+02        00000 
-5.30671e+01 -3.10480e+02        00000 
-3.09416e+01 -2.92434e+02        00000 
-3.83568e+01 -3.10342e+02        00000 
-2.40892e+01 -3.10325e+02        00000 
-2.85193e+00 -2.92530e+02        00000 
-9.78742e+00 -3.10316e+02        00000 
 4.38263e+00 -3.10403e+02        00000 
 2.54160e+01 -2.92862e+02        00000 
 1.87365e+01 -3.10508e+02        00000 
 3.32232e+01 -3.10712e+02        00000 
 5.44848e+01 -2.93414e+02        00000 
 4.79856e+01 -3.10909e+02        00000 
 6.29796e+01 -3.11255e+02        00000 
 8.48467e+01 -2.94412e+02        00000 
 7.84468e+01 -3.11691e+02        00000 
 9.43632e+01 -3.12203e+02        00000 
 1.17203e+02 -2.95922e+02        00000 
 1.10833e+02 -3.12864e+02        00000 
 1.27714e+02 -3.13662e+02        00000 
-1.29639e+02 -3.67580e+02        00000 
-1.40164e+02 -3.86943e+02        00000 
-1.21433e+02 -3.86598e+02        00000 
-9.44787e+01 -3.66820e+02        00000 
-1.03630e+02 -3.86235e+02        00000 
-8.66348e+01 -3.85892e+02        00000 
-6.19649e+01 -3.66165e+02        00000 
-7.02976e+01 -3.85443e+02        00000 
-5.45276e+01 -3.85054e+02        00000 
-3.15510e+01 -3.65742e+02        00000 
-3.91952e+01 -3.84725e+02        00000 
-2.41477e+01 -3.84512e+02        00000 
-2.19217e+00 -3.65666e+02        00000 
-9.36038e+00 -3.84425e+02        00000 
 5.28764e+00 -3.84488e+02        00000 
 2.70620e+01 -3.65947e+02        00000 
 1.99495e+01 -3.84642e+02        00000 
 3.47289e+01 -3.84820e+02        00000 
 5.73543e+01 -3.66186e+02        00000 
 4.98397e+01 -3.84999e+02        00000 
 6.54519e+01 -3.85164e+02        00000 
 8.93582e+01 -3.66452e+02        00000 
 8.15543e+01 -3.85352e+02        00000 
 9.84161e+01 -3.85616e+02        00000 
 1.24086e+02 -3.67082e+02        00000 
 1.16055e+02 -3.85866e+02        00000 
 1.34779e+02 -3.86395e+02        00000 
-9.55261e+00 -7.11587e+00        00000 
-1.65526e+01 -1.28546e+01        00000 
-6.25719e+00 -4.55429e+00        00000 
-1.08929e+01 -8.92051e+00        00000 
-3.83123e+00 -3.14746e+00        00000 
-6.86143e+00 -6.70892e+00        00000 
-1.59743e+00 -2.47850e+00        00000 
-3.35019e+00 -5.56052e+00        00000 
 5.83347e-01 -2.29827e+00        00000 
 4.50335e-02 -5.10932e+00        00000 
 2.93376e+00 -2.62519e+00        00000 
 3.64365e+00 -5.48469e+00        00000 
 5.60518e+00 -3.76237e+00        00000 
 7.63008e+00 -6.76429e+00        00000 
 8.71944e+00 -6.17464e+00        00000 
 1.23384e+01 -9.34023e+00        00000 
 1.48602e+01 -1.12380e+01        00000 
 1.89903e+01 -1.39934e+01        00000 
-3.04873e+01 -2.75944e+01        00000 
-3.82878e+01 -3.51314e+01        00000 
-2.09041e+01 -2.37942e+01        00000 
-2.70524e+01 -3.10593e+01        00000 
-1.27292e+01 -2.11729e+01        00000 
-1.73170e+01 -2.81364e+01        00000 
-5.22918e+00 -1.97427e+01        00000 
-8.27095e+00 -2.63743e+01        00000 
 2.18247e+00 -1.94692e+01        00000 
 4.71660e-01 -2.57684e+01        00000 
 9.90167e+00 -2.03014e+01        00000 
 9.40148e+00 -2.63496e+01        00000 
 1.84435e+01 -2.23171e+01        00000 
 1.90289e+01 -2.80923e+01        00000 
 2.80708e+01 -2.57395e+01        00000 
 2.97940e+01 -3.10821e+01        00000 
 3.91649e+01 -3.03264e+01        00000 
 4.18670e+01 -3.54076e+01        00000 
-4.94124e+01 -5.62641e+01        00000 
-5.79460e+01 -6.57981e+01        00000 
-3.48873e+01 -5.27894e+01        00000 
-4.19861e+01 -6.21456e+01        00000 
-2.14752e+01 -5.03836e+01        00000 
-2.70368e+01 -5.95971e+01        00000 
-8.70973e+00 -4.91518e+01        00000 
-1.29051e+01 -5.82087e+01        00000 
 3.99546e+00 -4.89481e+01        00000 
 1.01053e+00 -5.78197e+01        00000 
 1.68528e+01 -4.97932e+01        00000 
 1.49545e+01 -5.84297e+01        00000 
 3.05935e+01 -5.17473e+01        00000 
 2.95639e+01 -6.00717e+01        00000 
 4.55690e+01 -5.49212e+01        00000 
 4.54658e+01 -6.28803e+01        00000 
 6.16577e+01 -5.90914e+01        00000 
 6.23686e+01 -6.67600e+01        00000 
-6.63384e+01 -9.36128e+01        00000 
-7.54945e+01 -1.05482e+02        00000 
-4.71778e+01 -9.08068e+01        00000 
-5.48946e+01 -1.02373e+02        00000 
-2.89579e+01 -8.89386e+01        00000 
-3.53340e+01 -1.00376e+02        00000 
-1.14417e+01 -8.80853e+01        00000 
-1.65735e+01 -9.93433e+01        00000 
 5.86228e+00 -8.80599e+01        00000 
 1.69247e+00 -9.91290e+01        00000 
 2.32308e+01 -8.89307e+01        00000 
 2.00085e+01 -9.97720e+01        00000 
 4.14245e+01 -9.09320e+01        00000 
 3.90862e+01 -1.01426e+02        00000 
 6.07990e+01 -9.36387e+01        00000 
 5.91235e+01 -1.04017e+02        00000 
 8.14751e+01 -9.72541e+01        00000 
 8.05028e+01 -1.07539e+02        00000 
-8.11056e+01 -1.40897e+02        00000 