<?xml version="1.0" encoding="utf-8"?>
<VTKFile byte_order="LittleEndian" type="UnstructuredGrid" version="0.1">
   <UnstructuredGrid>
      <Piece NumberOfCells="1296" NumberOfPoints="685">
         <Points>
            <DataArray Name="Points" NumberOfComponents="3" format="ascii" type="Float32">
0.0000 0.0000 0.0000
0.0000 0.1111 0.0000
0.0000 0.2222 0.0000
0.0000 0.3333 0.0000
0.0000 0.4444 0.0000
0.0000 0.5556 0.0000
0.0000 0.6667 0.0000
0.0000 0.7778 0.0000
0.0000 0.8889 0.0000
0.0000 1.0000 0.0000
0.2222 0.0000 0.0000
0.2222 0.1111 0.0000
0.2222 0.2222 0.0000
0.2222 0.3333 0.0000
0.2222 0.4444 0.0000
0.2222 0.5556 0.0000
0.2222 0.6667 0.0000
0.2222 0.7778 0.0000
0.2222 0.8889 0.0000
0.2222 1.0000 0.0000
0.4444 0.0000 0.0000
0.4444 0.1111 0.0000
0.4444 0.2222 0.0000
0.4444 0.3333 0.0000
0.4444 0.4444 0.0000
0.4444 0.5556 0.0000
0.4444 0.6667 0.0000
0.4444 0.7778 0.0000
0.4444 0.8889 0.0000
0.4444 1.0000 0.0000
0.6667 0.0000 0.0000
0.6667 0.1111 0.0000
0.6667 0.2222 0.0000
0.6667 0.3333 0.0000
0.6667 0.4444 0.0000
0.6667 0.5556 0.0000
0.6667 0.6667 0.0000
0.6667 0.7778 0.0000
0.6667 0.8889 0.0000
0.6667 1.0000 0.0000
0.8889 0.0000 0.0000
0.8889 0.1111 0.0000
0.8889 0.2222 0.0000
0.8889 0.3333 0.0000
0.8889 0.4444 0.0000
0.8889 0.5556 0.0000
0.8889 0.6667 0.0000
0.8889 0.7778 0.0000
0.8889 0.8889 0.0000
0.8889 1.0000 0.0000
1.1111 0.0000 0.0000
1.1111 0.1111 0.0000
1.1111 0.2222 0.0000
1.1111 0.3333 0.0000
1.1111 0.4444 0.0000
1.1111 0.5556 0.0000
1.1111 0.6667 0.0000
1.1111 0.7778 0.0000
1.1111 0.8889 0.0000
1.1111 1.0000 0.0000
1.3333 0.0000 0.0000
1.3333 0.1111 0.0000
1.3333 0.2222 0.0000
1.3333 0.3333 0.0000
1.3333 0.4444 0.0000
1.3333 0.5556 0.0000
1.3333 0.6667 0.0000
1.3333 0.7778 0.0000
1.3333 0.8889 0.0000
1.3333 1.0000 0.0000
1.5556 0.0000 0.0000
1.5556 0.1111 0.0000
1.5556 0.2222 0.0000
1.5556 0.3333 0.0000
1.5556 0.4444 0.0000
1.5556 0.5556 0.0000
1.5556 0.6667 0.0000
1.5556 0.7778 0.0000
1.5556 0.8889 0.0000
1.5556 1.0000 0.0000
1.7778 0.0000 0.0000
1.7778 0.1111 0.0000
1.7778 0.2222 0.0000
1.7778 0.3333 0.0000
1.7778 0.4444 0.0000
1.7778 0.5556 0.0000
1.7778 0.6667 0.0000
1.7778 0.7778 0.0000
1.7778 0.8889 0.0000
1.7778 1.0000 0.0000
2.0000 0.0000 0.0000
2.0000 0.1111 0.0000
2.0000 0.2222 0.0000
2.0000 0.3333 0.0000
2.0000 0.4444 0.0000
2.0000 0.5556 0.0000
2.0000 0.6667 0.0000
2.0000 0.7778 0.0000
2.0000 0.8889 0.0000
2.0000 1.0000 0.0000
0.1111 0.0556 0.0000
0.1111 0.1667 0.0000
0.1111 0.2778 0.0000
0.1111 0.3889 0.0000
0.1111 0.5000 0.0000
0.1111 0.6111 0.0000
0.1111 0.7222 0.0000
0.1111 0.8333 0.0000
0.1111 0.9444 0.0000
0.3333 0.0556 0.0000
0.3333 0.1667 0.0000
0.3333 0.2778 0.0000
0.3333 0.3889 0.0000
0.3333 0.5000 0.0000
0.3333 0.6111 0.0000
0.3333 0.7222 0.0000
0.3333 0.8333 0.0000
0.3333 0.9444 0.0000
0.5556 0.0556 0.0000
0.5556 0.1667 0.0000
0.5556 0.2778 0.0000
0.5556 0.3889 0.0000
0.5556 0.5000 0.0000
0.5556 0.6111 0.0000
0.5556 0.7222 0.0000
0.5556 0.8333 0.0000
0.5556 0.9444 0.0000
0.7778 0.0556 0.0000
0.7778 0.1667 0.0000
0.7778 0.2778 0.0000
0.7778 0.3889 0.0000
0.7778 0.5000 0.0000
0.7778 0.6111 0.0000
0.7778 0.7222 0.0000
0.7778 0.8333 0.0000
0.7778 0.9444 0.0000
1.0000 0.0556 0.0000
1.0000 0.1667 0.0000
1.0000 0.2778 0.0000
1.0000 0.3889 0.0000
1.0000 0.5000 0.0000
1.0000 0.6111 0.0000
1.0000 0.7222 0.0000
1.0000 0.8333 0.0000
1.0000 0.9444 0.0000
1.2222 0.0556 0.0000
1.2222 0.1667 0.0000
1.2222 0.2778 0.0000
1.2222 0.3889 0.0000
1.2222 0.5000 0.0000
1.2222 0.6111 0.0000
1.2222 0.7222 0.0000
1.2222 0.8333 0.0000
1.2222 0.9444 0.0000
1.4444 0.0556 0.0000
1.4444 0.1667 0.0000
1.4444 0.2778 0.0000
1.4444 0.3889 0.0000
1.4444 0.5000 0.0000
1.4444 0.6111 0.0000
1.4444 0.7222 0.0000
1.4444 0.8333 0.0000
1.4444 0.9444 0.0000
1.6667 0.0556 0.0000
1.6667 0.1667 0.0000
1.6667 0.2778 0.0000
1.6667 0.3889 0.0000
1.6667 0.5000 0.0000
1.6667 0.6111 0.0000
1.6667 0.7222 0.0000
1.6667 0.8333 0.0000
1.6667 0.9444 0.0000
1.8889 0.0556 0.0000
1.8889 0.1667 0.0000
1.8889 0.2778 0.0000
1.8889 0.3889 0.0000
1.8889 0.5000 0.0000
1.8889 0.6111 0.0000
1.8889 0.7222 0.0000
1.8889 0.8333 0.0000
1.8889 0.9444 0.0000
0.0000 0.0556 0.0000
0.0556 0.0278 0.0000
0.0556 0.0833 0.0000
0.0000 0.1667 0.0000
0.0556 0.1389 0.0000
0.0556 0.1944 0.0000
0.0000 0.2778 0.0000
0.0556 0.2500 0.0000
0.0556 0.3056 0.0000
0.0000 0.3889 0.0000
0.0556 0.3611 0.0000
0.0556 0.4167 0.0000
0.0000 0.5000 0.0000
0.0556 0.4722 0.0000
0.0556 0.5278 0.0000
0.0000 0.6111 0.0000
0.0556 0.5833 0.0000
0.0556 0.6389 0.0000
0.0000 0.7222 0.0000
0.0556 0.6944 0.0000
0.0556 0.7500 0.0000
0.0000 0.8333 0.0000
0.0556 0.8056 0.0000
0.0556 0.8611 0.0000
0.0000 0.9444 0.0000
0.0556 0.9167 0.0000
0.0556 0.9722 0.0000
0.2222 0.0556 0.0000
0.2778 0.0278 0.0000
0.2778 0.0833 0.0000
0.2222 0.1667 0.0000
0.2778 0.1389 0.0000
0.2778 0.1944 0.0000
0.2222 0.2778 0.0000
0.2778 0.2500 0.0000
0.2778 0.3056 0.0000
0.2222 0.3889 0.0000
0.2778 0.3611 0.0000
0.2778 0.4167 0.0000
0.2222 0.5000 0.0000
0.2778 0.4722 0.0000
0.2778 0.5278 0.0000
0.2222 0.6111 0.0000
0.2778 0.5833 0.0000
0.2778 0.6389 0.0000
0.2222 0.7222 0.0000
0.2778 0.6944 0.0000
0.2778 0.7500 0.0000
0.2222 0.8333 0.0000
0.2778 0.8056 0.0000
0.2778 0.8611 0.0000
0.2222 0.9444 0.0000
0.2778 0.9167 0.0000
0.2778 0.9722 0.0000
0.4444 0.0556 0.0000
0.5000 0.0278 0.0000
0.5000 0.0833 0.0000
0.4444 0.1667 0.0000
0.5000 0.1389 0.0000
0.5000 0.1944 0.0000
0.4444 0.2778 0.0000
0.5000 0.2500 0.0000
0.5000 0.3056 0.0000
0.4444 0.3889 0.0000
0.5000 0.3611 0.0000
0.5000 0.4167 0.0000
0.4444 0.5000 0.0000
0.5000 0.4722 0.0000
0.5000 0.5278 0.0000
0.4444 0.6111 0.0000
0.5000 0.5833 0.0000
0.5000 0.6389 0.0000
0.4444 0.7222 0.0000
0.5000 0.6944 0.0000
0.5000 0.7500 0.0000
0.4444 0.8333 0.0000
0.5000 0.8056 0.0000
0.5000 0.8611 0.0000
0.4444 0.9444 0.0000
0.5000 0.9167 0.0000
0.5000 0.9722 0.0000
0.6667 0.0556 0.0000
0.7222 0.0278 0.0000
0.7222 0.0833 0.0000
0.6667 0.1667 0.0000
0.7222 0.1389 0.0000
0.7222 0.1944 0.0000
0.6667 0.2778 0.0000
0.7222 0.2500 0.0000
0.7222 0.3056 0.0000
0.6667 0.3889 0.0000
0.7222 0.3611 0.0000
0.7222 0.4167 0.0000
0.6667 0.5000 0.0000
0.7222 0.4722 0.0000
0.7222 0.5278 0.0000
0.6667 0.6111 0.0000
0.7222 0.5833 0.0000
0.7222 0.6389 0.0000
0.6667 0.7222 0.0000
0.7222 0.6944 0.0000
0.7222 0.7500 0.0000
0.6667 0.8333 0.0000
0.7222 0.8056 0.0000
0.7222 0.8611 0.0000
0.6667 0.9444 0.0000
0.7222 0.9167 0.0000
0.7222 0.9722 0.0000
0.8889 0.0556 0.0000
0.9444 0.0278 0.0000
0.9444 0.0833 0.0000
0.8889 0.1667 0.0000
0.9444 0.1389 0.0000
0.9444 0.1944 0.0000
0.8889 0.2778 0.0000
0.9444 0.2500 0.0000
0.9444 0.3056 0.0000
0.8889 0.3889 0.0000
0.9444 0.3611 0.0000
0.9444 0.4167 0.0000
0.8889 0.5000 0.0000
0.9444 0.4722 0.0000
0.9444 0.5278 0.0000
0.8889 0.6111 0.0000
0.9444 0.5833 0.0000
0.9444 0.6389 0.0000
0.8889 0.7222 0.0000
0.9444 0.6944 0.0000
0.9444 0.7500 0.0000
0.8889 0.8333 0.0000
0.9444 0.8056 0.0000
0.9444 0.8611 0.0000
0.8889 0.9444 0.0000
0.9444 0.9167 0.0000
0.9444 0.9722 0.0000
1.1111 0.0556 0.0000
1.1667 0.0278 0.0000
1.1667 0.0833 0.0000
1.1111 0.1667 0.0000
1.1667 0.1389 0.0000
1.1667 0.1944 0.0000
1.1111 0.2778 0.0000
1.1667 0.2500 0.0000
1.1667 0.3056 0.0000
1.1111 0.3889 0.0000
1.1667 0.3611 0.0000
1.1667 0.4167 0.0000
1.1111 0.5000 0.0000
1.1667 0.4722 0.0000
1.1667 0.5278 0.0000
1.1111 0.6111 0.0000
1.1667 0.5833 0.0000
1.1667 0.6389 0.0000
1.1111 0.7222 0.0000
1.1667 0.6944 0.0000
1.1667 0.7500 0.0000
1.1111 0.8333 0.0000
1.1667 0.8056 0.0000
1.1667 0.8611 0.0000
1.1111 0.9444 0.0000
1.1667 0.9167 0.0000
1.1667 0.9722 0.0000
1.3333 0.0556 0.0000
1.3889 0.0278 0.0000
1.3889 0.0833 0.0000
1.3333 0.1667 0.0000
1.3889 0.1389 0.0000
1.3889 0.1944 0.0000
1.3333 0.2778 0.0000
1.3889 0.2500 0.0000
1.3889 0.3056 0.0000
1.3333 0.3889 0.0000
1.3889 0.3611 0.0000
1.3889 0.4167 0.0000
1.3333 0.5000 0.0000
1.3889 0.4722 0.0000
1.3889 0.5278 0.0000
1.3333 0.6111 0.0000
1.3889 0.5833 0.0000
1.3889 0.6389 0.0000
1.3333 0.7222 0.0000
1.3889 0.6944 0.0000
1.3889 0.7500 0.0000
1.3333 0.8333 0.0000
1.3889 0.8056 0.0000
1.3889 0.8611 0.0000
1.3333 0.9444 0.0000
1.3889 0.9167 0.0000
1.3889 0.9722 0.0000
1.5556 0.0556 0.0000
1.6111 0.0278 0.0000
1.6111 0.0833 0.0000
1.5556 0.1667 0.0000
1.6111 0.1389 0.0000
1.6111 0.1944 0.0000
1.5556 0.2778 0.0000
1.6111 0.2500 0.0000
1.6111 0.3056 0.0000
1.5556 0.3889 0.0000
1.6111 0.3611 0.0000
1.6111 0.4167 0.0000
1.5556 0.5000 0.0000
1.6111 0.4722 0.0000
1.6111 0.5278 0.0000
1.5556 0.6111 0.0000
1.6111 0.5833 0.0000
1.6111 0.6389 0.0000
1.5556 0.7222 0.0000
1.6111 0.6944 0.0000
1.6111 0.7500 0.0000
1.5556 0.8333 0.0000
1.6111 0.8056 0.0000
1.6111 0.8611 0.0000
1.5556 0.9444 0.0000
1.6111 0.9167 0.0000
1.6111 0.9722 0.0000
1.7778 0.0556 0.0000
1.8333 0.0278 0.0000
1.8333 0.0833 0.0000
1.7778 0.1667 0.0000
1.8333 0.1389 0.0000
1.8333 0.1944 0.0000
1.7778 0.2778 0.0000
1.8333 0.2500 0.0000
1.8333 0.3056 0.0000
1.7778 0.3889 0.0000
1.8333 0.3611 0.0000
1.8333 0.4167 0.0000
1.7778 0.5000 0.0000
1.8333 0.4722 0.0000
1.8333 0.5278 0.0000
1.7778 0.6111 0.0000
1.8333 0.5833 0.0000
1.8333 0.6389 0.0000
1.7778 0.7222 0.0000
1.8333 0.6944 0.0000
1.8333 0.7500 0.0000
1.7778 0.8333 0.0000
1.8333 0.8056 0.0000
1.8333 0.8611 0.0000
1.7778 0.9444 0.0000
1.8333 0.9167 0.0000
1.8333 0.9722 0.0000
0.1111 0.1111 0.0000
0.1667 0.0833 0.0000
0.1111 0.2222 0.0000
0.1667 0.1944 0.0000
0.1111 0.3333 0.0000
0.1667 0.3056 0.0000
0.1111 0.4444 0.0000
0.1667 0.4167 0.0000
0.1111 0.5556 0.0000
0.1667 0.5278 0.0000
0.1111 0.6667 0.0000
0.1667 0.6389 0.0000
0.1111 0.7778 0.0000
0.1667 0.7500 0.0000
0.1111 0.8889 0.0000
0.1667 0.8611 0.0000
0.1111 1.0000 0.0000
0.1667 0.9722 0.0000
0.3333 0.1111 0.0000
0.3889 0.0833 0.0000
0.3333 0.2222 0.0000
0.3889 0.1944 0.0000
0.3333 0.3333 0.0000
0.3889 0.3056 0.0000
0.3333 0.4444 0.0000
0.3889 0.4167 0.0000
0.3333 0.5556 0.0000
0.3889 0.5278 0.0000
0.3333 0.6667 0.0000
0.3889 0.6389 0.0000
0.3333 0.7778 0.0000
0.3889 0.7500 0.0000
0.3333 0.8889 0.0000
0.3889 0.8611 0.0000
0.3333 1.0000 0.0000
0.3889 0.9722 0.0000
0.5556 0.1111 0.0000
[...]
         <PointData>
            <DataArray Name="fValues" NumberOfComponents="3" format="ascii" type="Float64">
-2.44753e-15 -3.05941e-15        00000 
 8.25341e-16  6.93287e-16        00000 
 4.52972e-16  1.13602e-15        00000 
-3.28783e-16 -5.26052e-16        00000 
 1.00568e-17  3.04282e-16        00000 
 2.63026e-16  6.57565e-17        00000 
 2.02163e-16 -6.18868e-17        00000 
 1.11685e-15  2.62788e-16        00000 
 5.28345e-16 -1.58503e-15        00000 
-1.22377e-15  1.22377e-15        00000 
-4.85180e+01 -3.68315e+01        00000 
-3.30269e+01 -2.83021e+01        00000 
-2.15246e+01 -2.23027e+01        00000 
-1.22647e+01 -1.88203e+01        00000 
-3.98075e+00 -1.72383e+01        00000 
 4.02374e+00 -1.72254e+01        00000 
 1.23155e+01 -1.88031e+01        00000 
 2.15793e+01 -2.22851e+01        00000 
 3.30671e+01 -2.82955e+01        00000 
 4.85542e+01 -3.68305e+01        00000 
-8.83639e+01 -7.83096e+01        00000 
-6.50453e+01 -7.08899e+01        00000 
-4.43683e+01 -6.51084e+01        00000 
-2.57730e+01 -6.12368e+01        00000 
-8.44204e+00 -5.93133e+01        00000 
 8.46183e+00 -5.93103e+01        00000 
 2.57888e+01 -6.12277e+01        00000 
 4.43975e+01 -6.50882e+01        00000 
 6.50940e+01 -7.08487e+01        00000 
 8.84229e+01 -7.82613e+01        00000 
-1.23634e+02 -1.35590e+02        00000 
-9.26840e+01 -1.29177e+02        00000 
-6.42978e+01 -1.24236e+02        00000 
-3.78097e+01 -1.20906e+02        00000 
-1.24735e+01 -1.19229e+02        00000 
 1.24580e+01 -1.19227e+02        00000 
 3.77764e+01 -1.20905e+02        00000 
 6.42583e+01 -1.24247e+02        00000 
 9.26549e+01 -1.29182e+02        00000 
 1.23612e+02 -1.35567e+02        00000 
-1.53793e+02 -2.07394e+02        00000 
-1.16148e+02 -2.02020e+02        00000 
-8.11078e+01 -1.97905e+02        00000 
-4.79298e+01 -1.95152e+02        00000 
-1.58797e+01 -1.93766e+02        00000 
 1.57924e+01 -1.93761e+02        00000 
 4.78444e+01 -1.95134e+02        00000 
 8.10006e+01 -1.97888e+02        00000 
 1.16006e+02 -2.01994e+02        00000 
 1.53597e+02 -2.07328e+02        00000 
-1.78524e+02 -2.91434e+02        00000 
-1.35403e+02 -2.87128e+02        00000 
-9.48641e+01 -2.83824e+02        00000 
-5.61962e+01 -2.81618e+02        00000 
-1.86598e+01 -2.80515e+02        00000 
 1.85014e+01 -2.80502e+02        00000 
 5.60278e+01 -2.81577e+02        00000 
 9.46742e+01 -2.83746e+02        00000 
 1.35168e+02 -2.87015e+02        00000 
 1.78264e+02 -2.91295e+02        00000 
-1.97841e+02 -3.85221e+02        00000 
-1.50430e+02 -3.81981e+02        00000 
-1.05581e+02 -3.79527e+02        00000 
-6.26093e+01 -3.77907e+02        00000 
-2.08123e+01 -3.77104e+02        00000 
 2.05767e+01 -3.77086e+02        00000 
 6.23502e+01 -3.77855e+02        00000 
 1.05287e+02 -3.79445e+02        00000 
 1.50128e+02 -3.81884e+02        00000 
 1.97557e+02 -3.85115e+02        00000 
-2.11884e+02 -4.86425e+02        00000 
-1.61201e+02 -4.84220e+02        00000 
-1.13087e+02 -4.82663e+02        00000 
-6.70165e+01 -4.81713e+02        00000 
-2.22878e+01 -4.81255e+02        00000 
 2.19710e+01 -4.81236e+02        00000 
 6.66982e+01 -4.81655e+02        00000 
 1.12764e+02 -4.82588e+02        00000 
 1.60878e+02 -4.84140e+02        00000 
 2.11544e+02 -4.86338e+02        00000 
-2.21229e+02 -5.93072e+02        00000 
-1.67654e+02 -5.91882e+02        00000 
-1.17114e+02 -5.91170e+02        00000 
-6.92541e+01 -5.90662e+02        00000 
-2.30308e+01 -5.90370e+02        00000 
 2.26489e+01 -5.90348e+02        00000 
 6.88851e+01 -5.90605e+02        00000 
 1.16764e+02 -5.91089e+02        00000 
 1.67307e+02 -5.91798e+02        00000 
 2.20887e+02 -5.93000e+02        00000 
-2.27029e+02 -7.09247e+02        00000 
-1.70340e+02 -7.06440e+02        00000 
-1.18962e+02 -7.03100e+02        00000 
-7.04396e+01 -7.00537e+02        00000 
-2.34528e+01 -6.99171e+02        00000 
 2.30365e+01 -6.99159e+02        00000 
 7.00504e+01 -7.00513e+02        00000 
 1.18610e+02 -7.03075e+02        00000 
 1.70012e+02 -7.06412e+02        00000 
 2.26670e+02 -7.09209e+02        00000 
-1.96353e+01 -1.56780e+01        00000 
-1.25327e+01 -9.54521e+00        00000 
-7.78698e+00 -6.56954e+00        00000 
-3.76142e+00 -5.14168e+00        00000 
 1.48890e-02 -4.71415e+00        00000 
 3.78718e+00 -5.13868e+00        00000 
 7.82087e+00 -6.56152e+00        00000 
 1.25579e+01 -9.54063e+00        00000 
 1.96581e+01 -1.56768e+01        00000 
-5.89442e+01 -5.14690e+01        00000 
-4.10738e+01 -4.43500e+01        00000 
-2.59432e+01 -3.93247e+01        00000 
-1.25627e+01 -3.64359e+01        00000 
 1.83800e-02 -3.55002e+01        00000 
 1.26036e+01 -3.64265e+01        00000 
 2.59963e+01 -3.93049e+01        00000 
 4.11292e+01 -4.43287e+01        00000 
 5.89921e+01 -5.14522e+01        00000 
-9.26394e+01 -1.01386e+02        00000 
-6.67771e+01 -9.52008e+01        00000 
-4.31827e+01 -9.06927e+01        00000 
-2.11798e+01 -8.79673e+01        00000 
-1.27313e-03 -8.70561e+01        00000 
 2.11826e+01 -8.79698e+01        00000 
 4.31721e+01 -9.07002e+01        00000 
 6.67798e+01 -9.51949e+01        00000 
 9.26725e+01 -1.01365e+02        00000 
-1.21793e+02 -1.66713e+02        00000 
-8.87309e+01 -1.61465e+02        00000 
-5.79065e+01 -1.57675e+02        00000 
-2.85825e+01 -1.55392e+02        00000 
-2.60981e-02 -1.54627e+02        00000 
 2.85331e+01 -1.55390e+02        00000 
 5.78477e+01 -1.57683e+02        00000 
 8.86549e+01 -1.61476e+02        00000 
 1.21698e+02 -1.66700e+02        00000 
-1.46201e+02 -2.45480e+02        00000 
-1.07049e+02 -2.41183e+02        00000 
-7.01372e+01 -2.38093e+02        00000 
-3.47248e+01 -2.36233e+02        00000 
-5.96493e-02 -2.35603e+02        00000 
 3.46121e+01 -2.36206e+02        00000 
 7.00165e+01 -2.38047e+02        00000 
 1.06894e+02 -2.41127e+02        00000 
 1.45985e+02 -2.45404e+02        00000 
-1.65779e+02 -3.35278e+02        00000 
-1.21754e+02 -3.31933e+02        00000 
-7.99360e+01 -3.29528e+02        00000 
-3.96314e+01 -3.28089e+02        00000 
-9.68943e-02 -3.27598e+02        00000 
 3.94266e+01 -3.28051e+02        00000 
 7.97002e+01 -3.29456e+02        00000 
 1.21491e+02 -3.31828e+02        00000 
 1.65503e+02 -3.35166e+02        00000 
-1.80561e+02 -4.33603e+02        00000 
-1.32769e+02 -4.31227e+02        00000 
-8.72158e+01 -4.29576e+02        00000 
-4.32514e+01 -4.28616e+02        00000 
-1.36255e-01 -4.28290e+02        00000 
 4.29689e+01 -4.28573e+02        00000 
 8.69088e+01 -4.29501e+02        00000 
 1.32449e+02 -4.31135e+02        00000 
 1.80250e+02 -4.33512e+02        00000 
-1.90701e+02 -5.38198e+02        00000 
-1.39946e+02 -5.36810e+02        00000 
-9.17300e+01 -5.35973e+02        00000 
-4.54429e+01 -5.35509e+02        00000 
-1.73093e-01 -5.35351e+02        00000 
 4.50947e+01 -5.35481e+02        00000 
 9.13919e+01 -5.35917e+02        00000 
 1.39610e+02 -5.36735e+02        00000 
 1.90354e+02 -5.38111e+02        00000 
-1.96326e+02 -6.48369e+02        00000 
-1.43116e+02 -6.47495e+02        00000 
-9.36067e+01 -6.46441e+02        00000 
-4.63669e+01 -6.45617e+02        00000 
-2.04390e-01 -6.45301e+02        00000 
 4.59674e+01 -6.45587e+02        00000 
 9.32401e+01 -6.46391e+02        00000 
 1.42777e+02 -6.47441e+02        00000 
 1.95989e+02 -6.48321e+02        00000 
-6.71878e-16  9.17579e-16        00000 
-1.07277e+01 -8.19061e+00        00000 
-8.14486e+00 -5.76174e+00        00000 
 1.92291e-15 -1.89337e-16        00000 
-6.56920e+00 -4.23842e+00        00000 
-5.32385e+00 -3.20494e+00        00000 
-7.49401e-16  9.99201e-16        00000 
-4.22862e+00 -2.48342e+00        00000 
-3.22045e+00 -1.97928e+00        00000 
-5.01276e-16  1.17364e-17        00000 
-2.26828e+00 -1.63467e+00        00000 
-1.34498e+00 -1.41878e+00        00000 
 1.24900e-16 -2.49800e-16        00000 
-4.38707e-01 -1.31841e+00        00000 
 4.56644e-01 -1.31807e+00        00000 
-4.08394e-16 -1.14586e-16        00000 
 1.36126e+00 -1.42181e+00        00000 
 2.28159e+00 -1.63375e+00        00000 
 4.99600e-16 -6.24500e-16        00000 
 3.23909e+00 -1.97609e+00        00000 
 4.24596e+00 -2.48304e+00        00000 
 9.99201e-16 -9.99201e-16        00000 
 5.33807e+00 -3.20605e+00        00000 
 6.58199e+00 -4.23723e+00        00000 
-2.18332e-15  5.49096e-16        00000 
 8.15629e+00 -5.76069e+00        00000 
 1.07399e+01 -8.18993e+00        00000 
-4.03212e+01 -3.23880e+01        00000 
-5.42463e+01 -4.38094e+01        00000 
-4.55458e+01 -3.95354e+01        00000 
-2.68760e+01 -2.49449e+01        00000 
-3.76678e+01 -3.57992e+01        00000 
-3.06578e+01 -3.26995e+01        00000 
-1.67137e+01 -2.02903e+01        00000 
-2.43158e+01 -3.02217e+01        00000 
-1.84645e+01 -2.83292e+01        00000 
-8.04939e+00 -1.78178e+01        00000 
-1.29599e+01 -2.69628e+01        00000 
-7.68263e+00 -2.60758e+01        00000 
 2.22362e-02 -1.70407e+01        00000 
-2.53484e+00 -2.56369e+01        00000 
 2.57606e+00 -2.56316e+01        00000 
 8.09455e+00 -1.78032e+01        00000 
 7.72763e+00 -2.60639e+01        00000 
 1.30102e+01 -2.69469e+01        00000 
 1.67699e+01 -2.02735e+01        00000 
 1.85227e+01 -2.83108e+01        00000 
 2.43745e+01 -3.02022e+01        00000 
 2.69211e+01 -2.49306e+01        00000 
 3.07113e+01 -3.26794e+01        00000 
 3.77170e+01 -3.57879e+01        00000 
 4.03581e+01 -3.23828e+01        00000 
 4.55913e+01 -3.95260e+01        00000 
 5.42881e+01 -4.38019e+01        00000 
-7.63509e+01 -7.44263e+01        00000 
-9.10354e+01 -8.94937e+01        00000 
-7.84054e+01 -8.57367e+01        00000 
-5.44046e+01 -6.77725e+01        00000 
-6.64525e+01 -8.24676e+01        00000 
-5.51137e+01 -7.96579e+01        00000 
-3.48589e+01 -6.29260e+01        00000 
-4.43182e+01 -7.73074e+01        00000 
-3.39824e+01 -7.54258e+01        00000 
-1.69985e+01 -6.00318e+01        00000 
-2.40098e+01 -7.40160e+01        00000 
-1.42990e+01 -7.30752e+01        00000 
 7.63903e-03 -5.90709e+01        00000 
-4.75063e+00 -7.26045e+01        00000 
 4.75428e+00 -7.26031e+01        00000 
 1.70180e+01 -6.00276e+01        00000 
 1.43081e+01 -7.30734e+01        00000 
 2.40182e+01 -7.40136e+01        00000 
 3.48764e+01 -6.29157e+01        00000 
 3.39865e+01 -7.54272e+01        00000 
 4.43228e+01 -7.73038e+01        00000 
 5.44428e+01 -6.77402e+01        00000 
 5.51288e+01 -7.96418e+01        00000 
 6.64792e+01 -8.24408e+01        00000 
 7.64052e+01 -7.43770e+01        00000 
 7.84491e+01 -8.57015e+01        00000 
 9.10923e+01 -8.94542e+01        00000 
-1.07798e+02 -1.32220e+02        00000 
-1.23205e+02 -1.50820e+02        00000 
-1.06855e+02 -1.47595e+02        00000 
-7.82121e+01 -1.26509e+02        00000 
-9.11876e+01 -1.44803e+02        00000 
-7.61188e+01 -1.42417e+02        00000 
-5.08644e+01 -1.22368e+02        00000 
-6.15705e+01 -1.40429e+02        00000 
-4.74474e+01 -1.38835e+02        00000 
-2.50418e+01 -1.19858e+02        00000 
-3.36531e+01 -1.37636e+02        00000 
-2.01002e+01 -1.36835e+02        00000 
-1.17410e-02 -1.19019e+02        00000 
-6.69417e+00 -1.36431e+02        00000 
 6.66011e+00 -1.36433e+02        00000 
 2.50159e+01 -1.19858e+02        00000 
 2.00657e+01 -1.36836e+02        00000 
 3.36120e+01 -1.37638e+02        00000 
 5.08224e+01 -1.22373e+02        00000 
 4.74017e+01 -1.38840e+02        00000 
 6.15187e+01 -1.40441e+02        00000 
 7.81740e+01 -1.26520e+02        00000 
 7.60658e+01 -1.42431e+02        00000 
 9.11314e+01 -1.44813e+02        00000 
 1.07770e+02 -1.32213e+02        00000 
 1.06800e+02 -1.47594e+02        00000 
 1.23147e+02 -1.50804e+02        00000 
-1.34603e+02 -2.04574e+02        00000 
-1.50414e+02 -2.26152e+02        00000 
-1.30872e+02 -2.23473e+02        00000 
-9.83481e+01 -1.99795e+02        00000 
-1.12010e+02 -2.21162e+02        00000 
-9.37594e+01 -2.19193e+02        00000 
-6.43288e+01 -1.96357e+02        00000 
-7.60164e+01 -2.17558e+02        00000 
-5.86967e+01 -2.16250e+02        00000 
-3.18101e+01 -1.94288e+02        00000 
-4.17058e+01 -2.15269e+02        00000 
-2.49550e+01 -2.14613e+02        00000 
-4.43273e-02 -1.93592e+02        00000 
-8.33511e+00 -2.14279e+02        00000 
 8.23126e+00 -2.14275e+02        00000 
 3.17286e+01 -1.94275e+02        00000 
 2.48531e+01 -2.14595e+02        00000 
 4.16133e+01 -2.15243e+02        00000 
 6.42410e+01 -1.96341e+02        00000 
 5.85987e+01 -2.16219e+02        00000 
 7.59078e+01 -2.17523e+02        00000 
 9.82284e+01 -1.99775e+02        00000 
 9.36282e+01 -2.19159e+02        00000 
 1.11860e+02 -2.21123e+02        00000 
 1.34435e+02 -2.04525e+02        00000 
 1.30690e+02 -2.23421e+02        00000 
 1.50206e+02 -2.26081e+02        00000 
-1.56593e+02 -2.89169e+02        00000 
-1.72491e+02 -3.13115e+02        00000 
-1.50359e+02 -3.11002e+02        00000 
-1.14855e+02 -2.85341e+02        00000 
-1.28914e+02 -3.09173e+02        00000 
-1.08064e+02 -3.07613e+02        00000 
-7.53406e+01 -2.82583e+02        00000 
-8.77224e+01 -3.06317e+02        00000 
-6.78040e+01 -3.05284e+02        00000 
-3.73340e+01 -2.80930e+02        00000 
-4.82195e+01 -3.04512e+02        00000 
-2.88721e+01 -3.03997e+02        00000 
-8.02039e-02 -2.80373e+02        00000 
-9.66589e+00 -3.03733e+02        00000 
 9.49096e+00 -3.03725e+02        00000 
 3.71739e+01 -2.80904e+02        00000 
 2.86932e+01 -3.03970e+02        00000 
 4.80328e+01 -3.04470e+02        00000 
 7.51654e+01 -2.82525e+02        00000 
 6.76042e+01 -3.05227e+02        00000 
 8.75079e+01 -3.06242e+02        00000 
 1.14647e+02 -2.85244e+02        00000 
 1.07833e+02 -3.07519e+02        00000 
 1.28668e+02 -3.09062e+02        00000 
 1.56338e+02 -2.89044e+02        00000 
 1.50098e+02 -3.10879e+02        00000 
 1.72226e+02 -3.12993e+02        00000 
-1.73768e+02 -3.83514e+02        00000 
-1.89471e+02 -4.09213e+02        00000 
-1.65331e+02 -4.07655e+02        00000 
-1.27729e+02 -3.80648e+02        00000 
-1.41869e+02 -4.06319e+02        00000 
-1.19001e+02 -4.05192e+02        00000 
-8.39064e+01 -3.78614e+02        00000 
-9.66517e+01 -4.04268e+02        00000 
-7.47336e+01 -4.03535e+02        00000 
-4.16152e+01 -3.77409e+02        00000 
-5.31586e+01 -4.02992e+02        00000 
-3.18434e+01 -4.02633e+02        00000 
-1.19145e-01 -3.76998e+02        00000 
-1.06791e+01 -4.02448e+02        00000 
 1.04278e+01 -4.02440e+02        00000 
 4.13640e+01 -3.77371e+02        00000 
 3.15828e+01 -4.02600e+02        00000 
 5.28922e+01 -4.02943e+02        00000 
 8.36215e+01 -3.78545e+02        00000 
 7.44468e+01 -4.03469e+02        00000 
 9.63469e+01 -4.04190e+02        00000 
 1.27425e+02 -3.80556e+02        00000 
 1.18692e+02 -4.05106e+02        00000 
 1.41559e+02 -4.06226e+02        00000 
 1.73473e+02 -3.83415e+02        00000 
 1.65028e+02 -4.07560e+02        00000 
 1.89173e+02 -4.09121e+02        00000 
-1.86191e+02 -4.85249e+02        00000 
-2.01506e+02 -5.12155e+02        00000 
-1.75827e+02 -5.11126e+02        00000 
-1.36848e+02 -4.83357e+02        00000 
-1.50802e+02 -5.10284e+02        00000 
-1.26404e+02 -5.09621e+02        00000 
-8.98326e+01 -4.82117e+02        00000 
-1.02591e+02 -5.09108e+02        00000 
-7.92731e+01 -5.08717e+02        00000 
-4.45337e+01 -4.81426e+02        00000 
-5.63682e+01 -5.08434e+02        00000 
-3.37649e+01 -5.08247e+02        00000 
-1.57648e-01 -4.81192e+02        00000 
-1.13457e+01 -5.08154e+02        00000 
 1.10126e+01 -5.08145e+02        00000 
 4.42176e+01 -4.81388e+02        00000 
 3.34307e+01 -5.08226e+02        00000 
 5.60377e+01 -5.08396e+02        00000 
 8.95179e+01 -4.82048e+02        00000 
 7.89475e+01 -5.08664e+02        00000 
 1.02265e+02 -5.09044e+02        00000 
 1.36527e+02 -4.83282e+02        00000 
 1.26077e+02 -5.09553e+02        00000 
 1.50469e+02 -5.10210e+02        00000 
 1.85862e+02 -4.85166e+02        00000 
 1.75490e+02 -5.11043e+02        00000 
 2.01167e+02 -5.12069e+02        00000 
-1.94128e+02 -5.92380e+02        00000 
-2.09186e+02 -6.20414e+02        00000 
-1.81844e+02 -6.19902e+02        00000 
-1.41993e+02 -5.91495e+02        00000 
-1.55470e+02 -6.19510e+02        00000 
-1.30023e+02 -6.19145e+02        00000 
-9.29128e+01 -5.90893e+02        00000 
-1.05369e+02 -6.18793e+02        00000 
-8.13525e+01 -6.18472e+02        00000 
-4.60047e+01 -5.90484e+02        00000 
-5.78242e+01 -6.18202e+02        00000 
-3.46376e+01 -6.18004e+02        00000 
-1.90577e-01 -5.90320e+02        00000 
-1.16579e+01 -6.17895e+02        00000 
 1.12598e+01 -6.17886e+02        00000 
 4.56324e+01 -5.90442e+02        00000 
 3.42441e+01 -6.17976e+02        00000 
 5.74431e+01 -6.18156e+02        00000 
 9.25545e+01 -5.90819e+02        00000 
 8.09817e+01 -6.18415e+02        00000 
 1.05017e+02 -6.18726e+02        00000 
 1.41648e+02 -5.91408e+02        00000 
 1.29680e+02 -6.19074e+02        00000 
 1.55136e+02 -6.19437e+02        00000 
 1.93779e+02 -5.92306e+02        00000 
 1.81509e+02 -6.19836e+02        00000 
 2.08844e+02 -6.20354e+02        00000 
-1.55446e+01 -1.20358e+01        00000 
-2.70742e+01 -2.17998e+01        00000 
-1.00206e+01 -7.80142e+00        00000 
-1.75813e+01 -1.54744e+01        00000 
-5.72280e+00 -5.70870e+00        00000 
-1.05139e+01 -1.20229e+01        00000 
-1.85710e+00 -4.81883e+00        00000 
-4.36563e+00 -1.03761e+01        00000 
 1.88779e+00 -4.81808e+00        00000 
 1.47438e+00 -1.00638e+01        00000 
 5.75496e+00 -5.70206e+00        00000 
 7.41147e+00 -1.10047e+01        00000 
 1.00549e+01 -7.79603e+00        00000 
 1.39191e+01 -1.34626e+01        00000 
 1.55650e+01 -1.20330e+01        00000 
 2.18823e+01 -1.81728e+01        00000 
 2.70932e+01 -2.11095e+01        00000 
 3.41002e+01 -2.64827e+01        00000 
-4.96364e+01 -4.76790e+01        00000 
-6.25463e+01 -6.06498e+01        00000 
-3.32245e+01 -4.15593e+01        00000 
-4.32964e+01 -5.41351e+01        00000 
-1.90993e+01 -3.76224e+01        00000 
-2.64235e+01 -4.96664e+01        00000 
-6.22460e+00 -3.57317e+01        00000 
-1.10538e+01 -4.72396e+01        00000 
 6.26289e+00 -3.57274e+01        00000 
 3.68750e+00 -4.67576e+01        00000 
 1.91460e+01 -3.76099e+01        00000 
 1.86391e+01 -4.81954e+01        00000 
 3.32791e+01 -4.15362e+01        00000 
 3.46538e+01 -5.16163e+01        00000 
 4.96886e+01 -4.76608e+01        00000 
 5.26367e+01 -5.71105e+01        00000 
 6.90115e+01 -5.55998e+01        00000 
 7.32607e+01 -6.46259e+01        00000 
-7.93884e+01 -9.80935e+01        00000 
-9.31798e+01 -1.14781e+02        00000 
-5.47340e+01 -9.27294e+01        00000 
-6.60490e+01 -1.09155e+02        00000 
-3.20297e+01 -8.91020e+01        00000 
-4.09989e+01 -1.05243e+02        00000 
-1.05401e+01 -8.72854e+01        00000 
-1.73189e+01 -1.03057e+02        00000 
 1.05402e+01 -8.72858e+01        00000 
 5.75315e+00 -1.02617e+02        00000 
 3.20235e+01 -8.91100e+01        00000 
 2.90217e+01 -1.03933e+02        00000 
 5.47275e+01 -9.27315e+01        00000 
 5.32787e+01 -1.06992e+02        00000 
 7.94051e+01 -9.80804e+01        00000 
 7.93023e+01 -1.11753e+02        00000 
 1.06656e+02 -1.04986e+02        00000 
 1.07730e+02 -1.18255e+02        00000 
-1.04939e+02 -1.63915e+02        00000 
-1.19422e+02 -1.83934e+02        00000 
-7.30822e+01 -1.59384e+02        00000 
-8.53594e+01 -1.79199e+02        00000 
-4.31021e+01 -1.56344e+02        00000 
-5.33437e+01 -1.75936e+02        00000 
-1.42547e+01 -1.54822e+02        00000 
-2.26440e+01 -1.74123e+02        00000 
 1.42071e+01 -1.54820e+02        00000 
 7.48714e+00 -1.73754e+02        00000 
 4.30470e+01 -1.56348e+02        00000 
 3.78072e+01 -1.74843e+02        00000 
 7.30146e+01 -1.59398e+02        00000 
 6.90601e+01 -1.77385e+02        00000 
 1.04852e+02 -1.63916e+02        00000 
 1.01982e+02 -1.81372e+02        00000 
 1.39282e+02 -1.69784e+02        00000 
 1.37308e+02 -1.86848e+02        00000 
-1.26305e+02 -2.43189e+02        00000 