<?xml version="1.0" encoding="utf-8"?>
<VTKFile byte_order="LittleEndian" type="UnstructuredGrid" version="0.1">
   <UnstructuredGrid>
      <Piece NumberOfCells="1296" NumberOfPoints="685">
         <Points>
            <DataArray Name="Points" NumberOfComponents="3" format="ascii" type="Float32">
0.0000 0.0000 0.0000
0.0000 0.1111 0.0000
0.0000 0.2222 0.0000
0.0000 0.3333 0.0000
0.0000 0.4444 0.0000
0.0000 0.5556 0.0000
0.0000 0.6667 0.0000
0.0000 0.7778 0.0000
0.0000 0.8889 0.0000
0.0000 1.0000 0.0000
0.2222 0.0000 0.0000
0.2222 0.1111 0.0000
0.2222 0.2222 0.0000
0.2222 0.3333 0.0000
0.2222 0.4444 0.0000
0.2222 0.5556 0.0000
0.2222 0.6667 0.0000
0.2222 0.7778 0.0000
0.2222 0.8889 0.0000
0.2222 1.0000 0.0000
0.4444 0.0000 0.0000
0.4444 0.1111 0.0000
0.4444 0.2222 0.0000
0.4444 0.3333 0.0000
0.4444 0.4444 0.0000
0.4444 0.5556 0.0000
0.4444 0.6667 0.0000
0.4444 0.7778 0.0000
0.4444 0.8889 0.0000
0.4444 1.0000 0.0000
0.6667 0.0000 0.0000
0.6667 0.1111 0.0000
0.6667 0.2222 0.0000
0.6667 0.3333 0.0000
0.6667 0.4444 0.0000
0.6667 0.5556 0.0000
0.6667 0.6667 0.0000
0.6667 0.7778 0.0000
0.6667 0.8889 0.0000
0.6667 1.0000 0.0000
0.8889 0.0000 0.0000
0.8889 0.1111 0.0000
0.8889 0.2222 0.0000
0.8889 0.3333 0.0000
0.8889 0.4444 0.0000
0.8889 0.5556 0.0000
0.8889 0.6667 0.0000
0.8889 0.7778 0.0000
0.8889 0.8889 0.0000
0.8889 1.0000 0.0000
1.1111 0.0000 0.0000
1.1111 0.1111 0.0000
1.1111 0.2222 0.0000
1.1111 0.3333 0.0000
1.1111 0.4444 0.0000
1.1111 0.5556 0.0000
1.1111 0.6667 0.0000
1.1111 0.7778 0.0000
1.1111 0.8889 0.0000
1.1111 1.0000 0.0000
1.3333 0.0000 0.0000
1.3333 0.1111 0.0000
1.3333 0.2222 0.0000
1.3333 0.3333 0.0000
1.3333 0.4444 0.0000
1.3333 0.5556 0.0000
1.3333 0.6667 0.0000
1.3333 0.7778 0.0000
1.3333 0.8889 0.0000
1.3333 1.0000 0.0000
1.5556 0.0000 0.0000
1.5556 0.1111 0.0000
1.5556 0.2222 0.0000
1.5556 0.3333 0.0000
1.5556 0.4444 0.0000
1.5556 0.5556 0.0000
1.5556 0.6667 0.0000
1.5556 0.7778 0.0000
1.5556 0.8889 0.0000
1.5556 1.0000 0.0000
1.7778 0.0000 0.0000
1.7778 0.1111 0.0000
1.7778 0.2222 0.0000
1.7778 0.3333 0.0000
1.7778 0.4444 0.0000
1.7778 0.5556 0.0000
1.7778 0.6667 0.0000
1.7778 0.7778 0.0000
1.7778 0.8889 0.0000
1.7778 1.0000 0.0000
2.0000 0.0000 0.0000
2.0000 0.1111 0.0000
2.0000 0.2222 0.0000
2.0000 0.3333 0.0000
2.0000 0.4444 0.0000
2.0000 0.5556 0.0000
2.0000 0.6667 0.0000
2.0000 0.7778 0.0000
2.0000 0.8889 0.0000
2.0000 1.0000 0.0000
0.1111 0.0556 0.0000
0.1111 0.1667 0.0000
0.1111 0.2778 0.0000
0.1111 0.3889 0.0000
0.1111 0.5000 0.0000
0.1111 0.6111 0.0000
0.1111 0.7222 0.0000
0.1111 0.8333 0.0000
0.1111 0.9444 0.0000
0.3333 0.0556 0.0000
0.3333 0.1667 0.0000
0.3333 0.2778 0.0000
0.3333 0.3889 0.0000
0.3333 0.5000 0.0000
0.3333 0.6111 0.0000
0.3333 0.7222 0.0000
0.3333 0.8333 0.0000
0.3333 0.9444 0.0000
0.5556 0.0556 0.0000
0.5556 0.1667 0.0000
0.5556 0.2778 0.0000
0.5556 0.3889 0.0000
0.5556 0.5000 0.0000
0.5556 0.6111 0.0000
0.5556 0.7222 0.0000
0.5556 0.8333 0.0000
0.5556 0.9444 0.0000
0.7778 0.0556 0.0000
0.7778 0.1667 0.0000
0.7778 0.2778 0.0000
0.7778 0.3889 0.0000
0.7778 0.5000 0.0000
0.7778 0.6111 0.0000
0.7778 0.7222 0.0000
0.7778 0.8333 0.0000
0.7778 0.9444 0.0000
1.0000 0.0556 0.0000
1.0000 0.1667 0.0000
1.0000 0.2778 0.0000
1.0000 0.3889 0.0000
1.0000 0.5000 0.0000
1.0000 0.6111 0.0000
1.0000 0.7222 0.0000
1.0000 0.8333 0.0000
1.0000 0.9444 0.0000
1.2222 0.0556 0.0000
1.2222 0.1667 0.0000
1.2222 0.2778 0.0000
1.2222 0.3889 0.0000
1.2222 0.5000 0.0000
1.2222 0.6111 0.0000
1.2222 0.7222 0.0000
1.2222 0.8333 0.0000
1.2222 0.9444 0.0000
1.4444 0.0556 0.0000
1.4444 0.1667 0.0000
1.4444 0.2778 0.0000
1.4444 0.3889 0.0000
1.4444 0.5000 0.0000
1.4444 0.6111 0.0000
1.4444 0.7222 0.0000
1.4444 0.8333 0.0000
1.4444 0.9444 0.0000
1.6667 0.0556 0.0000
1.6667 0.1667 0.0000
1.6667 0.2778 0.0000
1.6667 0.3889 0.0000
1.6667 0.5000 0.0000
1.6667 0.6111 0.0000
1.6667 0.7222 0.0000
1.6667 0.8333 0.0000
1.6667 0.9444 0.0000
1.8889 0.0556 0.0000
1.8889 0.1667 0.0000
1.8889 0.2778 0.0000
1.8889 0.3889 0.0000
1.8889 0.5000 0.0000
1.8889 0.6111 0.0000
1.8889 0.7222 0.0000
1.8889 0.8333 0.0000
1.8889 0.9444 0.0000
0.0000 0.0556 0.0000
0.0556 0.0278 0.0000
0.0556 0.0833 0.0000
0.0000 0.1667 0.0000
0.0556 0.1389 0.0000
0.0556 0.1944 0.0000
0.0000 0.2778 0.0000
0.0556 0.2500 0.0000
0.0556 0.3056 0.0000
0.0000 0.3889 0.0000
0.0556 0.3611 0.0000
0.0556 0.4167 0.0000
0.0000 0.5000 0.0000
0.0556 0.4722 0.0000
0.0556 0.5278 0.0000
0.0000 0.6111 0.0000
0.0556 0.5833 0.0000
0.0556 0.6389 0.0000
0.0000 0.7222 0.0000
0.0556 0.6944 0.0000
0.0556 0.7500 0.0000
0.0000 0.8333 0.0000
0.0556 0.8056 0.0000
0.0556 0.8611 0.0000
0.0000 0.9444 0.0000
0.0556 0.9167 0.0000
0.0556 0.9722 0.0000
0.2222 0.0556 0.0000
0.2778 0.0278 0.0000
0.2778 0.0833 0.0000
0.2222 0.1667 0.0000
0.2778 0.1389 0.0000
0.2778 0.1944 0.0000
0.2222 0.2778 0.0000
0.2778 0.2500 0.0000
0.2778 0.3056 0.0000
0.2222 0.3889 0.0000
0.2778 0.3611 0.0000
0.2778 0.4167 0.0000
0.2222 0.5000 0.0000
0.2778 0.4722 0.0000
0.2778 0.5278 0.0000
0.2222 0.6111 0.0000
0.2778 0.5833 0.0000
0.2778 0.6389 0.0000
0.2222 0.7222 0.0000
0.2778 0.6944 0.0000
0.2778 0.7500 0.0000
0.2222 0.8333 0.0000
0.2778 0.8056 0.0000
0.2778 0.8611 0.0000
0.2222 0.9444 0.0000
0.2778 0.9167 0.0000
0.2778 0.9722 0.0000
0.4444 0.0556 0.0000
0.5000 0.0278 0.0000
0.5000 0.0833 0.0000
0.4444 0.1667 0.0000
0.5000 0.1389 0.0000
0.5000 0.1944 0.0000
0.4444 0.2778 0.0000
0.5000 0.2500 0.0000
0.5000 0.3056 0.0000
0.4444 0.3889 0.0000
0.5000 0.3611 0.0000
0.5000 0.4167 0.0000
0.4444 0.5000 0.0000
0.5000 0.4722 0.0000
0.5000 0.5278 0.0000
0.4444 0.6111 0.0000
0.5000 0.5833 0.0000
0.5000 0.6389 0.0000
0.4444 0.7222 0.0000
0.5000 0.6944 0.0000
0.5000 0.7500 0.0000
0.4444 0.8333 0.0000
0.5000 0.8056 0.0000
0.5000 0.8611 0.0000
0.4444 0.9444 0.0000
0.5000 0.9167 0.0000
0.5000 0.9722 0.0000
0.6667 0.0556 0.0000
0.7222 0.0278 0.0000
0.7222 0.0833 0.0000
0.6667 0.1667 0.0000
0.7222 0.1389 0.0000
0.7222 0.1944 0.0000
0.6667 0.2778 0.0000
0.7222 0.2500 0.0000
0.7222 0.3056 0.0000
0.6667 0.3889 0.0000
0.7222 0.3611 0.0000
0.7222 0.4167 0.0000
0.6667 0.5000 0.0000
0.7222 0.4722 0.0000
0.7222 0.5278 0.0000
0.6667 0.6111 0.0000
0.7222 0.5833 0.0000
0.7222 0.6389 0.0000
0.6667 0.7222 0.0000
0.7222 0.6944 0.0000
0.7222 0.7500 0.0000
0.6667 0.8333 0.0000
0.7222 0.8056 0.0000
0.7222 0.8611 0.0000
0.6667 0.9444 0.0000
0.7222 0.9167 0.0000
0.7222 0.9722 0.0000
0.8889 0.0556 0.0000
0.9444 0.0278 0.0000
0.9444 0.0833 0.0000
0.8889 0.1667 0.0000
0.9444 0.1389 0.0000
0.9444 0.1944 0.0000
0.8889 0.2778 0.0000
0.9444 0.2500 0.0000
0.9444 0.3056 0.0000
0.8889 0.3889 0.0000
0.9444 0.3611 0.0000
0.9444 0.4167 0.0000
0.8889 0.5000 0.0000
0.9444 0.4722 0.0000
0.9444 0.5278 0.0000
0.8889 0.6111 0.0000
0.9444 0.5833 0.0000
0.9444 0.6389 0.0000
0.8889 0.7222 0.0000
0.9444 0.6944 0.0000
0.9444 0.7500 0.0000
0.8889 0.8333 0.0000
0.9444 0.8056 0.0000
0.9444 0.8611 0.0000
0.8889 0.9444 0.0000
0.9444 0.9167 0.0000
0.9444 0.9722 0.0000
1.1111 0.0556 0.0000
1.1667 0.0278 0.0000
1.1667 0.0833 0.0000
1.1111 0.1667 0.0000
1.1667 0.1389 0.0000
1.1667 0.1944 0.0000
1.1111 0.2778 0.0000
1.1667 0.2500 0.0000
1.1667 0.3056 0.0000
1.1111 0.3889 0.0000
1.1667 0.3611 0.0000
1.1667 0.4167 0.0000
1.1111 0.5000 0.0000
1.1667 0.4722 0.0000
1.1667 0.5278 0.0000
1.1111 0.6111 0.0000
1.1667 0.5833 0.0000
1.1667 0.6389 0.0000
1.1111 0.7222 0.0000
1.1667 0.6944 0.0000
1.1667 0.7500 0.0000
1.1111 0.8333 0.0000
1.1667 0.8056 0.0000
1.1667 0.8611 0.0000
1.1111 0.9444 0.0000
1.1667 0.9167 0.0000
1.1667 0.9722 0.0000
1.3333 0.0556 0.0000
1.3889 0.0278 0.0000
1.3889 0.0833 0.0000
1.3333 0.1667 0.0000
1.3889 0.1389 0.0000
1.3889 0.1944 0.0000
1.3333 0.2778 0.0000
1.3889 0.2500 0.0000
1.3889 0.3056 0.0000
1.3333 0.3889 0.0000
1.3889 0.3611 0.0000
1.3889 0.4167 0.0000
1.3333 0.5000 0.0000
1.3889 0.4722 0.0000
1.3889 0.5278 0.0000
1.3333 0.6111 0.0000
1.3889 0.5833 0.0000
1.3889 0.6389 0.0000
1.3333 0.7222 0.0000
1.3889 0.6944 0.0000
1.3889 0.7500 0.0000
1.3333 0.8333 0.0000
1.3889 0.8056 0.0000
1.3889 0.8611 0.0000
1.3333 0.9444 0.0000
1.3889 0.9167 0.0000
1.3889 0.9722 0.0000
1.5556 0.0556 0.0000
1.6111 0.0278 0.0000
1.6111 0.0833 0.0000
1.5556 0.1667 0.0000
1.6111 0.1389 0.0000
1.6111 0.1944 0.0000
1.5556 0.2778 0.0000
1.6111 0.2500 0.0000
1.6111 0.3056 0.0000
1.5556 0.3889 0.0000
1.6111 0.3611 0.0000
1.6111 0.4167 0.0000
1.5556 0.5000 0.0000
1.6111 0.4722 0.0000
1.6111 0.5278 0.0000
1.5556 0.6111 0.0000
1.6111 0.5833 0.0000
1.6111 0.6389 0.0000
1.5556 0.7222 0.0000
1.6111 0.6944 0.0000
1.6111 0.7500 0.0000
1.5556 0.8333 0.0000
1.6111 0.8056 0.0000
1.6111 0.8611 0.0000
1.5556 0.9444 0.0000
1.6111 0.9167 0.0000
1.6111 0.9722 0.0000
1.7778 0.0556 0.0000
1.8333 0.0278 0.0000
1.8333 0.0833 0.0000
1.7778 0.1667 0.0000
1.8333 0.1389 0.0000
1.8333 0.1944 0.0000
1.7778 0.2778 0.0000
1.8333 0.2500 0.0000
1.8333 0.3056 0.0000
1.7778 0.3889 0.0000
1.8333 0.3611 0.0000
1.8333 0.4167 0.0000
1.7778 0.5000 0.0000
1.8333 0.4722 0.0000
1.8333 0.5278 0.0000
1.7778 0.6111 0.0000
1.8333 0.5833 0.0000
1.8333 0.6389 0.0000
1.7778 0.7222 0.0000
1.8333 0.6944 0.0000
1.8333 0.7500 0.0000
1.7778 0.8333 0.0000
1.8333 0.8056 0.0000
1.8333 0.8611 0.0000
1.7778 0.9444 0.0000
1.8333 0.9167 0.0000
1.8333 0.9722 0.0000
0.1111 0.1111 0.0000
0.1667 0.0833 0.0000
0.1111 0.2222 0.0000
0.1667 0.1944 0.0000
0.1111 0.3333 0.0000
0.1667 0.3056 0.0000
0.1111 0.4444 0.0000
0.1667 0.4167 0.0000
0.1111 0.5556 0.0000
0.1667 0.5278 0.0000
0.1111 0.6667 0.0000
0.1667 0.6389 0.0000
0.1111 0.7778 0.0000
0.1667 0.7500 0.0000
0.1111 0.8889 0.0000
0.1667 0.8611 0.0000
0.1111 1.0000 0.0000
0.1667 0.9722 0.0000
0.3333 0.1111 0.0000
0.3889 0.0833 0.0000
0.3333 0.2222 0.0000
0.3889 0.1944 0.0000
0.3333 0.3333 0.0000
0.3889 0.3056 0.0000
0.3333 0.4444 0.0000
0.3889 0.4167 0.0000
0.3333 0.5556 0.0000
0.3889 0.5278 0.0000
0.3333 0.6667 0.0000
0.3889 0.6389 0.0000
0.3333 0.7778 0.0000
0.3889 0.7500 0.0000
0.3333 0.8889 0.0000
0.3889 0.8611 0.0000
0.3333 1.0000 0.0000
0.3889 0.9722 0.0000
0.5556 0.1111 0.0000
[...]
         <PointData>
            <DataArray Name="fValues" NumberOfComponents="3" format="ascii" type="Float64">
       00000  2.39017e-18        00000 
 5.67422e-18 -1.54751e-18        00000 
-3.46002e-19 -6.29392e-19        00000 
-2.05489e-18 -4.81615e-19        00000 
-1.67210e-19 -4.98608e-20        00000 
-2.31175e-18  1.92646e-19        00000 
 3.70676e-19  3.49272e-19        00000 
-1.15483e-18 -2.88708e-19        00000 
-3.86971e-19  6.44952e-20        00000 
       00000  1.49385e-19        00000 
-9.07909e-02 -5.45938e-02        00000 
-7.19938e-02 -3.53350e-02        00000 
-5.60831e-02 -2.11717e-02        00000 
-4.41473e-02 -1.23368e-02        00000 
-3.46278e-02 -7.78737e-03        00000 
-2.77052e-02 -4.92565e-03        00000 
-2.21899e-02 -2.97522e-03        00000 
-1.48864e-02 -1.96293e-03        00000 
-6.57834e-03 -1.19644e-03        00000 
 2.19722e-03 -1.97010e-03        00000 
-1.67952e-01 -9.07485e-02        00000 
-1.44499e-01 -7.47693e-02        00000 
-1.18132e-01 -6.19527e-02        00000 
-9.30419e-02 -5.18513e-02        00000 
-7.28013e-02 -4.41538e-02        00000 
-5.57571e-02 -3.88536e-02        00000 
-4.09770e-02 -3.54120e-02        00000 
-2.42432e-02 -3.46724e-02        00000 
-4.53953e-03 -3.64346e-02        00000 
 1.55844e-02 -3.94576e-02        00000 
-2.41948e-01 -1.53773e-01        00000 
-2.06512e-01 -1.39386e-01        00000 
-1.71802e-01 -1.26941e-01        00000 
-1.37179e-01 -1.15460e-01        00000 
-1.05939e-01 -1.05146e-01        00000 
-7.80988e-02 -9.76846e-02        00000 
-5.23878e-02 -9.35205e-02        00000 
-2.53603e-02 -9.21661e-02        00000 
 4.03158e-03 -9.23570e-02        00000 
 3.53878e-02 -9.54953e-02        00000 
-2.99523e-01 -2.28930e-01        00000 
-2.58130e-01 -2.16916e-01        00000 
-2.16370e-01 -2.05418e-01        00000 
-1.75886e-01 -1.94598e-01        00000 
-1.35311e-01 -1.85603e-01        00000 
-9.42026e-02 -1.78885e-01        00000 
-5.69025e-02 -1.75117e-01        00000 
-2.05646e-02 -1.74948e-01        00000 
 1.94982e-02 -1.78078e-01        00000 
 6.41323e-02 -1.83611e-01        00000 
-3.48466e-01 -3.15873e-01        00000 
-3.00489e-01 -3.06887e-01        00000 
-2.52849e-01 -2.98618e-01        00000 
-2.04184e-01 -2.91133e-01        00000 
-1.54914e-01 -2.84095e-01        00000 
-1.06662e-01 -2.78408e-01        00000 
-5.80816e-02 -2.73688e-01        00000 
-8.91591e-03 -2.72034e-01        00000 
 4.14131e-02 -2.73979e-01        00000 
 9.18947e-02 -2.77614e-01        00000 
-3.89418e-01 -4.24473e-01        00000 
-3.30639e-01 -4.17450e-01        00000 
-2.75141e-01 -4.11821e-01        00000 
-2.20344e-01 -4.05876e-01        00000 
-1.66161e-01 -3.99902e-01        00000 
-1.12684e-01 -3.94195e-01        00000 
-5.61997e-02 -3.90345e-01        00000 
 1.67064e-03 -3.88097e-01        00000 
 5.91992e-02 -3.88326e-01        00000 
 1.18533e-01 -3.90684e-01        00000 
-4.16606e-01 -5.47847e-01        00000 
-3.52625e-01 -5.42815e-01        00000 
-2.91802e-01 -5.38274e-01        00000 
-2.34616e-01 -5.32774e-01        00000 
-1.75433e-01 -5.27633e-01        00000 
-1.14663e-01 -5.24460e-01        00000 
-5.25886e-02 -5.23988e-01        00000 
 7.94119e-03 -5.23376e-01        00000 
 6.85265e-02 -5.24063e-01        00000 
 1.36614e-01 -5.25187e-01        00000 
-4.39876e-01 -6.90695e-01        00000 
-3.68267e-01 -6.86539e-01        00000 
-3.02196e-01 -6.82656e-01        00000 
-2.41179e-01 -6.79619e-01        00000 
-1.79174e-01 -6.77340e-01        00000 
-1.14505e-01 -6.73955e-01        00000 
-5.11453e-02 -6.70596e-01        00000 
 1.10695e-02 -6.67499e-01        00000 
 7.41066e-02 -6.66004e-01        00000 
 1.38855e-01 -6.66708e-01        00000 
-4.48924e-01 -8.41639e-01        00000 
-3.75629e-01 -8.36555e-01        00000 
-3.09604e-01 -8.30467e-01        00000 
-2.45389e-01 -8.25065e-01        00000 
-1.81585e-01 -8.20500e-01        00000 
-1.16476e-01 -8.15103e-01        00000 
-5.34464e-02 -8.09688e-01        00000 
 9.57390e-03 -8.05514e-01        00000 
 7.46230e-02 -8.05577e-01        00000 
 1.46435e-01 -8.07652e-01        00000 
-3.86819e-02 -2.30623e-02        00000 
-2.86792e-02 -9.86975e-03        00000 
-2.29108e-02 -3.28114e-03        00000 
-1.87126e-02 -1.46504e-04        00000 
-1.57697e-02  1.37175e-03        00000 
-1.30090e-02  1.69817e-03        00000 
-9.70899e-03  2.77892e-03        00000 
-6.06801e-03  3.44234e-03        00000 
-2.80822e-03  3.47206e-03        00000 
-1.20392e-01 -6.22610e-02        00000 
-9.89598e-02 -4.65280e-02        00000 
-7.80607e-02 -3.38837e-02        00000 
-6.13738e-02 -2.59426e-02        00000 
-4.81310e-02 -2.02645e-02        00000 
-3.78187e-02 -1.70057e-02        00000 
-2.74676e-02 -1.53549e-02        00000 
-1.43796e-02 -1.48345e-02        00000 
 5.05229e-04 -1.62426e-02        00000 
-1.91901e-01 -1.09238e-01        00000 
-1.61350e-01 -9.66784e-02        00000 
-1.30142e-01 -8.49271e-02        00000 
-1.02355e-01 -7.51843e-02        00000 
-7.85253e-02 -6.74427e-02        00000 
-5.79482e-02 -6.25713e-02        00000 
-3.75408e-02 -5.98409e-02        00000 
-1.35733e-02 -5.96413e-02        00000 
 1.11956e-02 -6.14292e-02        00000 
-2.52755e-01 -1.82410e-01        00000 
-2.14525e-01 -1.70697e-01        00000 
-1.76432e-01 -1.59083e-01        00000 
-1.40035e-01 -1.47513e-01        00000 
-1.04799e-01 -1.37798e-01        00000 
-7.15022e-02 -1.32561e-01        00000 
-4.07595e-02 -1.30690e-01        00000 
-7.92365e-03 -1.30467e-01        00000 
 2.90322e-02 -1.33060e-01        00000 
-3.02557e-01 -2.65773e-01        00000 
-2.58504e-01 -2.54827e-01        00000 
-2.13619e-01 -2.44442e-01        00000 
-1.68663e-01 -2.35554e-01        00000 
-1.23996e-01 -2.28884e-01        00000 
-7.94235e-02 -2.23398e-01        00000 
-3.66247e-02 -2.20946e-01        00000 
 6.98768e-03 -2.22427e-01        00000 
 5.36199e-02 -2.27199e-01        00000 
-3.42955e-01 -3.64389e-01        00000 
-2.90923e-01 -3.56685e-01        00000 
-2.39027e-01 -3.49831e-01        00000 
-1.87410e-01 -3.43817e-01        00000 
-1.35598e-01 -3.38116e-01        00000 
-8.43562e-02 -3.32554e-01        00000 
-3.08651e-02 -3.29122e-01        00000 
 2.37445e-02 -3.28365e-01        00000 
 7.81623e-02 -3.30447e-01        00000 
-3.73215e-01 -4.82977e-01        00000 
-3.12908e-01 -4.77173e-01        00000 
-2.55677e-01 -4.71388e-01        00000 
-1.99371e-01 -4.64425e-01        00000 
-1.43099e-01 -4.58848e-01        00000 
-8.51851e-02 -4.55298e-01        00000 
-2.46976e-02 -4.53693e-01        00000 
 3.54124e-02 -4.52642e-01        00000 
 9.64440e-02 -4.52550e-01        00000 
-3.94481e-01 -6.12659e-01        00000 
-3.28627e-01 -6.08881e-01        00000 
-2.68006e-01 -6.06231e-01        00000 
-2.08446e-01 -6.03370e-01        00000 
-1.46104e-01 -6.00805e-01        00000 
-8.23573e-02 -5.99222e-01        00000 
-2.04256e-02 -5.97998e-01        00000 
 4.09879e-02 -5.97491e-01        00000 
 1.03804e-01 -5.98883e-01        00000 
-4.07666e-01 -7.61766e-01        00000 
-3.38516e-01 -7.58878e-01        00000 
-2.73564e-01 -7.54072e-01        00000 
-2.10762e-01 -7.50110e-01        00000 
-1.46969e-01 -7.46063e-01        00000 
-8.26517e-02 -7.41846e-01        00000 
-2.01837e-02 -7.37557e-01        00000 
 4.26406e-02 -7.34619e-01        00000 
 1.08795e-01 -7.33135e-01        00000 
-1.54126e-18 -2.77615e-18        00000 
-1.98319e-02 -1.25366e-02        00000 
-1.62933e-02 -8.27793e-03        00000 
 3.96079e-18  1.81252e-18        00000 
-1.41552e-02 -5.51583e-03        00000 
-1.24612e-02 -3.46086e-03        00000 
 1.46367e-18 -1.21973e-19        00000 
-1.11305e-02 -2.11235e-03        00000 
-9.89648e-03 -1.50715e-03        00000 
-1.92370e-18 -5.26762e-20        00000 
-9.11349e-03 -1.00369e-03        00000 
-8.26725e-03 -3.84819e-04        00000 
 3.41524e-18 -9.52912e-21        00000 
-7.77045e-03 -4.29317e-05        00000 
-6.89236e-03  4.18465e-04        00000 
-2.50123e-18 -1.49691e-19        00000 
-6.47732e-03  6.90634e-04        00000 
-5.82504e-03  1.19145e-03        00000 
 4.87891e-19  1.82959e-19        00000 
-5.18008e-03  1.54925e-03        00000 
-4.49401e-03  1.79842e-03        00000 
 1.21973e-19 -2.43945e-19        00000 
-3.65564e-03  1.84219e-03        00000 
-2.55827e-03  1.84548e-03        00000 
-3.75529e-19 -2.66519e-19        00000 
-1.68490e-03  1.95079e-03        00000 
-1.37989e-03  1.95428e-03        00000 
-8.12526e-02 -4.45802e-02        00000 
-1.05670e-01 -5.74994e-02        00000 
-9.64172e-02 -4.92904e-02        00000 
-6.30726e-02 -2.73922e-02        00000 
-8.63321e-02 -4.07811e-02        00000 
-7.71547e-02 -3.33163e-02        00000 
-4.97811e-02 -1.60105e-02        00000 
-6.82079e-02 -2.72331e-02        00000 
-6.02448e-02 -2.25289e-02        00000 
-3.90207e-02 -9.77415e-03        00000 
-5.34829e-02 -1.92884e-02        00000 
-4.73916e-02 -1.63963e-02        00000 
-3.08329e-02 -5.88732e-03        00000 
-4.22424e-02 -1.38148e-02        00000 
-3.73192e-02 -1.17320e-02        00000 
-2.50576e-02 -3.77417e-03        00000 
-3.36393e-02 -1.02669e-02        00000 
-2.98700e-02 -9.16442e-03        00000 
-1.86556e-02 -2.29437e-03        00000 
-2.57012e-02 -8.51674e-03        00000 
-2.10077e-02 -8.03617e-03        00000 
-1.11104e-02 -1.24170e-03        00000 
-1.57114e-02 -7.43282e-03        00000 
-1.01370e-02 -7.38501e-03        00000 
-2.10525e-03 -1.31462e-03        00000 
-4.19587e-03 -7.89732e-03        00000 
 2.19109e-03 -8.22750e-03        00000 
-1.56946e-01 -8.21008e-02        00000 
-1.81389e-01 -9.87723e-02        00000 
-1.67757e-01 -9.10459e-02        00000 
-1.31560e-01 -6.80863e-02        00000 
-1.54169e-01 -8.44589e-02        00000 
-1.39863e-01 -7.85639e-02        00000 
-1.05002e-01 -5.65665e-02        00000 
-1.25065e-01 -7.33624e-02        00000 
-1.11038e-01 -6.80125e-02        00000 
-8.25163e-02 -4.76663e-02        00000 
-9.86520e-02 -6.36095e-02        00000 
-8.70730e-02 -5.96843e-02        00000 
-6.41341e-02 -4.12157e-02        00000 
-7.68366e-02 -5.62607e-02        00000 
-6.70182e-02 -5.32086e-02        00000 
-4.85323e-02 -3.67832e-02        00000 
-5.79366e-02 -5.07869e-02        00000 
-4.92233e-02 -4.86511e-02        00000 
-3.34683e-02 -3.48845e-02        00000 
-4.04382e-02 -4.75757e-02        00000 
-3.09027e-02 -4.71598e-02        00000 
-1.48569e-02 -3.53998e-02        00000 
-2.01541e-02 -4.71702e-02        00000 
-8.93142e-03 -4.78949e-02        00000 
 5.70407e-03 -3.77851e-02        00000 
 2.84286e-03 -4.88202e-02        00000 
 1.37295e-02 -5.01504e-02        00000 
-2.23826e-01 -1.46176e-01        00000 
-2.47823e-01 -1.67507e-01        00000 
-2.29549e-01 -1.61263e-01        00000 
-1.89206e-01 -1.33022e-01        00000 
-2.11333e-01 -1.54848e-01        00000 
-1.93178e-01 -1.49139e-01        00000 
-1.54523e-01 -1.21004e-01        00000 
-1.74881e-01 -1.43369e-01        00000 
-1.56720e-01 -1.37410e-01        00000 
-1.21231e-01 -1.09892e-01        00000 
-1.39288e-01 -1.31996e-01        00000 
-1.22451e-01 -1.26403e-01        00000 
-9.18576e-02 -1.00684e-01        00000 
-1.06288e-01 -1.21785e-01        00000 
-9.05062e-02 -1.17336e-01        00000 
-6.54554e-02 -9.47834e-02        00000 
-7.57656e-02 -1.14521e-01        00000 
-6.15042e-02 -1.12567e-01        00000 
-3.93837e-02 -9.23896e-02        00000 
-4.74175e-02 -1.11684e-01        00000 
-3.27480e-02 -1.11048e-01        00000 
-1.10162e-02 -9.18396e-02        00000 
-1.76897e-02 -1.10634e-01        00000 
-1.64380e-03 -1.11030e-01        00000 
 1.97836e-02 -9.34963e-02        00000 
 1.55097e-02 -1.11891e-01        00000 
 3.31146e-02 -1.13772e-01        00000 
-2.78944e-01 -2.22643e-01        00000 
-3.01327e-01 -2.47015e-01        00000 
-2.80143e-01 -2.41254e-01        00000 
-2.37224e-01 -2.10942e-01        00000 
-2.58956e-01 -2.35680e-01        00000 
-2.37779e-01 -2.29981e-01        00000 
-1.96056e-01 -1.99608e-01        00000 
-2.16270e-01 -2.24526e-01        00000 
-1.94660e-01 -2.19030e-01        00000 
-1.55865e-01 -1.89655e-01        00000 
-1.73415e-01 -2.14777e-01        00000 
-1.52186e-01 -2.10716e-01        00000 
-1.14819e-01 -1.81575e-01        00000 
-1.30817e-01 -2.07065e-01        00000 
-1.08896e-01 -2.03701e-01        00000 
-7.51464e-02 -1.76094e-01        00000 
-8.77448e-02 -2.00941e-01        00000 
-6.74903e-02 -1.98740e-01        00000 
-3.91015e-02 -1.74326e-01        00000 
-4.79322e-02 -1.97578e-01        00000 
-2.81371e-02 -1.97808e-01        00000 
-1.43252e-03 -1.75894e-01        00000 
-7.96531e-03 -1.98745e-01        00000 
 1.34472e-02 -2.00783e-01        00000 
 4.18635e-02 -1.80674e-01        00000 
 3.63038e-02 -2.03127e-01        00000 
 5.92977e-02 -2.05681e-01        00000 
-3.23988e-01 -3.10895e-01        00000 
-3.46663e-01 -3.39589e-01        00000 
-3.21024e-01 -3.35293e-01        00000 
-2.76726e-01 -3.02395e-01        00000 
-2.96576e-01 -3.31305e-01        00000 
-2.71874e-01 -3.27694e-01        00000 
-2.28620e-01 -2.94320e-01        00000 
-2.46478e-01 -3.23764e-01        00000 
-2.21316e-01 -3.20807e-01        00000 
-1.79531e-01 -2.86965e-01        00000 
-1.96021e-01 -3.17430e-01        00000 
-1.70880e-01 -3.14644e-01        00000 
-1.30784e-01 -2.80759e-01        00000 
-1.45808e-01 -3.11178e-01        00000 
-1.21200e-01 -3.08453e-01        00000 
-8.24790e-02 -2.75235e-01        00000 
-9.60618e-02 -3.05281e-01        00000 
-7.07578e-02 -3.03089e-01        00000 
-3.36861e-02 -2.71973e-01        00000 
-4.51165e-02 -3.00881e-01        00000 
-1.95181e-02 -3.00472e-01        00000 
 1.59221e-02 -2.72397e-01        00000 
 6.81558e-03 -3.00108e-01        00000 
 3.30823e-02 -3.00967e-01        00000 
 6.68819e-02 -2.75442e-01        00000 
 5.95459e-02 -3.01761e-01        00000 
 8.57287e-02 -3.03722e-01        00000 
-3.59961e-01 -4.20657e-01        00000 
-3.82044e-01 -4.52855e-01        00000 
-3.51952e-01 -4.50200e-01        00000 
-3.02672e-01 -4.14620e-01        00000 
-3.22335e-01 -4.46967e-01        00000 
-2.93978e-01 -4.44408e-01        00000 
-2.47917e-01 -4.08653e-01        00000 
-2.65944e-01 -4.41397e-01        00000 
-2.38231e-01 -4.38656e-01        00000 
-1.93446e-01 -4.02611e-01        00000 
-2.10217e-01 -4.35451e-01        00000 
-1.82773e-01 -4.32541e-01        00000 
-1.39734e-01 -3.96679e-01        00000 
-1.55442e-01 -4.29083e-01        00000 
-1.28137e-01 -4.26644e-01        00000 
-8.51908e-02 -3.92017e-01        00000 
-9.97359e-02 -4.24280e-01        00000 
-7.09943e-02 -4.22617e-01        00000 
-2.73057e-02 -3.88982e-01        00000 
-4.13229e-02 -4.20834e-01        00000 
-1.14870e-02 -4.20551e-01        00000 
 3.02941e-02 -3.88030e-01        00000 
 1.81398e-02 -4.19809e-01        00000 
 4.75011e-02 -4.19837e-01        00000 
 8.85928e-02 -3.89282e-01        00000 
 7.72999e-02 -4.20053e-01        00000 
 1.08290e-01 -4.21082e-01        00000 
-3.84744e-01 -5.45696e-01        00000 
-4.06896e-01 -5.79708e-01        00000 
-3.73235e-01 -5.76667e-01        00000 
-3.21615e-01 -5.40887e-01        00000 
-3.41074e-01 -5.74678e-01        00000 
-3.10372e-01 -5.72483e-01        00000 
-2.63186e-01 -5.35677e-01        00000 
-2.80928e-01 -5.70615e-01        00000 
-2.51808e-01 -5.68712e-01        00000 
-2.05617e-01 -5.30204e-01        00000 
-2.22323e-01 -5.66786e-01        00000 
-1.92561e-01 -5.65156e-01        00000 
-1.45467e-01 -5.25706e-01        00000 
-1.62062e-01 -5.63062e-01        00000 
-1.30866e-01 -5.61997e-01        00000 
-8.39929e-02 -5.23972e-01        00000 
-9.88146e-02 -5.60937e-01        00000 
-6.76201e-02 -5.60774e-01        00000 
-2.21595e-02 -5.23631e-01        00000 
-3.69293e-02 -5.60327e-01        00000 
-6.39767e-03 -5.60662e-01        00000 
 3.77471e-02 -5.23803e-01        00000 
 2.42054e-02 -5.60265e-01        00000 
 5.50161e-02 -5.61110e-01        00000 
 1.00814e-01 -5.24618e-01        00000 
 8.60220e-02 -5.61848e-01        00000 
 1.19469e-01 -5.63045e-01        00000 
-4.03077e-01 -6.88869e-01        00000 
-4.24385e-01 -7.26354e-01        00000 
-3.88194e-01 -7.24530e-01        00000 
-3.34215e-01 -6.84474e-01        00000 
-3.53490e-01 -7.22901e-01        00000 
-3.20221e-01 -7.20726e-01        00000 
-2.71200e-01 -6.81025e-01        00000 
-2.88429e-01 -7.18849e-01        00000 
-2.57057e-01 -7.17287e-01        00000 
-2.10720e-01 -6.78537e-01        00000 
-2.26539e-01 -7.15818e-01        00000 
-1.95298e-01 -7.14648e-01        00000 
-1.46548e-01 -6.75869e-01        00000 
-1.63465e-01 -7.12856e-01        00000 
-1.30571e-01 -7.10707e-01        00000 
-8.27105e-02 -6.72763e-01        00000 
-9.89026e-02 -7.08872e-01        00000 
-6.66385e-02 -7.06362e-01        00000 
-2.00119e-02 -6.69335e-01        00000 
-3.55978e-02 -7.04679e-01        00000 
-4.17527e-03 -7.02594e-01        00000 
 4.23911e-02 -6.66937e-01        00000 
 2.66429e-02 -7.01449e-01        00000 
 5.87248e-02 -7.00192e-01        00000 
 1.06333e-01 -6.66443e-01        00000 
 9.08915e-02 -6.99456e-01        00000 
 1.24240e-01 -6.99868e-01        00000 
-3.31575e-02 -1.57856e-02        00000 
-5.62367e-02 -2.96075e-02        00000 
-2.57667e-02 -6.13956e-03        00000 
-4.28338e-02 -1.47076e-02        00000 
-2.08988e-02 -1.81286e-03        00000 
-3.39827e-02 -6.21170e-03        00000 
-1.72138e-02  5.20124e-04        00000 
-2.74122e-02 -2.06619e-03        00000 
-1.42244e-02  1.35354e-03        00000 
-2.17733e-02 -1.95975e-04        00000 
-1.12147e-02  2.09375e-03        00000 
-1.78872e-02  7.12430e-04        00000 
-7.96077e-03  3.13251e-03        00000 
-1.28496e-02  2.02992e-03        00000 
-4.36230e-03  3.50021e-03        00000 
-7.18467e-03  2.56817e-03        00000 
-2.67984e-03  3.83287e-03        00000 
-1.78435e-03  1.82860e-03        00000 
-1.09819e-01 -5.43460e-02        00000 
-1.33359e-01 -6.80200e-02        00000 
-8.82522e-02 -3.93928e-02        00000 
-1.09475e-01 -5.31676e-02        00000 
-6.89419e-02 -2.96500e-02        00000 
-8.63325e-02 -4.16607e-02        00000 
-5.44160e-02 -2.26853e-02        00000 
-6.78166e-02 -3.33329e-02        00000 
-4.24706e-02 -1.83398e-02        00000 
-5.25934e-02 -2.80681e-02        00000 
-3.26066e-02 -1.60491e-02        00000 
-4.02026e-02 -2.49404e-02        00000 
-2.10624e-02 -1.47740e-02        00000 
-2.69501e-02 -2.34788e-02        00000 
-7.02602e-03 -1.54762e-02        00000 
-1.06647e-02 -2.46540e-02        00000 
 9.28042e-03 -1.75877e-02        00000 
 7.13851e-03 -2.72445e-02        00000 
-1.76675e-01 -1.02675e-01        00000 
-2.00054e-01 -1.23722e-01        00000 
-1.45789e-01 -9.07242e-02        00000 
-1.67333e-01 -1.10431e-01        00000 
-1.15702e-01 -7.99856e-02        00000 
-1.34540e-01 -9.81730e-02        00000 
-9.01883e-02 -7.12311e-02        00000 
-1.04742e-01 -8.79126e-02        00000 
-6.80867e-02 -6.50537e-02        00000 
-7.88738e-02 -8.04864e-02        00000 
-4.79364e-02 -6.09598e-02        00000 
-5.63219e-02 -7.61412e-02        00000 
-2.60576e-02 -5.97985e-02        00000 
-3.25098e-02 -7.40829e-02        00000 
-1.28803e-03 -6.06604e-02        00000 
-5.73696e-03 -7.48153e-02        00000 
 2.38387e-02 -6.33281e-02        00000 
 2.17285e-02 -7.80884e-02        00000 
-2.33759e-01 -1.76439e-01        00000 
-2.56297e-01 -1.99145e-01        00000 
-1.95329e-01 -1.64552e-01        00000 
-2.16051e-01 -1.87068e-01        00000 
-1.57915e-01 -1.53386e-01        00000 
-1.76944e-01 -1.75418e-01        00000 
-1.22202e-01 -1.42164e-01        00000 
-1.38984e-01 -1.64548e-01        00000 
-8.74473e-02 -1.34717e-01        00000 
-1.00045e-01 -1.56816e-01        00000 
-5.58879e-02 -1.31369e-01        00000 
-6.49322e-02 -1.52561e-01        00000 
-2.48359e-02 -1.30410e-01        00000 
-3.18443e-02 -1.51396e-01        00000 
 9.87097e-03 -1.31435e-01        00000 
 4.26776e-03 -1.52982e-01        00000 
 5.00015e-02 -1.35776e-01        00000 
 4.56333e-02 -1.58080e-01        00000 
-2.80623e-01 -2.60541e-01        00000 