<?xml version="1.0" encoding="utf-8"?>
<VTKFile byte_order="LittleEndian" type="UnstructuredGrid" version="0.1">
   <UnstructuredGrid>
      <Piece NumberOfCells="1296" NumberOfPoints="685">
         <Points>
            <DataArray Name="Points" NumberOfComponents="3" format="ascii" type="Float32">
0.0000 0.0000 0.0000
0.0000 0.1111 0.0000
0.0000 0.2222 0.0000
0.0000 0.3333 0.0000
0.0000 0.4444 0.0000
0.0000 0.5556 0.0000
0.0000 0.6667 0.0000
0.0000 0.7778 0.0000
0.0000 0.8889 0.0000
0.0000 1.0000 0.0000
0.2222 0.0000 0.0000
0.2222 0.1111 0.0000
0.2222 0.2222 0.0000
0.2222 0.3333 0.0000
0.2222 0.4444 0.0000
0.2222 0.5556 0.0000
0.2222 0.6667 0.0000
0.2222 0.7778 0.0000
0.2222 0.8889 0.0000
0.2222 1.0000 0.0000
0.4444 0.0000 0.0000
0.4444 0.1111 0.0000
0.4444 0.2222 0.0000
0.4444 0.3333 0.0000
0.4444 0.4444 0.0000
0.4444 0.5556 0.0000
0.4444 0.6667 0.0000
0.4444 0.7778 0.0000
0.4444 0.8889 0.0000
0.4444 1.0000 0.0000
0.6667 0.0000 0.0000
0.6667 0.1111 0.0000
0.6667 0.2222 0.0000
0.6667 0.3333 0.0000
0.6667 0.4444 0.0000
0.6667 0.5556 0.0000
0.6667 0.6667 0.0000
0.6667 0.7778 0.0000
0.6667 0.8889 0.0000
0.6667 1.0000 0.0000
0.8889 0.0000 0.0000
0.8889 0.1111 0.0000
0.8889 0.2222 0.0000
0.8889 0.3333 0.0000
0.8889 0.4444 0.0000
0.8889 0.5556 0.0000
0.8889 0.6667 0.0000
0.8889 0.7778 0.0000
0.8889 0.8889 0.0000
0.8889 1.0000 0.0000
1.1111 0.0000 0.0000
1.1111 0.1111 0.0000
1.1111 0.2222 0.0000
1.1111 0.3333 0.0000
1.1111 0.4444 0.0000
1.1111 0.5556 0.0000
1.1111 0.6667 0.0000
1.1111 0.7778 0.0000
1.1111 0.8889 0.0000
1.1111 1.0000 0.0000
1.3333 0.0000 0.0000
1.3333 0.1111 0.0000
1.3333 0.2222 0.0000
1.3333 0.3333 0.0000
1.3333 0.4444 0.0000
1.3333 0.5556 0.0000
1.3333 0.6667 0.0000
1.3333 0.7778 0.0000
1.3333 0.8889 0.0000
1.3333 1.0000 0.0000
1.5556 0.0000 0.0000
1.5556 0.1111 0.0000
1.5556 0.2222 0.0000
1.5556 0.3333 0.0000
1.5556 0.4444 0.0000
1.5556 0.5556 0.0000
1.5556 0.6667 0.0000
1.5556 0.7778 0.0000
1.5556 0.8889 0.0000
1.5556 1.0000 0.0000
1.7778 0.0000 0.0000
1.7778 0.1111 0.0000
1.7778 0.2222 0.0000
1.7778 0.3333 0.0000
1.7778 0.4444 0.0000
1.7778 0.5556 0.0000
1.7778 0.6667 0.0000
1.7778 0.7778 0.0000
1.7778 0.8889 0.0000
1.7778 1.0000 0.0000
2.0000 0.0000 0.0000
2.0000 0.1111 0.0000
2.0000 0.2222 0.0000
2.0000 0.3333 0.0000
2.0000 0.4444 0.0000
2.0000 0.5556 0.0000
2.0000 0.6667 0.0000
2.0000 0.7778 0.0000
2.0000 0.8889 0.0000
2.0000 1.0000 0.0000
0.1111 0.0556 0.0000
0.1111 0.1667 0.0000
0.1111 0.2778 0.0000
0.1111 0.3889 0.0000
0.1111 0.5000 0.0000
0.1111 0.6111 0.0000
0.1111 0.7222 0.0000
0.1111 0.8333 0.0000
0.1111 0.9444 0.0000
0.3333 0.0556 0.0000
0.3333 0.1667 0.0000
0.3333 0.2778 0.0000
0.3333 0.3889 0.0000
0.3333 0.5000 0.0000
0.3333 0.6111 0.0000
0.3333 0.7222 0.0000
0.3333 0.8333 0.0000
0.3333 0.9444 0.0000
0.5556 0.0556 0.0000
0.5556 0.1667 0.0000
0.5556 0.2778 0.0000
0.5556 0.3889 0.0000
0.5556 0.5000 0.0000
0.5556 0.6111 0.0000
0.5556 0.7222 0.0000
0.5556 0.8333 0.0000
0.5556 0.9444 0.0000
0.7778 0.0556 0.0000
0.7778 0.1667 0.0000
0.7778 0.2778 0.0000
0.7778 0.3889 0.0000
0.7778 0.5000 0.0000
0.7778 0.6111 0.0000
0.7778 0.7222 0.0000
0.7778 0.8333 0.0000
0.7778 0.9444 0.0000
1.0000 0.0556 0.0000
1.0000 0.1667 0.0000
1.0000 0.2778 0.0000
1.0000 0.3889 0.0000
1.0000 0.5000 0.0000
1.0000 0.6111 0.0000
1.0000 0.7222 0.0000
1.0000 0.8333 0.0000
1.0000 0.9444 0.0000
1.2222 0.0556 0.0000
1.2222 0.1667 0.0000
1.2222 0.2778 0.0000
1.2222 0.3889 0.0000
1.2222 0.5000 0.0000
1.2222 0.6111 0.0000
1.2222 0.7222 0.0000
1.2222 0.8333 0.0000
1.2222 0.9444 0.0000
1.4444 0.0556 0.0000
1.4444 0.1667 0.0000
1.4444 0.2778 0.0000
1.4444 0.3889 0.0000
1.4444 0.5000 0.0000
1.4444 0.6111 0.0000
1.4444 0.7222 0.0000
1.4444 0.8333 0.0000
1.4444 0.9444 0.0000
1.6667 0.0556 0.0000
1.6667 0.1667 0.0000
1.6667 0.2778 0.0000
1.6667 0.3889 0.0000
1.6667 0.5000 0.0000
1.6667 0.6111 0.0000
1.6667 0.7222 0.0000
1.6667 0.8333 0.0000
1.6667 0.9444 0.0000
1.8889 0.0556 0.0000
1.8889 0.1667 0.0000
1.8889 0.2778 0.0000
1.8889 0.3889 0.0000
1.8889 0.5000 0.0000
1.8889 0.6111 0.0000
1.8889 0.7222 0.0000
1.8889 0.8333 0.0000
1.8889 0.9444 0.0000
0.0000 0.0556 0.0000
0.0556 0.0278 0.0000
0.0556 0.0833 0.0000
0.0000 0.1667 0.0000
0.0556 0.1389 0.0000
0.0556 0.1944 0.0000
0.0000 0.2778 0.0000
0.0556 0.2500 0.0000
0.0556 0.3056 0.0000
0.0000 0.3889 0.0000
0.0556 0.3611 0.0000
0.0556 0.4167 0.0000
0.0000 0.5000 0.0000
0.0556 0.4722 0.0000
0.0556 0.5278 0.0000
0.0000 0.6111 0.0000
0.0556 0.5833 0.0000
0.0556 0.6389 0.0000
0.0000 0.7222 0.0000
0.0556 0.6944 0.0000
0.0556 0.7500 0.0000
0.0000 0.8333 0.0000
0.0556 0.8056 0.0000
0.0556 0.8611 0.0000
0.0000 0.9444 0.0000
0.0556 0.9167 0.0000
0.0556 0.9722 0.0000
0.2222 0.0556 0.0000
0.2778 0.0278 0.0000
0.2778 0.0833 0.0000
0.2222 0.1667 0.0000
0.2778 0.1389 0.0000
0.2778 0.1944 0.0000
0.2222 0.2778 0.0000
0.2778 0.2500 0.0000
0.2778 0.3056 0.0000
0.2222 0.3889 0.0000
0.2778 0.3611 0.0000
0.2778 0.4167 0.0000
0.2222 0.5000 0.0000
0.2778 0.4722 0.0000
0.2778 0.5278 0.0000
0.2222 0.6111 0.0000
0.2778 0.5833 0.0000
0.2778 0.6389 0.0000
0.2222 0.7222 0.0000
0.2778 0.6944 0.0000
0.2778 0.7500 0.0000
0.2222 0.8333 0.0000
0.2778 0.8056 0.0000
0.2778 0.8611 0.0000
0.2222 0.9444 0.0000
0.2778 0.9167 0.0000
0.2778 0.9722 0.0000
0.4444 0.0556 0.0000
0.5000 0.0278 0.0000
0.5000 0.0833 0.0000
0.4444 0.1667 0.0000
0.5000 0.1389 0.0000
0.5000 0.1944 0.0000
0.4444 0.2778 0.0000
0.5000 0.2500 0.0000
0.5000 0.3056 0.0000
0.4444 0.3889 0.0000
0.5000 0.3611 0.0000
0.5000 0.4167 0.0000
0.4444 0.5000 0.0000
0.5000 0.4722 0.0000
0.5000 0.5278 0.0000
0.4444 0.6111 0.0000
0.5000 0.5833 0.0000
0.5000 0.6389 0.0000
0.4444 0.7222 0.0000
0.5000 0.6944 0.0000
0.5000 0.7500 0.0000
0.4444 0.8333 0.0000
0.5000 0.8056 0.0000
0.5000 0.8611 0.0000
0.4444 0.9444 0.0000
0.5000 0.9167 0.0000
0.5000 0.9722 0.0000
0.6667 0.0556 0.0000
0.7222 0.0278 0.0000
0.7222 0.0833 0.0000
0.6667 0.1667 0.0000
0.7222 0.1389 0.0000
0.7222 0.1944 0.0000
0.6667 0.2778 0.0000
0.7222 0.2500 0.0000
0.7222 0.3056 0.0000
0.6667 0.3889 0.0000
0.7222 0.3611 0.0000
0.7222 0.4167 0.0000
0.6667 0.5000 0.0000
0.7222 0.4722 0.0000
0.7222 0.5278 0.0000
0.6667 0.6111 0.0000
0.7222 0.5833 0.0000
0.7222 0.6389 0.0000
0.6667 0.7222 0.0000
0.7222 0.6944 0.0000
0.7222 0.7500 0.0000
0.6667 0.8333 0.0000
0.7222 0.8056 0.0000
0.7222 0.8611 0.0000
0.6667 0.9444 0.0000
0.7222 0.9167 0.0000
0.7222 0.9722 0.0000
0.8889 0.0556 0.0000
0.9444 0.0278 0.0000
0.9444 0.0833 0.0000
0.8889 0.1667 0.0000
0.9444 0.1389 0.0000
0.9444 0.1944 0.0000
0.8889 0.2778 0.0000
0.9444 0.2500 0.0000
0.9444 0.3056 0.0000
0.8889 0.3889 0.0000
0.9444 0.3611 0.0000
0.9444 0.4167 0.0000
0.8889 0.5000 0.0000
0.9444 0.4722 0.0000
0.9444 0.5278 0.0000
0.8889 0.6111 0.0000
0.9444 0.5833 0.0000
0.9444 0.6389 0.0000
0.8889 0.7222 0.0000
0.9444 0.6944 0.0000
0.9444 0.7500 0.0000
0.8889 0.8333 0.0000
0.9444 0.8056 0.0000
0.9444 0.8611 0.0000
0.8889 0.9444 0.0000
0.9444 0.9167 0.0000
0.9444 0.9722 0.0000
1.1111 0.0556 0.0000
1.1667 0.0278 0.0000
1.1667 0.0833 0.0000
1.1111 0.1667 0.0000
1.1667 0.1389 0.0000
1.1667 0.1944 0.0000
1.1111 0.2778 0.0000
1.1667 0.2500 0.0000
1.1667 0.3056 0.0000
1.1111 0.3889 0.0000
1.1667 0.3611 0.0000
1.1667 0.4167 0.0000
1.1111 0.5000 0.0000
1.1667 0.4722 0.0000
1.1667 0.5278 0.0000
1.1111 0.6111 0.0000
1.1667 0.5833 0.0000
1.1667 0.6389 0.0000
1.1111 0.7222 0.0000
1.1667 0.6944 0.0000
1.1667 0.7500 0.0000
1.1111 0.8333 0.0000
1.1667 0.8056 0.0000
1.1667 0.8611 0.0000
1.1111 0.9444 0.0000
1.1667 0.9167 0.0000
1.1667 0.9722 0.0000
1.3333 0.0556 0.0000
1.3889 0.0278 0.0000
1.3889 0.0833 0.0000
1.3333 0.1667 0.0000
1.3889 0.1389 0.0000
1.3889 0.1944 0.0000
1.3333 0.2778 0.0000
1.3889 0.2500 0.0000
1.3889 0.3056 0.0000
1.3333 0.3889 0.0000
1.3889 0.3611 0.0000
1.3889 0.4167 0.0000
1.3333 0.5000 0.0000
1.3889 0.4722 0.0000
1.3889 0.5278 0.0000
1.3333 0.6111 0.0000
1.3889 0.5833 0.0000
1.3889 0.6389 0.0000
1.3333 0.7222 0.0000
1.3889 0.6944 0.0000
1.3889 0.7500 0.0000
1.3333 0.8333 0.0000
1.3889 0.8056 0.0000
1.3889 0.8611 0.0000
1.3333 0.9444 0.0000
1.3889 0.9167 0.0000
1.3889 0.9722 0.0000
1.5556 0.0556 0.0000
1.6111 0.0278 0.0000
1.6111 0.0833 0.0000
1.5556 0.1667 0.0000
1.6111 0.1389 0.0000
1.6111 0.1944 0.0000
1.5556 0.2778 0.0000
1.6111 0.2500 0.0000
1.6111 0.3056 0.0000
1.5556 0.3889 0.0000
1.6111 0.3611 0.0000
1.6111 0.4167 0.0000
1.5556 0.5000 0.0000
1.6111 0.4722 0.0000
1.6111 0.5278 0.0000
1.5556 0.6111 0.0000
1.6111 0.5833 0.0000
1.6111 0.6389 0.0000
1.5556 0.7222 0.0000
1.6111 0.6944 0.0000
1.6111 0.7500 0.0000
1.5556 0.8333 0.0000
1.6111 0.8056 0.0000
1.6111 0.8611 0.0000
1.5556 0.9444 0.0000
1.6111 0.9167 0.0000
1.6111 0.9722 0.0000
1.7778 0.0556 0.0000
1.8333 0.0278 0.0000
1.8333 0.0833 0.0000
1.7778 0.1667 0.0000
1.8333 0.1389 0.0000
1.8333 0.1944 0.0000
1.7778 0.2778 0.0000
1.8333 0.2500 0.0000
1.8333 0.3056 0.0000
1.7778 0.3889 0.0000
1.8333 0.3611 0.0000
1.8333 0.4167 0.0000
1.7778 0.5000 0.0000
1.8333 0.4722 0.0000
1.8333 0.5278 0.0000
1.7778 0.6111 0.0000
1.8333 0.5833 0.0000
1.8333 0.6389 0.0000
1.7778 0.7222 0.0000
1.8333 0.6944 0.0000
1.8333 0.7500 0.0000
1.7778 0.8333 0.0000
1.8333 0.8056 0.0000
1.8333 0.8611 0.0000
1.7778 0.9444 0.0000
1.8333 0.9167 0.0000
1.8333 0.9722 0.0000
0.1111 0.1111 0.0000
0.1667 0.0833 0.0000
0.1111 0.2222 0.0000
0.1667 0.1944 0.0000
0.1111 0.3333 0.0000
0.1667 0.3056 0.0000
0.1111 0.4444 0.0000
0.1667 0.4167 0.0000
0.1111 0.5556 0.0000
0.1667 0.5278 0.0000
0.1111 0.6667 0.0000
0.1667 0.6389 0.0000
0.1111 0.7778 0.0000
0.1667 0.7500 0.0000
0.1111 0.8889 0.0000
0.1667 0.8611 0.0000
0.1111 1.0000 0.0000
0.1667 0.9722 0.0000
0.3333 0.1111 0.0000
0.3889 0.0833 0.0000
0.3333 0.2222 0.0000
0.3889 0.1944 0.0000
0.3333 0.3333 0.0000
0.3889 0.3056 0.0000
0.3333 0.4444 0.0000
0.3889 0.4167 0.0000
0.3333 0.5556 0.0000
0.3889 0.5278 0.0000
0.3333 0.6667 0.0000
0.3889 0.6389 0.0000
0.3333 0.7778 0.0000
0.3889 0.7500 0.0000
0.3333 0.8889 0.0000
0.3889 0.8611 0.0000
0.3333 1.0000 0.0000
0.3889 0.9722 0.0000
0.5556 0.1111 0.0000
[...]
         <PointData>
            <DataArray Name="fValues" NumberOfComponents="3" format="ascii" type="Float64">
 2.44753e-15        00000        00000 
-1.58466e-15  1.22150e-15        00000 
 6.13622e-16 -4.81563e-16        00000 
-5.26052e-16  6.57565e-17        00000 
-3.08924e-16 -4.76537e-16        00000 
 1.31513e-16  1.97270e-16        00000 
 1.28415e-15 -7.26138e-16        00000 
-1.77382e-15 -1.05115e-15        00000 
 5.28345e-16 -5.28345e-16        00000 
-6.11883e-15  6.11883e-16        00000 
-4.99132e+01 -3.79593e+01        00000 
-3.39617e+01 -2.91898e+01        00000 
-2.21402e+01 -2.30185e+01        00000 
-1.26222e+01 -1.94461e+01        00000 
-4.11166e+00 -1.78259e+01        00000 
 4.11072e+00 -1.78263e+01        00000 
 1.26219e+01 -1.94475e+01        00000 
 2.21384e+01 -2.30210e+01        00000 
 3.39592e+01 -2.91929e+01        00000 
 4.99115e+01 -3.79622e+01        00000 
-9.08460e+01 -8.06615e+01        00000 
-6.68561e+01 -7.30429e+01        00000 
-4.55816e+01 -6.71101e+01        00000 
-2.64686e+01 -6.31357e+01        00000 
-8.67732e+00 -6.11650e+01        00000 
 8.67883e+00 -6.11658e+01        00000 
 2.64696e+01 -6.31375e+01        00000 
 4.55815e+01 -6.71123e+01        00000 
 6.68543e+01 -7.30455e+01        00000 
 9.08422e+01 -8.06642e+01        00000 
-1.26975e+02 -1.39606e+02        00000 
-9.51591e+01 -1.33052e+02        00000 
-6.59972e+01 -1.27990e+02        00000 
-3.87902e+01 -1.24573e+02        00000 
-1.27924e+01 -1.22852e+02        00000 
 1.27964e+01 -1.22851e+02        00000 
 3.87935e+01 -1.24571e+02        00000 
 6.59990e+01 -1.27988e+02        00000 
 9.51597e+01 -1.33049e+02        00000 
 1.26974e+02 -1.39604e+02        00000 
-1.57733e+02 -2.13381e+02        00000 
-1.19112e+02 -2.07912e+02        00000 
-8.31630e+01 -2.03711e+02        00000 
-4.91262e+01 -2.00892e+02        00000 
-1.62460e+01 -1.99478e+02        00000 
 1.62475e+01 -1.99477e+02        00000 
 4.91288e+01 -2.00889e+02        00000 
 8.31658e+01 -2.03707e+02        00000 
 1.19114e+02 -2.07906e+02        00000 
 1.57735e+02 -2.13376e+02        00000 
-1.82935e+02 -2.99606e+02        00000 
-1.38718e+02 -2.95227e+02        00000 
-9.71746e+01 -2.91875e+02        00000 
-5.75386e+01 -2.89636e+02        00000 
-1.90525e+01 -2.88518e+02        00000 
 1.90501e+01 -2.88517e+02        00000 
 5.75385e+01 -2.89634e+02        00000 
 9.71764e+01 -2.91872e+02        00000 
 1.38720e+02 -2.95225e+02        00000 
 1.82938e+02 -2.99604e+02        00000 
-2.02566e+02 -3.95776e+02        00000 
-1.53978e+02 -3.92484e+02        00000 
-1.08040e+02 -3.89992e+02        00000 
-6.40319e+01 -3.88356e+02        00000 
-2.12117e+01 -3.87551e+02        00000 
 2.12063e+01 -3.87550e+02        00000 
 6.40284e+01 -3.88354e+02        00000 
 1.08039e+02 -3.89989e+02        00000 
 1.53978e+02 -3.92481e+02        00000 
 2.02567e+02 -3.95771e+02        00000 
-2.16759e+02 -4.99401e+02        00000 
-1.64905e+02 -4.97171e+02        00000 
-1.15650e+02 -4.95593e+02        00000 
-6.84841e+01 -4.94633e+02        00000 
-2.26761e+01 -4.94182e+02        00000 
 2.26649e+01 -4.94182e+02        00000 
 6.84756e+01 -4.94632e+02        00000 
 1.15644e+02 -4.95591e+02        00000 
 1.64900e+02 -4.97168e+02        00000 
 2.16754e+02 -4.99396e+02        00000 
-2.26191e+02 -6.08464e+02        00000 
-1.71434e+02 -6.07258e+02        00000 
-1.19737e+02 -6.06533e+02        00000 
-7.07428e+01 -6.06018e+02        00000 
-2.34022e+01 -6.05734e+02        00000 
 2.33889e+01 -6.05734e+02        00000 
 7.07298e+01 -6.06020e+02        00000 
 1.19725e+02 -6.06534e+02        00000 
 1.71424e+02 -6.07257e+02        00000 
 2.26182e+02 -6.08463e+02        00000 
-2.32003e+02 -7.27025e+02        00000 
-1.74153e+02 -7.24204e+02        00000 
-1.21626e+02 -7.20845e+02        00000 
-7.19419e+01 -7.18267e+02        00000 
-2.38168e+01 -7.16892e+02        00000 
 2.38037e+01 -7.16893e+02        00000 
 7.19294e+01 -7.18268e+02        00000 
 1.21613e+02 -7.20848e+02        00000 
 1.74140e+02 -7.24208e+02        00000 
 2.31992e+02 -7.27030e+02        00000 
-2.01987e+01 -1.61579e+01        00000 
-1.28923e+01 -9.85939e+00        00000 
-8.02013e+00 -6.80552e+00        00000 
-3.87981e+00 -5.34938e+00        00000 
-2.37788e-04 -4.91354e+00        00000 
 3.87940e+00 -5.34968e+00        00000 
 8.01927e+00 -6.80693e+00        00000 
 1.28907e+01 -9.86089e+00        00000 
 2.01978e+01 -1.61588e+01        00000 
-6.06069e+01 -5.30464e+01        00000 
-4.22289e+01 -4.57309e+01        00000 
-2.66706e+01 -4.05717e+01        00000 
-1.29239e+01 -3.76119e+01        00000 
-1.24640e-04 -3.66554e+01        00000 
 1.29241e+01 -3.76135e+01        00000 
 2.66702e+01 -4.05739e+01        00000 
 4.22269e+01 -4.57342e+01        00000 
 6.06039e+01 -5.30503e+01        00000 
-9.51854e+01 -1.04428e+02        00000 
-6.85840e+01 -9.80917e+01        00000 
-4.43321e+01 -9.34688e+01        00000 
-2.17395e+01 -9.06704e+01        00000 
 1.62191e-03 -8.97355e+01        00000 
 2.17423e+01 -9.06707e+01        00000 
 4.43337e+01 -9.34690e+01        00000 
 6.85839e+01 -9.80917e+01        00000 
 9.51839e+01 -1.04428e+02        00000 
-1.24978e+02 -1.71623e+02        00000 
-9.10423e+01 -1.66269e+02        00000 
-5.93962e+01 -1.62392e+02        00000 
-2.93038e+01 -1.60049e+02        00000 
 1.55683e-03 -1.59264e+02        00000 
 2.93071e+01 -1.60046e+02        00000 
 5.93994e+01 -1.62388e+02        00000 
 9.10443e+01 -1.66265e+02        00000 
 1.24979e+02 -1.71619e+02        00000 
-1.49858e+02 -2.52505e+02        00000 
-1.09724e+02 -2.48127e+02        00000 
-7.18742e+01 -2.44971e+02        00000 
-3.55539e+01 -2.43073e+02        00000 
-4.38477e-04 -2.42439e+02        00000 
 3.55538e+01 -2.43071e+02        00000 
 7.18758e+01 -2.44968e+02        00000 
 1.09726e+02 -2.48123e+02        00000 
 1.49861e+02 -2.52501e+02        00000 
-1.69782e+02 -3.44589e+02        00000 
-1.24662e+02 -3.41186e+02        00000 
-8.18238e+01 -3.38750e+02        00000 
-4.05245e+01 -3.37297e+02        00000 
-2.26089e-03 -3.36815e+02        00000 
 4.05219e+01 -3.37296e+02        00000 
 8.18236e+01 -3.38748e+02        00000 
 1.24663e+02 -3.41184e+02        00000 
 1.69785e+02 -3.44585e+02        00000 
-1.84780e+02 -4.45352e+02        00000 
-1.35836e+02 -4.42934e+02        00000 
-8.91924e+01 -4.41264e+02        00000 
-4.41752e+01 -4.40303e+02        00000 
-4.25209e-03 -4.39990e+02        00000 
 4.41679e+01 -4.40301e+02        00000 
 8.91884e+01 -4.41261e+02        00000 
 1.35834e+02 -4.42931e+02        00000 
 1.84778e+02 -4.45348e+02        00000 
-1.95031e+02 -5.52379e+02        00000 
-1.43115e+02 -5.50976e+02        00000 
-9.37638e+01 -5.50130e+02        00000 
-4.63730e+01 -5.49669e+02        00000 
-6.57706e-03 -5.49521e+02        00000 
 4.63607e+01 -5.49669e+02        00000 
 9.37538e+01 -5.50130e+02        00000 
 1.43107e+02 -5.50974e+02        00000 
 1.95023e+02 -5.52377e+02        00000 
-2.00711e+02 -6.64958e+02        00000 
-1.46339e+02 -6.64075e+02        00000 
-9.56768e+01 -6.63006e+02        00000 
-4.72949e+01 -6.62182e+02        00000 
-6.46425e-03 -6.61877e+02        00000 
 4.72819e+01 -6.62182e+02        00000 
 9.56641e+01 -6.63008e+02        00000 
 1.46327e+02 -6.64077e+02        00000 
 2.00700e+02 -6.64960e+02        00000 
-2.32096e-15 -1.52663e-15        00000 
-1.10396e+01 -8.43733e+00        00000 
-8.38025e+00 -5.94209e+00        00000 
 2.89533e-15  1.82886e-15        00000 
-6.75962e+00 -4.37952e+00        00000 
-5.47894e+00 -3.32049e+00        00000 
-9.99201e-16 -2.49800e-16        00000 
-4.35572e+00 -2.58046e+00        00000 
-3.32062e+00 -2.06299e+00        00000 
 3.01287e-16 -4.54773e-17        00000 
-2.33971e+00 -1.71211e+00        00000 
-1.39185e+00 -1.49393e+00        00000 
-9.36751e-17 -6.24500e-16        00000 
-4.62209e-01 -1.38940e+00        00000 
 4.61761e-01 -1.38946e+00        00000 
 1.60675e-16 -2.53677e-16        00000 
 1.39144e+00 -1.49421e+00        00000 
 2.33920e+00 -1.71244e+00        00000 
-1.24900e-16 -8.74301e-16        00000 
 3.32012e+00 -2.06361e+00        00000 
 4.35500e+00 -2.58114e+00        00000 
 1.99840e-15  2.49800e-16        00000 
 5.47813e+00 -3.32109e+00        00000 
 6.75889e+00 -4.38010e+00        00000 
-6.17878e-16 -6.86661e-16        00000 
 8.37960e+00 -5.94239e+00        00000 
 1.10393e+01 -8.43758e+00        00000 
-4.14670e+01 -3.33904e+01        00000 
-5.57885e+01 -4.51525e+01        00000 
-4.68334e+01 -4.07611e+01        00000 
-2.76386e+01 -2.57338e+01        00000 
-3.87332e+01 -3.69195e+01        00000 
-3.15215e+01 -3.37310e+01        00000 
-1.71955e+01 -2.09538e+01        00000 
-2.50044e+01 -3.11892e+01        00000 
-1.89934e+01 -2.92445e+01        00000 
-8.29265e+00 -1.84207e+01        00000 
-1.33371e+01 -2.78414e+01        00000 
-7.91439e+00 -2.69333e+01        00000 
-6.09493e-04 -1.76310e+01        00000 
-2.62419e+00 -2.64876e+01        00000 
 2.62336e+00 -2.64878e+01        00000 
 8.29231e+00 -1.84217e+01        00000 
 7.91401e+00 -2.69342e+01        00000 
 1.33371e+01 -2.78429e+01        00000 
 1.71947e+01 -2.09558e+01        00000 
 1.89930e+01 -2.92463e+01        00000 
 2.50032e+01 -3.11915e+01        00000 
 2.76361e+01 -2.57365e+01        00000 
 3.15194e+01 -3.37338e+01        00000 
 3.87306e+01 -3.69229e+01        00000 
 4.14646e+01 -3.33934e+01        00000 
 4.68306e+01 -4.07647e+01        00000 
 5.57856e+01 -4.51561e+01        00000 
-7.84880e+01 -7.66726e+01        00000 
-9.35718e+01 -9.21755e+01        00000 
-8.05763e+01 -8.83247e+01        00000 
-5.59056e+01 -6.98423e+01        00000 
-6.82754e+01 -8.49725e+01        00000 
-5.66114e+01 -8.20907e+01        00000 
-3.58041e+01 -6.48715e+01        00000 
-4.55137e+01 -7.96800e+01        00000 
-3.48943e+01 -7.77478e+01        00000 
-1.74638e+01 -6.19018e+01        00000 
-2.46527e+01 -7.62987e+01        00000 
-1.46825e+01 -7.53338e+01        00000 
 7.95882e-04 -6.09204e+01        00000 
-4.87510e+00 -7.48520e+01        00000 
 4.87764e+00 -7.48524e+01        00000 
 1.74649e+01 -6.19034e+01        00000 
 1.46846e+01 -7.53346e+01        00000 
 2.46542e+01 -7.62998e+01        00000 
 3.58044e+01 -6.48735e+01        00000 
 3.48953e+01 -7.77490e+01        00000 
 4.55142e+01 -7.96813e+01        00000 
 5.59045e+01 -6.98446e+01        00000 
 5.66114e+01 -8.20920e+01        00000 
 6.82744e+01 -8.49738e+01        00000 
 7.84852e+01 -7.66750e+01        00000 
 8.05744e+01 -8.83259e+01        00000 
 9.35690e+01 -9.21767e+01        00000 
-1.10689e+02 -1.36165e+02        00000 
-1.26476e+02 -1.55279e+02        00000 
-1.09682e+02 -1.51985e+02        00000 
-8.02899e+01 -1.30320e+02        00000 
-9.35920e+01 -1.49133e+02        00000 
-7.81201e+01 -1.46693e+02        00000 
-5.21944e+01 -1.26072e+02        00000 
-6.31776e+01 -1.44656e+02        00000 
-4.86745e+01 -1.43021e+02        00000 
-2.56892e+01 -1.23499e+02        00000 
-3.45171e+01 -1.41791e+02        00000 
-2.06091e+01 -1.40968e+02        00000 
 1.98280e-03 -1.22636e+02        00000 
-6.85170e+00 -1.40556e+02        00000 
 6.85547e+00 -1.40556e+02        00000 
 2.56930e+01 -1.23497e+02        00000 
 2.06129e+01 -1.40967e+02        00000 
 3.45206e+01 -1.41788e+02        00000 
 5.21971e+01 -1.26070e+02        00000 
 4.86777e+01 -1.43018e+02        00000 
 6.31802e+01 -1.44653e+02        00000 
 8.02910e+01 -1.30318e+02        00000 
 7.81221e+01 -1.46690e+02        00000 
 9.35935e+01 -1.49130e+02        00000 
 1.10689e+02 -1.36162e+02        00000 
 1.09682e+02 -1.51981e+02        00000 
 1.26476e+02 -1.55275e+02        00000 
-1.38037e+02 -2.10507e+02        00000 
-1.54220e+02 -2.32652e+02        00000 
-1.34172e+02 -2.29927e+02        00000 
-1.00852e+02 -2.05641e+02        00000 
-1.14835e+02 -2.27574e+02        00000 
-9.61167e+01 -2.25565e+02        00000 
-6.59525e+01 -2.02127e+02        00000 
-7.79222e+01 -2.23893e+02        00000 
-6.01581e+01 -2.22554e+02        00000 
-3.25896e+01 -2.00009e+02        00000 
-4.27297e+01 -2.21549e+02        00000 
-2.55416e+01 -2.20879e+02        00000 
 6.69865e-04 -1.99300e+02        00000 
-8.49765e+00 -2.20543e+02        00000 
 8.49796e+00 -2.20543e+02        00000 
 3.25915e+01 -2.00007e+02        00000 
 2.55421e+01 -2.20877e+02        00000 
 4.27310e+01 -2.21547e+02        00000 
 6.59551e+01 -2.02123e+02        00000 
 6.01600e+01 -2.22550e+02        00000 
 7.79245e+01 -2.23888e+02        00000 
 1.00854e+02 -2.05636e+02        00000 
 9.61194e+01 -2.25560e+02        00000 
 1.14838e+02 -2.27569e+02        00000 
 1.38038e+02 -2.10501e+02        00000 
 1.34174e+02 -2.29923e+02        00000 
 1.54223e+02 -2.32647e+02        00000 
-1.60440e+02 -2.97304e+02        00000 
-1.76706e+02 -3.21853e+02        00000 
-1.54013e+02 -3.19700e+02        00000 
-1.17661e+02 -2.93413e+02        00000 
-1.32032e+02 -3.17843e+02        00000 
-1.10667e+02 -3.16261e+02        00000 
-7.71655e+01 -2.90615e+02        00000 
-8.98271e+01 -3.14948e+02        00000 
-6.94171e+01 -3.13901e+02        00000 
-3.81995e+01 -2.88937e+02        00000 
-4.93432e+01 -3.13118e+02        00000 
-2.95101e+01 -3.12596e+02        00000 
-1.54135e-03 -2.88378e+02        00000 
-9.82181e+00 -3.12336e+02        00000 
 9.81828e+00 -3.12335e+02        00000 
 3.81981e+01 -2.88936e+02        00000 
 2.95074e+01 -3.12596e+02        00000 
 4.93415e+01 -3.13116e+02        00000 
 7.71662e+01 -2.90613e+02        00000 
 6.94168e+01 -3.13899e+02        00000 
 8.98279e+01 -3.14946e+02        00000 
 1.17663e+02 -2.93411e+02        00000 
 1.10669e+02 -3.16259e+02        00000 
 1.32034e+02 -3.17840e+02        00000 
 1.60443e+02 -2.97302e+02        00000 
 1.54016e+02 -3.19698e+02        00000 
 1.76708e+02 -3.21850e+02        00000 
-1.77891e+02 -3.94043e+02        00000 
-1.93943e+02 -4.20367e+02        00000 
-1.69213e+02 -4.18782e+02        00000 
-1.30723e+02 -3.91131e+02        00000 
-1.45180e+02 -4.17425e+02        00000 
-1.21761e+02 -4.16281e+02        00000 
-8.58400e+01 -3.89068e+02        00000 
-9.88730e+01 -4.15344e+02        00000 
-7.64287e+01 -4.14607e+02        00000 
-4.25216e+01 -3.87852e+02        00000 
-5.43366e+01 -4.14062e+02        00000 
-3.25001e+01 -4.13703e+02        00000 
-2.92864e-03 -3.87451e+02        00000 
-1.08185e+01 -4.13524e+02        00000 
 1.08113e+01 -4.13523e+02        00000 
 4.25168e+01 -3.87850e+02        00000 
 3.24934e+01 -4.13701e+02        00000 
 5.43312e+01 -4.14060e+02        00000 
 8.58379e+01 -3.89065e+02        00000 
 7.64250e+01 -4.14604e+02        00000 
 9.88708e+01 -4.15341e+02        00000 
 1.30723e+02 -3.91128e+02        00000 
 1.21760e+02 -4.16278e+02        00000 
 1.45179e+02 -4.17421e+02        00000 
 1.77892e+02 -3.94039e+02        00000 
 1.69213e+02 -4.18779e+02        00000 
 1.93943e+02 -4.20363e+02        00000 
-1.90478e+02 -4.98214e+02        00000 
-2.06111e+02 -5.25734e+02        00000 
-1.79843e+02 -5.24693e+02        00000 
-1.39980e+02 -4.96298e+02        00000 
-1.54239e+02 -5.23845e+02        00000 
-1.29270e+02 -5.23173e+02        00000 
-9.18463e+01 -4.95043e+02        00000 
-1.04891e+02 -5.22652e+02        00000 
-8.10234e+01 -5.22258e+02        00000 
-4.54640e+01 -4.94349e+02        00000 
-5.75708e+01 -5.21976e+02        00000 
-3.44220e+01 -5.21793e+02        00000 
-5.85895e-03 -4.94127e+02        00000 
-1.14576e+01 -5.21703e+02        00000 
 1.14450e+01 -5.21703e+02        00000 
 4.54536e+01 -4.94348e+02        00000 
 3.44099e+01 -5.21793e+02        00000 
 5.75601e+01 -5.21976e+02        00000 
 9.18393e+01 -4.95041e+02        00000 
 8.10141e+01 -5.22258e+02        00000 
 1.04883e+02 -5.22651e+02        00000 
 1.39975e+02 -4.96295e+02        00000 
 1.29264e+02 -5.23171e+02        00000 
 1.54232e+02 -5.23843e+02        00000 
 1.90473e+02 -4.98210e+02        00000 
 1.79837e+02 -5.24690e+02        00000 
 2.06105e+02 -5.25730e+02        00000 
-1.98493e+02 -6.07766e+02        00000 
-2.13860e+02 -6.36404e+02        00000 
-1.85933e+02 -6.35885e+02        00000 
-1.45191e+02 -6.06863e+02        00000 
-1.58975e+02 -6.35486e+02        00000 
-1.32949e+02 -6.35115e+02        00000 
-9.49640e+01 -6.06251e+02        00000 
-1.07718e+02 -6.34757e+02        00000 
-8.31295e+01 -6.34431e+02        00000 
-4.69349e+01 -6.05843e+02        00000 
-5.90338e+01 -6.34161e+02        00000 
-3.52851e+01 -6.33967e+02        00000 
-6.65036e-03 -6.05697e+02        00000 
-1.17432e+01 -6.33867e+02        00000 
 1.17301e+01 -6.33867e+02        00000 
 4.69216e+01 -6.05844e+02        00000 
 3.52718e+01 -6.33968e+02        00000 
 5.90204e+01 -6.34162e+02        00000 
 9.49518e+01 -6.06252e+02        00000 
 8.31165e+01 -6.34433e+02        00000 
 1.07705e+02 -6.34759e+02        00000 
 1.45180e+02 -6.06863e+02        00000 
 1.32937e+02 -6.35116e+02        00000 
 1.58964e+02 -6.35487e+02        00000 
 1.98484e+02 -6.07765e+02        00000 
 1.85922e+02 -6.35886e+02        00000 
 2.13850e+02 -6.36405e+02        00000 
-1.59853e+01 -1.24168e+01        00000 
-2.78424e+01 -2.24763e+01        00000 
-1.03146e+01 -8.06906e+00        00000 
-1.80858e+01 -1.59755e+01        00000 
-5.89673e+00 -5.92743e+00        00000 
-1.08222e+01 -1.24357e+01        00000 
-1.92544e+00 -5.02034e+00        00000 
-4.50516e+00 -1.07529e+01        00000 
 1.92475e+00 -5.02050e+00        00000 
 1.49291e+00 -1.04379e+01        00000 
 5.89627e+00 -5.92831e+00        00000 
 7.59313e+00 -1.14049e+01        00000 
 1.03133e+01 -8.07060e+00        00000 
 1.42754e+01 -1.39242e+01        00000 
 1.59839e+01 -1.24181e+01        00000 
 2.24665e+01 -1.87591e+01        00000 
 2.78565e+01 -2.17413e+01        00000 
 3.50472e+01 -2.72953e+01        00000 
-5.10339e+01 -4.91517e+01        00000 
-6.43031e+01 -6.24962e+01        00000 
-3.41527e+01 -4.28659e+01        00000 
-4.44989e+01 -5.58035e+01        00000 
-1.96379e+01 -3.88296e+01        00000 
-2.71511e+01 -5.12209e+01        00000 
-6.41283e+00 -3.68928e+01        00000 
-1.13681e+01 -4.87338e+01        00000 
 6.41280e+00 -3.68937e+01        00000 
 3.77235e+00 -4.82441e+01        00000 
 1.96380e+01 -3.88316e+01        00000 
 1.91245e+01 -4.97240e+01        00000 
 3.41515e+01 -4.28687e+01        00000 
 3.55682e+01 -5.32474e+01        00000 
 5.10313e+01 -4.91553e+01        00000 
 5.40526e+01 -5.88967e+01        00000 
 7.09234e+01 -5.73098e+01        00000 
 7.52660e+01 -6.66199e+01        00000 
-8.15537e+01 -1.01057e+02        00000 
-9.57022e+01 -1.18225e+02        00000 
-5.62040e+01 -9.55570e+01        00000 
-6.78125e+01 -1.12464e+02        00000 
-3.28771e+01 -9.18379e+01        00000 
-4.20768e+01 -1.08451e+02        00000 
-1.08153e+01 -8.99694e+01        00000 
-1.77709e+01 -1.06206e+02        00000 
 1.08184e+01 -8.99695e+01        00000 
 5.90852e+00 -1.05755e+02        00000 
 3.28792e+01 -9.18383e+01        00000 
 2.97972e+01 -1.07104e+02        00000 
 5.62046e+01 -9.55571e+01        00000 
 5.47200e+01 -1.10237e+02        00000 
 8.15529e+01 -1.01057e+02        00000 
 8.14471e+01 -1.15122e+02        00000 
 1.09556e+02 -1.08147e+02        00000 
 1.10654e+02 -1.21799e+02        00000 
-1.07679e+02 -1.68769e+02        00000 
-1.22507e+02 -1.89321e+02        00000 
-7.49785e+01 -1.64141e+02        00000 
-8.75513e+01 -1.84495e+02        00000 
-4.42029e+01 -1.61027e+02        00000 
-5.46971e+01 -1.81157e+02        00000 
-1.46016e+01 -1.59461e+02        00000 
-2.31974e+01 -1.79296e+02        00000 
 1.46048e+01 -1.59459e+02        00000 
 7.71749e+00 -1.78922e+02        00000 
 4.42063e+01 -1.61024e+02        00000 
 3.88287e+01 -1.80038e+02        00000 
 7.49810e+01 -1.64137e+02        00000 
 7.09105e+01 -1.82638e+02        00000 
 1.07680e+02 -1.68765e+02        00000 
 1.04722e+02 -1.86713e+02        00000 
 1.43043e+02 -1.74779e+02        00000 
 1.41004e+02 -1.92326e+02        00000 
-1.29458e+02 -2.50169e+02        00000 