<?xml version="1.0" encoding="utf-8"?>
<VTKFile byte_order="LittleEndian" type="UnstructuredGrid" version="0.1">
   <UnstructuredGrid>
      <Piece NumberOfCells="1296" NumberOfPoints="685">
         <Points>
            <DataArray Name="Points" NumberOfComponents="3" format="ascii" type="Float32">
0.0000 0.0000 0.0000
0.0000 0.1111 0.0000
0.0000 0.2222 0.0000
0.0000 0.3333 0.0000
0.0000 0.4444 0.0000
0.0000 0.5556 0.0000
0.0000 0.6667 0.0000
0.0000 0.7778 0.0000
0.0000 0.8889 0.0000
0.0000 1.0000 0.0000
0.2222 0.0000 0.0000
0.2222 0.1111 0.0000
0.2222 0.2222 0.0000
0.2222 0.3333 0.0000
0.2222 0.4444 0.0000
0.2222 0.5556 0.0000
0.2222 0.6667 0.0000
0.2222 0.7778 0.0000
0.2222 0.8889 0.0000
0.2222 1.0000 0.0000
0.4444 0.0000 0.0000
0.4444 0.1111 0.0000
0.4444 0.2222 0.0000
0.4444 0.3333 0.0000
0.4444 0.4444 0.0000
0.4444 0.5556 0.0000
0.4444 0.6667 0.0000
0.4444 0.7778 0.0000
0.4444 0.8889 0.0000
0.4444 1.0000 0.0000
0.6667 0.0000 0.0000
0.6667 0.1111 0.0000
0.6667 0.2222 0.0000
0.6667 0.3333 0.0000
0.6667 0.4444 0.0000
0.6667 0.5556 0.0000
0.6667 0.6667 0.0000
0.6667 0.7778 0.0000
0.6667 0.8889 0.0000
0.6667 1.0000 0.0000
0.8889 0.0000 0.0000
0.8889 0.1111 0.0000
0.8889 0.2222 0.0000
0.8889 0.3333 0.0000
0.8889 0.4444 0.0000
0.8889 0.5556 0.0000
0.8889 0.6667 0.0000
0.8889 0.7778 0.0000
0.8889 0.8889 0.0000
0.8889 1.0000 0.0000
1.1111 0.0000 0.0000
1.1111 0.1111 0.0000
1.1111 0.2222 0.0000
1.1111 0.3333 0.0000
1.1111 0.4444 0.0000
1.1111 0.5556 0.0000
1.1111 0.6667 0.0000
1.1111 0.7778 0.0000
1.1111 0.8889 0.0000
1.1111 1.0000 0.0000
1.3333 0.0000 0.0000
1.3333 0.1111 0.0000
1.3333 0.2222 0.0000
1.3333 0.3333 0.0000
1.3333 0.4444 0.0000
1.3333 0.5556 0.0000
1.3333 0.6667 0.0000
1.3333 0.7778 0.0000
1.3333 0.8889 0.0000
1.3333 1.0000 0.0000
1.5556 0.0000 0.0000
1.5556 0.1111 0.0000
1.5556 0.2222 0.0000
1.5556 0.3333 0.0000
1.5556 0.4444 0.0000
1.5556 0.5556 0.0000
1.5556 0.6667 0.0000
1.5556 0.7778 0.0000
1.5556 0.8889 0.0000
1.5556 1.0000 0.0000
1.7778 0.0000 0.0000
1.7778 0.1111 0.0000
1.7778 0.2222 0.0000
1.7778 0.3333 0.0000
1.7778 0.4444 0.0000
1.7778 0.5556 0.0000
1.7778 0.6667 0.0000
1.7778 0.7778 0.0000
1.7778 0.8889 0.0000
1.7778 1.0000 0.0000
2.0000 0.0000 0.0000
2.0000 0.1111 0.0000
2.0000 0.2222 0.0000
2.0000 0.3333 0.0000
2.0000 0.4444 0.0000
2.0000 0.5556 0.0000
2.0000 0.6667 0.0000
2.0000 0.7778 0.0000
2.0000 0.8889 0.0000
2.0000 1.0000 0.0000
0.1111 0.0556 0.0000
0.1111 0.1667 0.0000
0.1111 0.2778 0.0000
0.1111 0.3889 0.0000
0.1111 0.5000 0.0000
0.1111 0.6111 0.0000
0.1111 0.7222 0.0000
0.1111 0.8333 0.0000
0.1111 0.9444 0.0000
0.3333 0.0556 0.0000
0.3333 0.1667 0.0000
0.3333 0.2778 0.0000
0.3333 0.3889 0.0000
0.3333 0.5000 0.0000
0.3333 0.6111 0.0000
0.3333 0.7222 0.0000
0.3333 0.8333 0.0000
0.3333 0.9444 0.0000
0.5556 0.0556 0.0000
0.5556 0.1667 0.0000
0.5556 0.2778 0.0000
0.5556 0.3889 0.0000
0.5556 0.5000 0.0000
0.5556 0.6111 0.0000
0.5556 0.7222 0.0000
0.5556 0.8333 0.0000
0.5556 0.9444 0.0000
0.7778 0.0556 0.0000
0.7778 0.1667 0.0000
0.7778 0.2778 0.0000
0.7778 0.3889 0.0000
0.7778 0.5000 0.0000
0.7778 0.6111 0.0000
0.7778 0.7222 0.0000
0.7778 0.8333 0.0000
0.7778 0.9444 0.0000
1.0000 0.0556 0.0000
1.0000 0.1667 0.0000
1.0000 0.2778 0.0000
1.0000 0.3889 0.0000
1.0000 0.5000 0.0000
1.0000 0.6111 0.0000
1.0000 0.7222 0.0000
1.0000 0.8333 0.0000
1.0000 0.9444 0.0000
1.2222 0.0556 0.0000
1.2222 0.1667 0.0000
1.2222 0.2778 0.0000
1.2222 0.3889 0.0000
1.2222 0.5000 0.0000
1.2222 0.6111 0.0000
1.2222 0.7222 0.0000
1.2222 0.8333 0.0000
1.2222 0.9444 0.0000
1.4444 0.0556 0.0000
1.4444 0.1667 0.0000
1.4444 0.2778 0.0000
1.4444 0.3889 0.0000
1.4444 0.5000 0.0000
1.4444 0.6111 0.0000
1.4444 0.7222 0.0000
1.4444 0.8333 0.0000
1.4444 0.9444 0.0000
1.6667 0.0556 0.0000
1.6667 0.1667 0.0000
1.6667 0.2778 0.0000
1.6667 0.3889 0.0000
1.6667 0.5000 0.0000
1.6667 0.6111 0.0000
1.6667 0.7222 0.0000
1.6667 0.8333 0.0000
1.6667 0.9444 0.0000
1.8889 0.0556 0.0000
1.8889 0.1667 0.0000
1.8889 0.2778 0.0000
1.8889 0.3889 0.0000
1.8889 0.5000 0.0000
1.8889 0.6111 0.0000
1.8889 0.7222 0.0000
1.8889 0.8333 0.0000
1.8889 0.9444 0.0000
0.0000 0.0556 0.0000
0.0556 0.0278 0.0000
0.0556 0.0833 0.0000
0.0000 0.1667 0.0000
0.0556 0.1389 0.0000
0.0556 0.1944 0.0000
0.0000 0.2778 0.0000
0.0556 0.2500 0.0000
0.0556 0.3056 0.0000
0.0000 0.3889 0.0000
0.0556 0.3611 0.0000
0.0556 0.4167 0.0000
0.0000 0.5000 0.0000
0.0556 0.4722 0.0000
0.0556 0.5278 0.0000
0.0000 0.6111 0.0000
0.0556 0.5833 0.0000
0.0556 0.6389 0.0000
0.0000 0.7222 0.0000
0.0556 0.6944 0.0000
0.0556 0.7500 0.0000
0.0000 0.8333 0.0000
0.0556 0.8056 0.0000
0.0556 0.8611 0.0000
0.0000 0.9444 0.0000
0.0556 0.9167 0.0000
0.0556 0.9722 0.0000
0.2222 0.0556 0.0000
0.2778 0.0278 0.0000
0.2778 0.0833 0.0000
0.2222 0.1667 0.0000
0.2778 0.1389 0.0000
0.2778 0.1944 0.0000
0.2222 0.2778 0.0000
0.2778 0.2500 0.0000
0.2778 0.3056 0.0000
0.2222 0.3889 0.0000
0.2778 0.3611 0.0000
0.2778 0.4167 0.0000
0.2222 0.5000 0.0000
0.2778 0.4722 0.0000
0.2778 0.5278 0.0000
0.2222 0.6111 0.0000
0.2778 0.5833 0.0000
0.2778 0.6389 0.0000
0.2222 0.7222 0.0000
0.2778 0.6944 0.0000
0.2778 0.7500 0.0000
0.2222 0.8333 0.0000
0.2778 0.8056 0.0000
0.2778 0.8611 0.0000
0.2222 0.9444 0.0000
0.2778 0.9167 0.0000
0.2778 0.9722 0.0000
0.4444 0.0556 0.0000
0.5000 0.0278 0.0000
0.5000 0.0833 0.0000
0.4444 0.1667 0.0000
0.5000 0.1389 0.0000
0.5000 0.1944 0.0000
0.4444 0.2778 0.0000
0.5000 0.2500 0.0000
0.5000 0.3056 0.0000
0.4444 0.3889 0.0000
0.5000 0.3611 0.0000
0.5000 0.4167 0.0000
0.4444 0.5000 0.0000
0.5000 0.4722 0.0000
0.5000 0.5278 0.0000
0.4444 0.6111 0.0000
0.5000 0.5833 0.0000
0.5000 0.6389 0.0000
0.4444 0.7222 0.0000
0.5000 0.6944 0.0000
0.5000 0.7500 0.0000
0.4444 0.8333 0.0000
0.5000 0.8056 0.0000
0.5000 0.8611 0.0000
0.4444 0.9444 0.0000
0.5000 0.9167 0.0000
0.5000 0.9722 0.0000
0.6667 0.0556 0.0000
0.7222 0.0278 0.0000
0.7222 0.0833 0.0000
0.6667 0.1667 0.0000
0.7222 0.1389 0.0000
0.7222 0.1944 0.0000
0.6667 0.2778 0.0000
0.7222 0.2500 0.0000
0.7222 0.3056 0.0000
0.6667 0.3889 0.0000
0.7222 0.3611 0.0000
0.7222 0.4167 0.0000
0.6667 0.5000 0.0000
0.7222 0.4722 0.0000
0.7222 0.5278 0.0000
0.6667 0.6111 0.0000
0.7222 0.5833 0.0000
0.7222 0.6389 0.0000
0.6667 0.7222 0.0000
0.7222 0.6944 0.0000
0.7222 0.7500 0.0000
0.6667 0.8333 0.0000
0.7222 0.8056 0.0000
0.7222 0.8611 0.0000
0.6667 0.9444 0.0000
0.7222 0.9167 0.0000
0.7222 0.9722 0.0000
0.8889 0.0556 0.0000
0.9444 0.0278 0.0000
0.9444 0.0833 0.0000
0.8889 0.1667 0.0000
0.9444 0.1389 0.0000
0.9444 0.1944 0.0000
0.8889 0.2778 0.0000
0.9444 0.2500 0.0000
0.9444 0.3056 0.0000
0.8889 0.3889 0.0000
0.9444 0.3611 0.0000
0.9444 0.4167 0.0000
0.8889 0.5000 0.0000
0.9444 0.4722 0.0000
0.9444 0.5278 0.0000
0.8889 0.6111 0.0000
0.9444 0.5833 0.0000
0.9444 0.6389 0.0000
0.8889 0.7222 0.0000
0.9444 0.6944 0.0000
0.9444 0.7500 0.0000
0.8889 0.8333 0.0000
0.9444 0.8056 0.0000
0.9444 0.8611 0.0000
0.8889 0.9444 0.0000
0.9444 0.9167 0.0000
0.9444 0.9722 0.0000
1.1111 0.0556 0.0000
1.1667 0.0278 0.0000
1.1667 0.0833 0.0000
1.1111 0.1667 0.0000
1.1667 0.1389 0.0000
1.1667 0.1944 0.0000
1.1111 0.2778 0.0000
1.1667 0.2500 0.0000
1.1667 0.3056 0.0000
1.1111 0.3889 0.0000
1.1667 0.3611 0.0000
1.1667 0.4167 0.0000
1.1111 0.5000 0.0000
1.1667 0.4722 0.0000
1.1667 0.5278 0.0000
1.1111 0.6111 0.0000
1.1667 0.5833 0.0000
1.1667 0.6389 0.0000
1.1111 0.7222 0.0000
1.1667 0.6944 0.0000
1.1667 0.7500 0.0000
1.1111 0.8333 0.0000
1.1667 0.8056 0.0000
1.1667 0.8611 0.0000
1.1111 0.9444 0.0000
1.1667 0.9167 0.0000
1.1667 0.9722 0.0000
1.3333 0.0556 0.0000
1.3889 0.0278 0.0000
1.3889 0.0833 0.0000
1.3333 0.1667 0.0000
1.3889 0.1389 0.0000
1.3889 0.1944 0.0000
1.3333 0.2778 0.0000
1.3889 0.2500 0.0000
1.3889 0.3056 0.0000
1.3333 0.3889 0.0000
1.3889 0.3611 0.0000
1.3889 0.4167 0.0000
1.3333 0.5000 0.0000
1.3889 0.4722 0.0000
1.3889 0.5278 0.0000
1.3333 0.6111 0.0000
1.3889 0.5833 0.0000
1.3889 0.6389 0.0000
1.3333 0.7222 0.0000
1.3889 0.6944 0.0000
1.3889 0.7500 0.0000
1.3333 0.8333 0.0000
1.3889 0.8056 0.0000
1.3889 0.8611 0.0000
1.3333 0.9444 0.0000
1.3889 0.9167 0.0000
1.3889 0.9722 0.0000
1.5556 0.0556 0.0000
1.6111 0.0278 0.0000
1.6111 0.0833 0.0000
1.5556 0.1667 0.0000
1.6111 0.1389 0.0000
1.6111 0.1944 0.0000
1.5556 0.2778 0.0000
1.6111 0.2500 0.0000
1.6111 0.3056 0.0000
1.5556 0.3889 0.0000
1.6111 0.3611 0.0000
1.6111 0.4167 0.0000
1.5556 0.5000 0.0000
1.6111 0.4722 0.0000
1.6111 0.5278 0.0000
1.5556 0.6111 0.0000
1.6111 0.5833 0.0000
1.6111 0.6389 0.0000
1.5556 0.7222 0.0000
1.6111 0.6944 0.0000
1.6111 0.7500 0.0000
1.5556 0.8333 0.0000
1.6111 0.8056 0.0000
1.6111 0.8611 0.0000
1.5556 0.9444 0.0000
1.6111 0.9167 0.0000
1.6111 0.9722 0.0000
1.7778 0.0556 0.0000
1.8333 0.0278 0.0000
1.8333 0.0833 0.0000
1.7778 0.1667 0.0000
1.8333 0.1389 0.0000
1.8333 0.1944 0.0000
1.7778 0.2778 0.0000
1.8333 0.2500 0.0000
1.8333 0.3056 0.0000
1.7778 0.3889 0.0000
1.8333 0.3611 0.0000
1.8333 0.4167 0.0000
1.7778 0.5000 0.0000
1.8333 0.4722 0.0000
1.8333 0.5278 0.0000
1.7778 0.6111 0.0000
1.8333 0.5833 0.0000
1.8333 0.6389 0.0000
1.7778 0.7222 0.0000
1.8333 0.6944 0.0000
1.8333 0.7500 0.0000
1.7778 0.8333 0.0000
1.8333 0.8056 0.0000
1.8333 0.8611 0.0000
1.7778 0.9444 0.0000
1.8333 0.9167 0.0000
1.8333 0.9722 0.0000
0.1111 0.1111 0.0000
0.1667 0.0833 0.0000
0.1111 0.2222 0.0000
0.1667 0.1944 0.0000
0.1111 0.3333 0.0000
0.1667 0.3056 0.0000
0.1111 0.4444 0.0000
0.1667 0.4167 0.0000
0.1111 0.5556 0.0000
0.1667 0.5278 0.0000
0.1111 0.6667 0.0000
0.1667 0.6389 0.0000
0.1111 0.7778 0.0000
0.1667 0.7500 0.0000
0.1111 0.8889 0.0000
0.1667 0.8611 0.0000
0.1111 1.0000 0.0000
0.1667 0.9722 0.0000
0.3333 0.1111 0.0000
0.3889 0.0833 0.0000
0.3333 0.2222 0.0000
0.3889 0.1944 0.0000
0.3333 0.3333 0.0000
0.3889 0.3056 0.0000
0.3333 0.4444 0.0000
0.3889 0.4167 0.0000
0.3333 0.5556 0.0000
0.3889 0.5278 0.0000
0.3333 0.6667 0.0000
0.3889 0.6389 0.0000
0.3333 0.7778 0.0000
0.3889 0.7500 0.0000
0.3333 0.8889 0.0000
0.3889 0.8611 0.0000
0.3333 1.0000 0.0000
0.3889 0.9722 0.0000
0.5556 0.1111 0.0000
[...]
         <PointData>
            <DataArray Name="fValues" NumberOfComponents="3" format="ascii" type="Float64">
-4.89506e-15        00000        00000 
-4.95205e-16  1.45260e-15        00000 
 7.55544e-17 -4.41465e-16        00000 
-2.63026e-16 -1.97270e-16        00000 
 2.03714e-17 -9.79891e-17        00000 
 6.57565e-17  1.97270e-16        00000 
 1.67301e-15 -1.48528e-16        00000 
 1.05115e-15  3.61334e-16        00000 
 7.92517e-16  3.96259e-16        00000 
-1.22377e-15 -2.44753e-15        00000 
-4.98799e+01 -3.79353e+01        00000 
-3.39380e+01 -2.91719e+01        00000 
-2.21251e+01 -2.30047e+01        00000 
-1.26151e+01 -1.94337e+01        00000 
-4.11074e+00 -1.78134e+01        00000 
 4.10537e+00 -1.78125e+01        00000 
 1.26103e+01 -1.94315e+01        00000 
 2.21215e+01 -2.30011e+01        00000 
 3.39341e+01 -2.91674e+01        00000 
 4.98743e+01 -3.79298e+01        00000 
-9.07820e+01 -8.06092e+01        00000 
-6.68105e+01 -7.29954e+01        00000 
-4.55526e+01 -6.70656e+01        00000 
-2.64547e+01 -6.30932e+01        00000 
-8.67672e+00 -6.11224e+01        00000 
 8.66695e+00 -6.11213e+01        00000 
 2.64452e+01 -6.30905e+01        00000 
 4.55444e+01 -6.70617e+01        00000 
 6.68037e+01 -7.29899e+01        00000 
 9.07758e+01 -8.06029e+01        00000 
-1.26888e+02 -1.39506e+02        00000 
-9.50976e+01 -1.32955e+02        00000 
-6.59577e+01 -1.27897e+02        00000 
-3.87710e+01 -1.24482e+02        00000 
-1.27920e+01 -1.22763e+02        00000 
 1.27782e+01 -1.22762e+02        00000 
 3.87569e+01 -1.24481e+02        00000 
 6.59443e+01 -1.27896e+02        00000 
 9.50858e+01 -1.32953e+02        00000 
 1.26878e+02 -1.39502e+02        00000 
-1.57634e+02 -2.13225e+02        00000 
-1.19039e+02 -2.07757e+02        00000 
-8.31151e+01 -2.03560e+02        00000 
-4.91013e+01 -2.00744e+02        00000 
-1.62433e+01 -1.99331e+02        00000 
 1.62271e+01 -1.99332e+02        00000 
 4.90849e+01 -2.00745e+02        00000 
 8.30986e+01 -2.03561e+02        00000 
 1.19022e+02 -2.07759e+02        00000 
 1.57617e+02 -2.13226e+02        00000 
-1.82827e+02 -2.99394e+02        00000 
-1.38637e+02 -2.95017e+02        00000 
-9.71194e+01 -2.91666e+02        00000 
-5.75078e+01 -2.89429e+02        00000 
-1.90465e+01 -2.88312e+02        00000 
 1.90301e+01 -2.88313e+02        00000 
 5.74911e+01 -2.89430e+02        00000 
 9.71015e+01 -2.91667e+02        00000 
 1.38618e+02 -2.95019e+02        00000 
 1.82807e+02 -2.99395e+02        00000 
-2.02448e+02 -3.95503e+02        00000 
-1.53889e+02 -3.92214e+02        00000 
-1.07979e+02 -3.89723e+02        00000 
-6.39968e+01 -3.88088e+02        00000 
-2.12036e+01 -3.87285e+02        00000 
 2.11869e+01 -3.87285e+02        00000 
 6.39801e+01 -3.88089e+02        00000 
 1.07961e+02 -3.89724e+02        00000 
 1.53871e+02 -3.92215e+02        00000 
 2.02429e+02 -3.95505e+02        00000 
-2.16634e+02 -4.99067e+02        00000 
-1.64809e+02 -4.96839e+02        00000 
-1.15582e+02 -4.95262e+02        00000 
-6.84431e+01 -4.94304e+02        00000 
-2.26634e+01 -4.93855e+02        00000 
 2.26485e+01 -4.93856e+02        00000 
 6.84293e+01 -4.94306e+02        00000 
 1.15567e+02 -4.95265e+02        00000 
 1.64793e+02 -4.96843e+02        00000 
 2.16617e+02 -4.99072e+02        00000 
-2.26061e+02 -6.08077e+02        00000 
-1.71332e+02 -6.06871e+02        00000 
-1.19663e+02 -6.06146e+02        00000 
-7.06970e+01 -6.05631e+02        00000 
-2.33856e+01 -6.05347e+02        00000 
 2.33752e+01 -6.05347e+02        00000 
 7.06860e+01 -6.05632e+02        00000 
 1.19651e+02 -6.06146e+02        00000 
 1.71318e+02 -6.06870e+02        00000 
 2.26046e+02 -6.08076e+02        00000 
-2.31869e+02 -7.26581e+02        00000 
-1.74049e+02 -7.23760e+02        00000 
-1.21551e+02 -7.20401e+02        00000 
-7.18962e+01 -7.17821e+02        00000 
-2.37992e+01 -7.16446e+02        00000 
 2.37909e+01 -7.16444e+02        00000 
 7.18851e+01 -7.17818e+02        00000 
 1.21539e+02 -7.20398e+02        00000 
 1.74037e+02 -7.23759e+02        00000 
 2.31859e+02 -7.26581e+02        00000 
-2.01852e+01 -1.61478e+01        00000 
-1.28830e+01 -9.85390e+00        00000 
-8.01474e+00 -6.80193e+00        00000 
-3.87786e+00 -5.34575e+00        00000 
-1.36642e-03 -4.90946e+00        00000 
 3.87534e+00 -5.34460e+00        00000 
 8.01290e+00 -6.79980e+00        00000 
 1.28815e+01 -9.85143e+00        00000 
 2.01825e+01 -1.61447e+01        00000 
-6.05650e+01 -5.30138e+01        00000 
-4.21999e+01 -4.57025e+01        00000 
-2.66540e+01 -4.05458e+01        00000 
-1.29182e+01 -3.75868e+01        00000 
-3.97110e-03 -3.66292e+01        00000 
 1.29108e+01 -3.75849e+01        00000 
 2.66476e+01 -4.05423e+01        00000 
 4.21946e+01 -4.56979e+01        00000 
 6.05594e+01 -5.30082e+01        00000 
-9.51205e+01 -1.04356e+02        00000 
-6.85399e+01 -9.80231e+01        00000 
-4.43064e+01 -9.34027e+01        00000 
-2.17313e+01 -9.06057e+01        00000 
-6.20494e-03 -8.96710e+01        00000 
 2.17193e+01 -9.06044e+01        00000 
 4.42949e+01 -9.34003e+01        00000 
 6.85300e+01 -9.80194e+01        00000 
 9.51123e+01 -1.04351e+02        00000 
-1.24897e+02 -1.71496e+02        00000 
-9.09866e+01 -1.66145e+02        00000 
-5.93635e+01 -1.62271e+02        00000 
-2.92917e+01 -1.59930e+02        00000 
-7.57383e-03 -1.59148e+02        00000 
 2.92765e+01 -1.59931e+02        00000 
 5.93479e+01 -1.62272e+02        00000 
 9.09716e+01 -1.66146e+02        00000 
 1.24883e+02 -1.71496e+02        00000 
-1.49768e+02 -2.52322e+02        00000 
-1.09659e+02 -2.47946e+02        00000 
-7.18343e+01 -2.44792e+02        00000 
-3.55373e+01 -2.42897e+02        00000 
-8.16678e-03 -2.42265e+02        00000 
 3.55209e+01 -2.42898e+02        00000 
 7.18171e+01 -2.44794e+02        00000 
 1.09642e+02 -2.47948e+02        00000 
 1.49750e+02 -2.52324e+02        00000 
-1.69684e+02 -3.44348e+02        00000 
-1.24590e+02 -3.40947e+02        00000 
-8.17784e+01 -3.38513e+02        00000 
-4.05044e+01 -3.37061e+02        00000 
-8.30631e-03 -3.36579e+02        00000 
 4.04878e+01 -3.37061e+02        00000 
 8.17610e+01 -3.38513e+02        00000 
 1.24572e+02 -3.40949e+02        00000 
 1.69664e+02 -3.44350e+02        00000 
-1.84674e+02 -4.45049e+02        00000 
-1.35757e+02 -4.42633e+02        00000 
-8.91414e+01 -4.40964e+02        00000 
-4.41511e+01 -4.40005e+02        00000 
-8.43509e-03 -4.39694e+02        00000 
 4.41348e+01 -4.40006e+02        00000 
 8.91251e+01 -4.40966e+02        00000 
 1.35741e+02 -4.42636e+02        00000 
 1.84656e+02 -4.45053e+02        00000 
-1.94917e+02 -5.52018e+02        00000 
-1.43030e+02 -5.50616e+02        00000 
-9.37060e+01 -5.49772e+02        00000 
-4.63436e+01 -5.49312e+02        00000 
-6.40336e-03 -5.49164e+02        00000 
 4.63313e+01 -5.49312e+02        00000 
 9.36941e+01 -5.49773e+02        00000 
 1.43016e+02 -5.50618e+02        00000 
 1.94902e+02 -5.52020e+02        00000 
-2.00594e+02 -6.64543e+02        00000 
-1.46250e+02 -6.63660e+02        00000 
-9.56166e+01 -6.62590e+02        00000 
-4.72633e+01 -6.61765e+02        00000 
-4.18436e-03 -6.61460e+02        00000 
 4.72534e+01 -6.61764e+02        00000 
 9.56049e+01 -6.62588e+02        00000 
 1.46238e+02 -6.63658e+02        00000 
 2.00581e+02 -6.64541e+02        00000 
-4.31778e-16  1.04043e-15        00000 
-1.10322e+01 -8.43206e+00        00000 
-8.37448e+00 -5.93862e+00        00000 
 1.48621e-15  1.82218e-15        00000 
-6.75500e+00 -4.37716e+00        00000 
-5.47496e+00 -3.31884e+00        00000 
-4.99600e-16 -1.12410e-15        00000 
-4.35264e+00 -2.57934e+00        00000 
-3.31843e+00 -2.06217e+00        00000 
-1.28295e-16 -1.08569e-16        00000 
-2.33842e+00 -1.71119e+00        00000 
-1.39112e+00 -1.49289e+00        00000 
 3.12250e-17 -4.99600e-16        00000 
-4.62155e-01 -1.38809e+00        00000 
 4.61061e-01 -1.38793e+00        00000 
 2.20766e-16 -2.25045e-16        00000 
 1.39006e+00 -1.49243e+00        00000 
 2.33720e+00 -1.71031e+00        00000 
-8.74301e-16  8.74301e-16        00000 
 3.31746e+00 -2.06087e+00        00000 
 4.35178e+00 -2.57802e+00        00000 
 1.49880e-15 -7.49401e-16        00000 
 5.47420e+00 -3.31747e+00        00000 
 6.75406e+00 -4.37580e+00        00000 
 8.99537e-16  1.23249e-15        00000 
 8.37338e+00 -5.93709e+00        00000 
 1.10306e+01 -8.43039e+00        00000 
-4.14387e+01 -3.33696e+01        00000 
-5.57503e+01 -4.51244e+01        00000 
-4.68009e+01 -4.07359e+01        00000 
-2.76193e+01 -2.57182e+01        00000 
-3.87060e+01 -3.68967e+01        00000 
-3.15000e+01 -3.37102e+01        00000 
-1.71848e+01 -2.09410e+01        00000 
-2.49881e+01 -3.11696e+01        00000 
-1.89822e+01 -2.92259e+01        00000 
-8.28884e+00 -1.84085e+01        00000 
-1.33302e+01 -2.78231e+01        00000 
-7.91160e+00 -2.69148e+01        00000 
-2.84483e-03 -1.76180e+01        00000 
-2.62519e+00 -2.64685e+01        00000 
 2.61836e+00 -2.64680e+01        00000 
 8.28372e+00 -1.84070e+01        00000 
 7.90512e+00 -2.69133e+01        00000 
 1.33241e+01 -2.78208e+01        00000 
 1.71805e+01 -2.09382e+01        00000 
 1.89765e+01 -2.92228e+01        00000 
 2.49829e+01 -3.11661e+01        00000 
 2.76156e+01 -2.57141e+01        00000 
 3.14953e+01 -3.37060e+01        00000 
 3.87014e+01 -3.68923e+01        00000 
 4.14338e+01 -3.33644e+01        00000 
 4.67959e+01 -4.07309e+01        00000 
 5.57446e+01 -4.51189e+01        00000 
-7.84334e+01 -7.66228e+01        00000 
-9.35064e+01 -9.21136e+01        00000 
-8.05214e+01 -8.82653e+01        00000 
-5.58685e+01 -6.97964e+01        00000 
-6.82301e+01 -8.49150e+01        00000 
-5.65753e+01 -8.20348e+01        00000 
-3.57827e+01 -6.48282e+01        00000 
-4.54858e+01 -7.96252e+01        00000 
-3.48746e+01 -7.76940e+01        00000 
-1.74566e+01 -6.18596e+01        00000 
-2.46412e+01 -7.62456e+01        00000 
-1.46786e+01 -7.52809e+01        00000 
-4.84898e-03 -6.08768e+01        00000 
-4.87878e+00 -7.47988e+01        00000 
 4.86745e+00 -7.47983e+01        00000 
 1.74468e+01 -6.18577e+01        00000 
 1.46675e+01 -7.52795e+01        00000 
 2.46301e+01 -7.62437e+01        00000 
 3.57736e+01 -6.48249e+01        00000 
 3.48641e+01 -7.76915e+01        00000 
 4.54758e+01 -7.96219e+01        00000 
 5.58610e+01 -6.97917e+01        00000 
 5.65660e+01 -8.20307e+01        00000 
 6.82217e+01 -8.49103e+01        00000 
 7.84270e+01 -7.66166e+01        00000 
 8.05139e+01 -8.82601e+01        00000 
 9.34996e+01 -9.21080e+01        00000 
-1.10615e+02 -1.36066e+02        00000 
-1.26392e+02 -1.55165e+02        00000 
-1.09611e+02 -1.51873e+02        00000 
-8.02397e+01 -1.30225e+02        00000 
-9.35333e+01 -1.49023e+02        00000 
-7.80728e+01 -1.46585e+02        00000 
-5.21652e+01 -1.25980e+02        00000 
-6.31413e+01 -1.44549e+02        00000 
-4.86486e+01 -1.42915e+02        00000 
-2.56796e+01 -1.23408e+02        00000 
-3.45014e+01 -1.41686e+02        00000 
-2.06033e+01 -1.40865e+02        00000 
-7.16164e-03 -1.22547e+02        00000 
-6.85596e+00 -1.40454e+02        00000 
 6.84128e+00 -1.40454e+02        00000 
 2.56654e+01 -1.23408e+02        00000 
 2.05887e+01 -1.40865e+02        00000 
 3.44866e+01 -1.41686e+02        00000 
 5.21511e+01 -1.25979e+02        00000 
 4.86337e+01 -1.42915e+02        00000 
 6.31263e+01 -1.44549e+02        00000 
 8.02270e+01 -1.30224e+02        00000 
 7.80584e+01 -1.46584e+02        00000 
 9.35197e+01 -1.49022e+02        00000 
 1.10604e+02 -1.36063e+02        00000 
 1.09598e+02 -1.51871e+02        00000 
 1.26380e+02 -1.55163e+02        00000 
-1.37951e+02 -2.10351e+02        00000 
-1.54126e+02 -2.32482e+02        00000 
-1.34091e+02 -2.29759e+02        00000 
-1.00791e+02 -2.05489e+02        00000 
-1.14767e+02 -2.27406e+02        00000 
-9.60606e+01 -2.25398e+02        00000 
-6.59163e+01 -2.01977e+02        00000 
-7.78783e+01 -2.23727e+02        00000 
-6.01258e+01 -2.22390e+02        00000 
-3.25754e+01 -1.99861e+02        00000 
-4.27087e+01 -2.21387e+02        00000 
-2.55322e+01 -2.20718e+02        00000 
-8.15689e-03 -1.99155e+02        00000 
-8.50016e+00 -2.20383e+02        00000 
 8.48374e+00 -2.20383e+02        00000 
 3.25591e+01 -1.99862e+02        00000 
 2.55157e+01 -2.20718e+02        00000 
 4.26922e+01 -2.21388e+02        00000 
 6.58998e+01 -2.01978e+02        00000 
 6.01090e+01 -2.22392e+02        00000 
 7.78614e+01 -2.23729e+02        00000 
 1.00775e+02 -2.05490e+02        00000 
 9.60436e+01 -2.25400e+02        00000 
 1.14749e+02 -2.27408e+02        00000 
 1.37935e+02 -2.10353e+02        00000 
 1.34073e+02 -2.29761e+02        00000 
 1.54108e+02 -2.32484e+02        00000 
-1.60346e+02 -2.97093e+02        00000 
-1.76602e+02 -3.21626e+02        00000 
-1.53924e+02 -3.19475e+02        00000 
-1.17593e+02 -2.93204e+02        00000 
-1.31956e+02 -3.17619e+02        00000 
-1.10604e+02 -3.16038e+02        00000 
-7.71223e+01 -2.90407e+02        00000 
-8.97765e+01 -3.14726e+02        00000 
-6.93789e+01 -3.13679e+02        00000 
-3.81809e+01 -2.88731e+02        00000 
-4.93174e+01 -3.12896e+02        00000 
-2.94970e+01 -3.12375e+02        00000 
-8.30751e-03 -2.88173e+02        00000 
-9.82184e+00 -3.12115e+02        00000 
 9.80509e+00 -3.12116e+02        00000 
 3.81645e+01 -2.88731e+02        00000 
 2.94806e+01 -3.12376e+02        00000 
 4.93007e+01 -3.12897e+02        00000 
 7.71051e+01 -2.90408e+02        00000 
 6.93618e+01 -3.13680e+02        00000 
 8.97588e+01 -3.14727e+02        00000 
 1.17574e+02 -2.93205e+02        00000 
 1.10586e+02 -3.16039e+02        00000 
 1.31937e+02 -3.17620e+02        00000 
 1.60326e+02 -2.97095e+02        00000 
 1.53904e+02 -3.19477e+02        00000 
 1.76582e+02 -3.21629e+02        00000 
-1.77789e+02 -3.93771e+02        00000 
-1.93831e+02 -4.20079e+02        00000 
-1.69116e+02 -4.18496e+02        00000 
-1.30648e+02 -3.90861e+02        00000 
-1.45096e+02 -4.17139e+02        00000 
-1.21691e+02 -4.15996e+02        00000 
-8.57920e+01 -3.88799e+02        00000 
-9.88168e+01 -4.15060e+02        00000 
-7.63859e+01 -4.14323e+02        00000 
-4.24999e+01 -3.87585e+02        00000 
-5.43070e+01 -4.13779e+02        00000 
-3.24841e+01 -4.13420e+02        00000 
-8.55984e-03 -3.87185e+02        00000 
-1.08163e+01 -4.13242e+02        00000 
 1.07993e+01 -4.13242e+02        00000 
 4.24831e+01 -3.87585e+02        00000 
 3.24673e+01 -4.13421e+02        00000 
 5.42905e+01 -4.13780e+02        00000 
 8.57747e+01 -3.88801e+02        00000 
 7.63692e+01 -4.14324e+02        00000 
 9.87998e+01 -4.15061e+02        00000 
 1.30630e+02 -3.90863e+02        00000 
 1.21674e+02 -4.15997e+02        00000 
 1.45079e+02 -4.17141e+02        00000 
 1.77770e+02 -3.93773e+02        00000 
 1.69098e+02 -4.18498e+02        00000 
 1.93813e+02 -4.20082e+02        00000 
-1.90367e+02 -4.97881e+02        00000 
-2.05992e+02 -5.25387e+02        00000 
-1.79738e+02 -5.24346e+02        00000 
-1.39898e+02 -4.95967e+02        00000 
-1.54148e+02 -5.23499e+02        00000 
-1.29194e+02 -5.22828e+02        00000 
-9.17916e+01 -4.94713e+02        00000 
-1.04827e+02 -5.22307e+02        00000 
-8.09738e+01 -5.21915e+02        00000 
-4.54369e+01 -4.94021e+02        00000 
-5.75353e+01 -5.21633e+02        00000 
-3.44010e+01 -5.21451e+02        00000 
-7.46632e-03 -4.93800e+02        00000 
-1.14509e+01 -5.21361e+02        00000 
 1.14369e+01 -5.21361e+02        00000 
 4.54226e+01 -4.94022e+02        00000 
 3.43871e+01 -5.21451e+02        00000 
 5.75222e+01 -5.21634e+02        00000 
 9.17777e+01 -4.94716e+02        00000 
 8.09610e+01 -5.21916e+02        00000 
 1.04814e+02 -5.22309e+02        00000 
 1.39883e+02 -4.95970e+02        00000 
 1.29180e+02 -5.22830e+02        00000 
 1.54133e+02 -5.23502e+02        00000 
 1.90351e+02 -4.97885e+02        00000 
 1.79723e+02 -5.24349e+02        00000 
 2.05976e+02 -5.25389e+02        00000 
-1.98377e+02 -6.07379e+02        00000 
-2.13735e+02 -6.36003e+02        00000 
-1.85823e+02 -6.35484e+02        00000 
-1.45103e+02 -6.06476e+02        00000 
-1.58879e+02 -6.35085e+02        00000 
-1.32867e+02 -6.34714e+02        00000 
-9.49041e+01 -6.05864e+02        00000 
-1.07650e+02 -6.34356e+02        00000 
-8.30766e+01 -6.34030e+02        00000 
-4.69039e+01 -6.05456e+02        00000 
-5.89950e+01 -6.33759e+02        00000 
-3.52609e+01 -6.33565e+02        00000 
-5.28327e-03 -6.05310e+02        00000 
-1.17338e+01 -6.33464e+02        00000 
 1.17243e+01 -6.33464e+02        00000 
 4.68929e+01 -6.05457e+02        00000 
 3.52510e+01 -6.33565e+02        00000 
 5.89843e+01 -6.33759e+02        00000 
 9.48928e+01 -6.05864e+02        00000 
 8.30652e+01 -6.34029e+02        00000 
 1.07639e+02 -6.34355e+02        00000 
 1.45091e+02 -6.06475e+02        00000 
 1.32855e+02 -6.34712e+02        00000 
 1.58867e+02 -6.35084e+02        00000 
 1.98363e+02 -6.07378e+02        00000 
 1.85810e+02 -6.35482e+02        00000 
 2.13722e+02 -6.36002e+02        00000 
-1.59743e+01 -1.24094e+01        00000 
-2.78232e+01 -2.24625e+01        00000 
-1.03072e+01 -8.06478e+00        00000 
-1.80729e+01 -1.59661e+01        00000 
-5.89335e+00 -5.92397e+00        00000 
-1.08156e+01 -1.24281e+01        00000 
-1.92489e+00 -5.01665e+00        00000 
-4.50331e+00 -1.07455e+01        00000 
 1.92239e+00 -5.01601e+00        00000 
 1.49019e+00 -1.04297e+01        00000 
 5.89105e+00 -5.92224e+00        00000 
 7.58577e+00 -1.13948e+01        00000 
 1.03058e+01 -8.06240e+00        00000 
 1.42643e+01 -1.39113e+01        00000 
 1.59722e+01 -1.24067e+01        00000 
 2.24502e+01 -1.87420e+01        00000 
 2.78345e+01 -2.17231e+01        00000 
 3.50207e+01 -2.72717e+01        00000 
-5.09984e+01 -4.91216e+01        00000 
-6.42586e+01 -6.24570e+01        00000 
-3.41301e+01 -4.28390e+01        00000 
-4.44694e+01 -5.57680e+01        00000 
-1.96272e+01 -3.88045e+01        00000 
-2.71356e+01 -5.11876e+01        00000 
-6.41193e+00 -3.68674e+01        00000 
-1.13646e+01 -4.87008e+01        00000 
 6.40407e+00 -3.68665e+01        00000 
 3.76486e+00 -4.82096e+01        00000 
 1.96200e+01 -3.88018e+01        00000 
 1.91061e+01 -4.96869e+01        00000 
 3.41242e+01 -4.28349e+01        00000 
 3.55388e+01 -5.32068e+01        00000 
 5.09930e+01 -4.91164e+01        00000 
 5.40115e+01 -5.88512e+01        00000 
 7.08720e+01 -5.72647e+01        00000 
 7.52110e+01 -6.65684e+01        00000 
-8.14997e+01 -1.00987e+02        00000 
-9.56386e+01 -1.18141e+02        00000 
-5.61692e+01 -9.54897e+01        00000 
-6.77704e+01 -1.12383e+02        00000 
-3.28603e+01 -9.17726e+01        00000 
-4.20539e+01 -1.08372e+02        00000 
-1.08155e+01 -8.99049e+01        00000 
-1.77665e+01 -1.06129e+02        00000 
 1.08030e+01 -8.99043e+01        00000 
 5.89594e+00 -1.05679e+02        00000 
 3.28483e+01 -9.17708e+01        00000 
 2.97676e+01 -1.07026e+02        00000 
 5.61584e+01 -9.54866e+01        00000 
 5.46735e+01 -1.10157e+02        00000 
 8.14906e+01 -1.00983e+02        00000 
 8.13835e+01 -1.15038e+02        00000 
 1.09474e+02 -1.08067e+02        00000 
 1.10571e+02 -1.21710e+02        00000 
-1.07611e+02 -1.68643e+02        00000 
-1.22430e+02 -1.89180e+02        00000 
-7.49346e+01 -1.64019e+02        00000 
-8.74993e+01 -1.84357e+02        00000 
-4.41809e+01 -1.60907e+02        00000 
-5.46683e+01 -1.81022e+02        00000 
-1.46002e+01 -1.59343e+02        00000 
-2.31898e+01 -1.79163e+02        00000 
 1.45851e+01 -1.59343e+02        00000 
 7.70318e+00 -1.78791e+02        00000 
 4.41652e+01 -1.60907e+02        00000 
 3.87913e+01 -1.79908e+02        00000 
 7.49190e+01 -1.64019e+02        00000 
 7.08515e+01 -1.82507e+02        00000 
 1.07596e+02 -1.68644e+02        00000 
 1.04640e+02 -1.86580e+02        00000 
 1.42936e+02 -1.74653e+02        00000 
 1.40898e+02 -1.92189e+02        00000 
-1.29381e+02 -2.49987e+02        00000 