<?xml version="1.0" encoding="utf-8"?>
<VTKFile byte_order="LittleEndian" type="UnstructuredGrid" version="0.1">
   <UnstructuredGrid>
      <Piece NumberOfCells="1296" NumberOfPoints="685">
         <Points>
            <DataArray Name="Points" NumberOfComponents="3" format="ascii" type="Float32">
0.0000 0.0000 0.0000
0.0000 0.1111 0.0000
0.0000 0.2222 0.0000
0.0000 0.3333 0.0000
0.0000 0.4444 0.0000
0.0000 0.5556 0.0000
0.0000 0.6667 0.0000
0.0000 0.7778 0.0000
0.0000 0.8889 0.0000
0.0000 1.0000 0.0000
0.2222 0.0000 0.0000
0.2222 0.1111 0.0000
0.2222 0.2222 0.0000
0.2222 0.3333 0.0000
0.2222 0.4444 0.0000
0.2222 0.5556 0.0000
0.2222 0.6667 0.0000
0.2222 0.7778 0.0000
0.2222 0.8889 0.0000
0.2222 1.0000 0.0000
0.4444 0.0000 0.0000
0.4444 0.1111 0.0000
0.4444 0.2222 0.0000
0.4444 0.3333 0.0000
0.4444 0.4444 0.0000
0.4444 0.5556 0.0000
0.4444 0.6667 0.0000
0.4444 0.7778 0.0000
0.4444 0.8889 0.0000
0.4444 1.0000 0.0000
0.6667 0.0000 0.0000
0.6667 0.1111 0.0000
0.6667 0.2222 0.0000
0.6667 0.3333 0.0000
0.6667 0.4444 0.0000
0.6667 0.5556 0.0000
0.6667 0.6667 0.0000
0.6667 0.7778 0.0000
0.6667 0.8889 0.0000
0.6667 1.0000 0.0000
0.8889 0.0000 0.0000
0.8889 0.1111 0.0000
0.8889 0.2222 0.0000
0.8889 0.3333 0.0000
0.8889 0.4444 0.0000
0.8889 0.5556 0.0000
0.8889 0.6667 0.0000
0.8889 0.7778 0.0000
0.8889 0.8889 0.0000
0.8889 1.0000 0.0000
1.1111 0.0000 0.0000
1.1111 0.1111 0.0000
1.1111 0.2222 0.0000
1.1111 0.3333 0.0000
1.1111 0.4444 0.0000
1.1111 0.5556 0.0000
1.1111 0.6667 0.0000
1.1111 0.7778 0.0000
1.1111 0.8889 0.0000
1.1111 1.0000 0.0000
1.3333 0.0000 0.0000
1.3333 0.1111 0.0000
1.3333 0.2222 0.0000
1.3333 0.3333 0.0000
1.3333 0.4444 0.0000
1.3333 0.5556 0.0000
1.3333 0.6667 0.0000
1.3333 0.7778 0.0000
1.3333 0.8889 0.0000
1.3333 1.0000 0.0000
1.5556 0.0000 0.0000
1.5556 0.1111 0.0000
1.5556 0.2222 0.0000
1.5556 0.3333 0.0000
1.5556 0.4444 0.0000
1.5556 0.5556 0.0000
1.5556 0.6667 0.0000
1.5556 0.7778 0.0000
1.5556 0.8889 0.0000
1.5556 1.0000 0.0000
1.7778 0.0000 0.0000
1.7778 0.1111 0.0000
1.7778 0.2222 0.0000
1.7778 0.3333 0.0000
1.7778 0.4444 0.0000
1.7778 0.5556 0.0000
1.7778 0.6667 0.0000
1.7778 0.7778 0.0000
1.7778 0.8889 0.0000
1.7778 1.0000 0.0000
2.0000 0.0000 0.0000
2.0000 0.1111 0.0000
2.0000 0.2222 0.0000
2.0000 0.3333 0.0000
2.0000 0.4444 0.0000
2.0000 0.5556 0.0000
2.0000 0.6667 0.0000
2.0000 0.7778 0.0000
2.0000 0.8889 0.0000
2.0000 1.0000 0.0000
0.1111 0.0556 0.0000
0.1111 0.1667 0.0000
0.1111 0.2778 0.0000
0.1111 0.3889 0.0000
0.1111 0.5000 0.0000
0.1111 0.6111 0.0000
0.1111 0.7222 0.0000
0.1111 0.8333 0.0000
0.1111 0.9444 0.0000
0.3333 0.0556 0.0000
0.3333 0.1667 0.0000
0.3333 0.2778 0.0000
0.3333 0.3889 0.0000
0.3333 0.5000 0.0000
0.3333 0.6111 0.0000
0.3333 0.7222 0.0000
0.3333 0.8333 0.0000
0.3333 0.9444 0.0000
0.5556 0.0556 0.0000
0.5556 0.1667 0.0000
0.5556 0.2778 0.0000
0.5556 0.3889 0.0000
0.5556 0.5000 0.0000
0.5556 0.6111 0.0000
0.5556 0.7222 0.0000
0.5556 0.8333 0.0000
0.5556 0.9444 0.0000
0.7778 0.0556 0.0000
0.7778 0.1667 0.0000
0.7778 0.2778 0.0000
0.7778 0.3889 0.0000
0.7778 0.5000 0.0000
0.7778 0.6111 0.0000
0.7778 0.7222 0.0000
0.7778 0.8333 0.0000
0.7778 0.9444 0.0000
1.0000 0.0556 0.0000
1.0000 0.1667 0.0000
1.0000 0.2778 0.0000
1.0000 0.3889 0.0000
1.0000 0.5000 0.0000
1.0000 0.6111 0.0000
1.0000 0.7222 0.0000
1.0000 0.8333 0.0000
1.0000 0.9444 0.0000
1.2222 0.0556 0.0000
1.2222 0.1667 0.0000
1.2222 0.2778 0.0000
1.2222 0.3889 0.0000
1.2222 0.5000 0.0000
1.2222 0.6111 0.0000
1.2222 0.7222 0.0000
1.2222 0.8333 0.0000
1.2222 0.9444 0.0000
1.4444 0.0556 0.0000
1.4444 0.1667 0.0000
1.4444 0.2778 0.0000
1.4444 0.3889 0.0000
1.4444 0.5000 0.0000
1.4444 0.6111 0.0000
1.4444 0.7222 0.0000
1.4444 0.8333 0.0000
1.4444 0.9444 0.0000
1.6667 0.0556 0.0000
1.6667 0.1667 0.0000
1.6667 0.2778 0.0000
1.6667 0.3889 0.0000
1.6667 0.5000 0.0000
1.6667 0.6111 0.0000
1.6667 0.7222 0.0000
1.6667 0.8333 0.0000
1.6667 0.9444 0.0000
1.8889 0.0556 0.0000
1.8889 0.1667 0.0000
1.8889 0.2778 0.0000
1.8889 0.3889 0.0000
1.8889 0.5000 0.0000
1.8889 0.6111 0.0000
1.8889 0.7222 0.0000
1.8889 0.8333 0.0000
1.8889 0.9444 0.0000
0.0000 0.0556 0.0000
0.0556 0.0278 0.0000
0.0556 0.0833 0.0000
0.0000 0.1667 0.0000
0.0556 0.1389 0.0000
0.0556 0.1944 0.0000
0.0000 0.2778 0.0000
0.0556 0.2500 0.0000
0.0556 0.3056 0.0000
0.0000 0.3889 0.0000
0.0556 0.3611 0.0000
0.0556 0.4167 0.0000
0.0000 0.5000 0.0000
0.0556 0.4722 0.0000
0.0556 0.5278 0.0000
0.0000 0.6111 0.0000
0.0556 0.5833 0.0000
0.0556 0.6389 0.0000
0.0000 0.7222 0.0000
0.0556 0.6944 0.0000
0.0556 0.7500 0.0000
0.0000 0.8333 0.0000
0.0556 0.8056 0.0000
0.0556 0.8611 0.0000
0.0000 0.9444 0.0000
0.0556 0.9167 0.0000
0.0556 0.9722 0.0000
0.2222 0.0556 0.0000
0.2778 0.0278 0.0000
0.2778 0.0833 0.0000
0.2222 0.1667 0.0000
0.2778 0.1389 0.0000
0.2778 0.1944 0.0000
0.2222 0.2778 0.0000
0.2778 0.2500 0.0000
0.2778 0.3056 0.0000
0.2222 0.3889 0.0000
0.2778 0.3611 0.0000
0.2778 0.4167 0.0000
0.2222 0.5000 0.0000
0.2778 0.4722 0.0000
0.2778 0.5278 0.0000
0.2222 0.6111 0.0000
0.2778 0.5833 0.0000
0.2778 0.6389 0.0000
0.2222 0.7222 0.0000
0.2778 0.6944 0.0000
0.2778 0.7500 0.0000
0.2222 0.8333 0.0000
0.2778 0.8056 0.0000
0.2778 0.8611 0.0000
0.2222 0.9444 0.0000
0.2778 0.9167 0.0000
0.2778 0.9722 0.0000
0.4444 0.0556 0.0000
0.5000 0.0278 0.0000
0.5000 0.0833 0.0000
0.4444 0.1667 0.0000
0.5000 0.1389 0.0000
0.5000 0.1944 0.0000
0.4444 0.2778 0.0000
0.5000 0.2500 0.0000
0.5000 0.3056 0.0000
0.4444 0.3889 0.0000
0.5000 0.3611 0.0000
0.5000 0.4167 0.0000
0.4444 0.5000 0.0000
0.5000 0.4722 0.0000
0.5000 0.5278 0.0000
0.4444 0.6111 0.0000
0.5000 0.5833 0.0000
0.5000 0.6389 0.0000
0.4444 0.7222 0.0000
0.5000 0.6944 0.0000
0.5000 0.7500 0.0000
0.4444 0.8333 0.0000
0.5000 0.8056 0.0000
0.5000 0.8611 0.0000
0.4444 0.9444 0.0000
0.5000 0.9167 0.0000
0.5000 0.9722 0.0000
0.6667 0.0556 0.0000
0.7222 0.0278 0.0000
0.7222 0.0833 0.0000
0.6667 0.1667 0.0000
0.7222 0.1389 0.0000
0.7222 0.1944 0.0000
0.6667 0.2778 0.0000
0.7222 0.2500 0.0000
0.7222 0.3056 0.0000
0.6667 0.3889 0.0000
0.7222 0.3611 0.0000
0.7222 0.4167 0.0000
0.6667 0.5000 0.0000
0.7222 0.4722 0.0000
0.7222 0.5278 0.0000
0.6667 0.6111 0.0000
0.7222 0.5833 0.0000
0.7222 0.6389 0.0000
0.6667 0.7222 0.0000
0.7222 0.6944 0.0000
0.7222 0.7500 0.0000
0.6667 0.8333 0.0000
0.7222 0.8056 0.0000
0.7222 0.8611 0.0000
0.6667 0.9444 0.0000
0.7222 0.9167 0.0000
0.7222 0.9722 0.0000
0.8889 0.0556 0.0000
0.9444 0.0278 0.0000
0.9444 0.0833 0.0000
0.8889 0.1667 0.0000
0.9444 0.1389 0.0000
0.9444 0.1944 0.0000
0.8889 0.2778 0.0000
0.9444 0.2500 0.0000
0.9444 0.3056 0.0000
0.8889 0.3889 0.0000
0.9444 0.3611 0.0000
0.9444 0.4167 0.0000
0.8889 0.5000 0.0000
0.9444 0.4722 0.0000
0.9444 0.5278 0.0000
0.8889 0.6111 0.0000
0.9444 0.5833 0.0000
0.9444 0.6389 0.0000
0.8889 0.7222 0.0000
0.9444 0.6944 0.0000
0.9444 0.7500 0.0000
0.8889 0.8333 0.0000
0.9444 0.8056 0.0000
0.9444 0.8611 0.0000
0.8889 0.9444 0.0000
0.9444 0.9167 0.0000
0.9444 0.9722 0.0000
1.1111 0.0556 0.0000
1.1667 0.0278 0.0000
1.1667 0.0833 0.0000
1.1111 0.1667 0.0000
1.1667 0.1389 0.0000
1.1667 0.1944 0.0000
1.1111 0.2778 0.0000
1.1667 0.2500 0.0000
1.1667 0.3056 0.0000
1.1111 0.3889 0.0000
1.1667 0.3611 0.0000
1.1667 0.4167 0.0000
1.1111 0.5000 0.0000
1.1667 0.4722 0.0000
1.1667 0.5278 0.0000
1.1111 0.6111 0.0000
1.1667 0.5833 0.0000
1.1667 0.6389 0.0000
1.1111 0.7222 0.0000
1.1667 0.6944 0.0000
1.1667 0.7500 0.0000
1.1111 0.8333 0.0000
1.1667 0.8056 0.0000
1.1667 0.8611 0.0000
1.1111 0.9444 0.0000
1.1667 0.9167 0.0000
1.1667 0.9722 0.0000
1.3333 0.0556 0.0000
1.3889 0.0278 0.0000
1.3889 0.0833 0.0000
1.3333 0.1667 0.0000
1.3889 0.1389 0.0000
1.3889 0.1944 0.0000
1.3333 0.2778 0.0000
1.3889 0.2500 0.0000
1.3889 0.3056 0.0000
1.3333 0.3889 0.0000
1.3889 0.3611 0.0000
1.3889 0.4167 0.0000
1.3333 0.5000 0.0000
1.3889 0.4722 0.0000
1.3889 0.5278 0.0000
1.3333 0.6111 0.0000
1.3889 0.5833 0.0000
1.3889 0.6389 0.0000
1.3333 0.7222 0.0000
1.3889 0.6944 0.0000
1.3889 0.7500 0.0000
1.3333 0.8333 0.0000
1.3889 0.8056 0.0000
1.3889 0.8611 0.0000
1.3333 0.9444 0.0000
1.3889 0.9167 0.0000
1.3889 0.9722 0.0000
1.5556 0.0556 0.0000
1.6111 0.0278 0.0000
1.6111 0.0833 0.0000
1.5556 0.1667 0.0000
1.6111 0.1389 0.0000
1.6111 0.1944 0.0000
1.5556 0.2778 0.0000
1.6111 0.2500 0.0000
1.6111 0.3056 0.0000
1.5556 0.3889 0.0000
1.6111 0.3611 0.0000
1.6111 0.4167 0.0000
1.5556 0.5000 0.0000
1.6111 0.4722 0.0000
1.6111 0.5278 0.0000
1.5556 0.6111 0.0000
1.6111 0.5833 0.0000
1.6111 0.6389 0.0000
1.5556 0.7222 0.0000
1.6111 0.6944 0.0000
1.6111 0.7500 0.0000
1.5556 0.8333 0.0000
1.6111 0.8056 0.0000
1.6111 0.8611 0.0000
1.5556 0.9444 0.0000
1.6111 0.9167 0.0000
1.6111 0.9722 0.0000
1.7778 0.0556 0.0000
1.8333 0.0278 0.0000
1.8333 0.0833 0.0000
1.7778 0.1667 0.0000
1.8333 0.1389 0.0000
1.8333 0.1944 0.0000
1.7778 0.2778 0.0000
1.8333 0.2500 0.0000
1.8333 0.3056 0.0000
1.7778 0.3889 0.0000
1.8333 0.3611 0.0000
1.8333 0.4167 0.0000
1.7778 0.5000 0.0000
1.8333 0.4722 0.0000
1.8333 0.5278 0.0000
1.7778 0.6111 0.0000
1.8333 0.5833 0.0000
1.8333 0.6389 0.0000
1.7778 0.7222 0.0000
1.8333 0.6944 0.0000
1.8333 0.7500 0.0000
1.7778 0.8333 0.0000
1.8333 0.8056 0.0000
1.8333 0.8611 0.0000
1.7778 0.9444 0.0000
1.8333 0.9167 0.0000
1.8333 0.9722 0.0000
0.1111 0.1111 0.0000
0.1667 0.0833 0.0000
0.1111 0.2222 0.0000
0.1667 0.1944 0.0000
0.1111 0.3333 0.0000
0.1667 0.3056 0.0000
0.1111 0.4444 0.0000
0.1667 0.4167 0.0000
0.1111 0.5556 0.0000
0.1667 0.5278 0.0000
0.1111 0.6667 0.0000
0.1667 0.6389 0.0000
0.1111 0.7778 0.0000
0.1667 0.7500 0.0000
0.1111 0.8889 0.0000
0.1667 0.8611 0.0000
0.1111 1.0000 0.0000
0.1667 0.9722 0.0000
0.3333 0.1111 0.0000
0.3889 0.0833 0.0000
0.3333 0.2222 0.0000
0.3889 0.1944 0.0000
0.3333 0.3333 0.0000
0.3889 0.3056 0.0000
0.3333 0.4444 0.0000
0.3889 0.4167 0.0000
0.3333 0.5556 0.0000
0.3889 0.5278 0.0000
0.3333 0.6667 0.0000
0.3889 0.6389 0.0000
0.3333 0.7778 0.0000
0.3889 0.7500 0.0000
0.3333 0.8889 0.0000
0.3889 0.8611 0.0000
0.3333 1.0000 0.0000
0.3889 0.9722 0.0000
0.5556 0.1111 0.0000
[...]
         <PointData>
            <DataArray Name="fValues" NumberOfComponents="3" format="ascii" type="Float64">
-2.44753e-15 -6.11883e-16        00000 
 2.21191e-15  5.28218e-16        00000 
-7.01489e-16  6.31898e-16        00000 
       00000 -7.89078e-16        00000 
-4.06139e-17  5.15732e-17        00000 
-6.57565e-17 -1.31513e-16        00000 
 2.70239e-16 -8.25157e-17        00000 
 4.59879e-16 -5.58425e-16        00000 
-5.28345e-16 -1.05669e-15        00000 
       00000  1.22377e-15        00000 
-4.98867e+01 -3.79408e+01        00000 
-3.39426e+01 -2.91762e+01        00000 
-2.21280e+01 -2.30082e+01        00000 
-1.26166e+01 -1.94367e+01        00000 
-4.11103e+00 -1.78163e+01        00000 
 4.10623e+00 -1.78155e+01        00000 
 1.26124e+01 -1.94348e+01        00000 
 2.21248e+01 -2.30050e+01        00000 
 3.39391e+01 -2.91722e+01        00000 
 4.98817e+01 -3.79358e+01        00000 
-9.07943e+01 -8.06209e+01        00000 
-6.68194e+01 -7.30061e+01        00000 
-4.55584e+01 -6.70756e+01        00000 
-2.64579e+01 -6.31028e+01        00000 
-8.67739e+00 -6.11318e+01        00000 
 8.66863e+00 -6.11309e+01        00000 
 2.64493e+01 -6.31003e+01        00000 
 4.55511e+01 -6.70721e+01        00000 
 6.68133e+01 -7.30012e+01        00000 
 9.07888e+01 -8.06152e+01        00000 
-1.26905e+02 -1.39526e+02        00000 
-9.51099e+01 -1.32975e+02        00000 
-6.59659e+01 -1.27916e+02        00000 
-3.87755e+01 -1.24501e+02        00000 
-1.27930e+01 -1.22781e+02        00000 
 1.27806e+01 -1.22781e+02        00000 
 3.87628e+01 -1.24500e+02        00000 
 6.59539e+01 -1.27915e+02        00000 
 9.50993e+01 -1.32973e+02        00000 
 1.26896e+02 -1.39522e+02        00000 
-1.57654e+02 -2.13256e+02        00000 
-1.19054e+02 -2.07788e+02        00000 
-8.31252e+01 -2.03590e+02        00000 
-4.91069e+01 -2.00773e+02        00000 
-1.62447e+01 -1.99361e+02        00000 
 1.62300e+01 -1.99361e+02        00000 
 4.90922e+01 -2.00774e+02        00000 
 8.31104e+01 -2.03591e+02        00000 
 1.19039e+02 -2.07790e+02        00000 
 1.57639e+02 -2.13257e+02        00000 
-1.82849e+02 -2.99436e+02        00000 
-1.38654e+02 -2.95059e+02        00000 
-9.71310e+01 -2.91708e+02        00000 
-5.75144e+01 -2.89470e+02        00000 
-1.90481e+01 -2.88354e+02        00000 
 1.90334e+01 -2.88354e+02        00000 
 5.74993e+01 -2.89471e+02        00000 
 9.71149e+01 -2.91709e+02        00000 
 1.38637e+02 -2.95061e+02        00000 
 1.82831e+02 -2.99438e+02        00000 
-2.02472e+02 -3.95558e+02        00000 
-1.53907e+02 -3.92268e+02        00000 
-1.07991e+02 -3.89777e+02        00000 
-6.40040e+01 -3.88142e+02        00000 
-2.12054e+01 -3.87338e+02        00000 
 2.11904e+01 -3.87339e+02        00000 
 6.39890e+01 -3.88143e+02        00000 
 1.07976e+02 -3.89778e+02        00000 
 1.53891e+02 -3.92270e+02        00000 
 2.02456e+02 -3.95560e+02        00000 
-2.16659e+02 -4.99134e+02        00000 
-1.64828e+02 -4.96906e+02        00000 
-1.15595e+02 -4.95329e+02        00000 
-6.84509e+01 -4.94371e+02        00000 
-2.26654e+01 -4.93921e+02        00000 
 2.26521e+01 -4.93922e+02        00000 
 6.84385e+01 -4.94372e+02        00000 
 1.15582e+02 -4.95331e+02        00000 
 1.64814e+02 -4.96909e+02        00000 
 2.16644e+02 -4.99138e+02        00000 
-2.26086e+02 -6.08156e+02        00000 
-1.71351e+02 -6.06950e+02        00000 
-1.19676e+02 -6.06225e+02        00000 
-7.07051e+01 -6.05710e+02        00000 
-2.33880e+01 -6.05426e+02        00000 
 2.33786e+01 -6.05426e+02        00000 
 7.06952e+01 -6.05711e+02        00000 
 1.19666e+02 -6.06225e+02        00000 
 1.71339e+02 -6.06949e+02        00000 
 2.26074e+02 -6.08155e+02        00000 
-2.31895e+02 -7.26672e+02        00000 
-1.74069e+02 -7.23851e+02        00000 
-1.21565e+02 -7.20492e+02        00000 
-7.19044e+01 -7.17912e+02        00000 
-2.38017e+01 -7.16536e+02        00000 
 2.37942e+01 -7.16535e+02        00000 
 7.18944e+01 -7.17909e+02        00000 
 1.21554e+02 -7.20489e+02        00000 
 1.74058e+02 -7.23850e+02        00000 
 2.31886e+02 -7.26672e+02        00000 
-2.01879e+01 -1.61502e+01        00000 
-1.28847e+01 -9.85538e+00        00000 
-8.01578e+00 -6.80301e+00        00000 
-3.87827e+00 -5.34668e+00        00000 
-1.22181e-03 -4.91039e+00        00000 
 3.87603e+00 -5.34564e+00        00000 
 8.01413e+00 -6.80108e+00        00000 
 1.28834e+01 -9.85315e+00        00000 
 2.01855e+01 -1.61473e+01        00000 
-6.05732e+01 -5.30215e+01        00000 
-4.22055e+01 -4.57093e+01        00000 
-2.66574e+01 -4.05520e+01        00000 
-1.29196e+01 -3.75927e+01        00000 
-3.55914e-03 -3.66351e+01        00000 
 1.29129e+01 -3.75910e+01        00000 
 2.66516e+01 -4.05489e+01        00000 
 4.22008e+01 -4.57052e+01        00000 
 6.05682e+01 -5.30165e+01        00000 
-9.51331e+01 -1.04371e+02        00000 
-6.85487e+01 -9.80377e+01        00000 
-4.43118e+01 -9.34167e+01        00000 
-2.17337e+01 -9.06195e+01        00000 
-5.57002e-03 -8.96847e+01        00000 
 2.17228e+01 -9.06183e+01        00000 
 4.43015e+01 -9.34145e+01        00000 
 6.85398e+01 -9.80343e+01        00000 
 9.51259e+01 -1.04367e+02        00000 
-1.24913e+02 -1.71521e+02        00000 
-9.09981e+01 -1.66170e+02        00000 
-5.93707e+01 -1.62295e+02        00000 
-2.92949e+01 -1.59954e+02        00000 
-6.79822e-03 -1.59171e+02        00000 
 2.92812e+01 -1.59954e+02        00000 
 5.93567e+01 -1.62296e+02        00000 
 9.09845e+01 -1.66170e+02        00000 
 1.24901e+02 -1.71521e+02        00000 
-1.49787e+02 -2.52358e+02        00000 
-1.09673e+02 -2.47982e+02        00000 
-7.18429e+01 -2.44828e+02        00000 
-3.55411e+01 -2.42932e+02        00000 
-7.33551e-03 -2.42300e+02        00000 
 3.55264e+01 -2.42933e+02        00000 
 7.18274e+01 -2.44830e+02        00000 
 1.09657e+02 -2.47984e+02        00000 
 1.49770e+02 -2.52360e+02        00000 
-1.69704e+02 -3.44396e+02        00000 
-1.24605e+02 -3.40995e+02        00000 
-8.17879e+01 -3.38560e+02        00000 
-4.05087e+01 -3.37109e+02        00000 
-7.46799e-03 -3.36627e+02        00000 
 4.04938e+01 -3.37109e+02        00000 
 8.17722e+01 -3.38561e+02        00000 
 1.24589e+02 -3.40996e+02        00000 
 1.69687e+02 -3.44398e+02        00000 
-1.84695e+02 -4.45110e+02        00000 
-1.35773e+02 -4.42694e+02        00000 
-8.91517e+01 -4.41025e+02        00000 
-4.41558e+01 -4.40065e+02        00000 
-7.58378e-03 -4.39753e+02        00000 
 4.41412e+01 -4.40066e+02        00000 
 8.91370e+01 -4.41026e+02        00000 
 1.35758e+02 -4.42696e+02        00000 
 1.84680e+02 -4.45113e+02        00000 
-1.94939e+02 -5.52091e+02        00000 
-1.43046e+02 -5.50689e+02        00000 
-9.37168e+01 -5.49845e+02        00000 
-4.63486e+01 -5.49385e+02        00000 
-5.75677e-03 -5.49236e+02        00000 
 4.63376e+01 -5.49385e+02        00000 
 9.37062e+01 -5.49846e+02        00000 
 1.43034e+02 -5.50691e+02        00000 
 1.94926e+02 -5.52093e+02        00000 
-2.00617e+02 -6.64628e+02        00000 
-1.46267e+02 -6.63745e+02        00000 
-9.56277e+01 -6.62675e+02        00000 
-4.72685e+01 -6.61850e+02        00000 
-3.76528e-03 -6.61545e+02        00000 
 4.72596e+01 -6.61849e+02        00000 
 9.56170e+01 -6.62674e+02        00000 
 1.46256e+02 -6.63743e+02        00000 
 2.00605e+02 -6.64627e+02        00000 
-4.05488e-15  1.46941e-15        00000 
-1.10337e+01 -8.43325e+00        00000 
-8.37562e+00 -5.93947e+00        00000 
 3.61412e-15  6.44084e-16        00000 
-6.75591e+00 -4.37780e+00        00000 
-5.47569e+00 -3.31934e+00        00000 
-9.99201e-16        00000        00000 
-4.35320e+00 -2.57974e+00        00000 
-3.31885e+00 -2.06250e+00        00000 
 1.31669e-16 -3.83296e-16        00000 
-2.33869e+00 -1.71148e+00        00000 
-1.39127e+00 -1.49318e+00        00000 
-1.87350e-16  3.12250e-16        00000 
-4.62163e-01 -1.38839e+00        00000 
 4.61187e-01 -1.38824e+00        00000 
-4.82190e-16  1.38653e-16        00000 
 1.39032e+00 -1.49277e+00        00000 
 2.33759e+00 -1.71069e+00        00000 
-2.49800e-16 -1.24900e-16        00000 
 3.31798e+00 -2.06132e+00        00000 
 4.35243e+00 -2.57854e+00        00000 
 1.49880e-15 -1.24900e-15        00000 
 5.47501e+00 -3.31810e+00        00000 
 6.75507e+00 -4.37657e+00        00000 
 9.60627e-17  2.80120e-15        00000 
 8.37464e+00 -5.93809e+00        00000 
 1.10323e+01 -8.43174e+00        00000 
-4.14443e+01 -3.33745e+01        00000 
-5.57579e+01 -4.51310e+01        00000 
-4.68072e+01 -4.07419e+01        00000 
-2.76230e+01 -2.57221e+01        00000 
-3.87112e+01 -3.69023e+01        00000 
-3.15042e+01 -3.37153e+01        00000 
-1.71870e+01 -2.09442e+01        00000 
-2.49914e+01 -3.11744e+01        00000 
-1.89845e+01 -2.92304e+01        00000 
-8.28973e+00 -1.84115e+01        00000 
-1.33318e+01 -2.78275e+01        00000 
-7.91236e+00 -2.69191e+01        00000 
-2.54719e-03 -1.76210e+01        00000 
-2.62520e+00 -2.64728e+01        00000 
 2.61908e+00 -2.64723e+01        00000 
 8.28515e+00 -1.84101e+01        00000 
 7.90656e+00 -2.69178e+01        00000 
 1.33263e+01 -2.78254e+01        00000 
 1.71831e+01 -2.09417e+01        00000 
 1.89794e+01 -2.92276e+01        00000 
 2.49867e+01 -3.11712e+01        00000 
 2.76197e+01 -2.57183e+01        00000 
 3.14999e+01 -3.37115e+01        00000 
 3.87071e+01 -3.68982e+01        00000 
 4.14400e+01 -3.33699e+01        00000 
 4.68027e+01 -4.07374e+01        00000 
 5.57528e+01 -4.51261e+01        00000 
-7.84440e+01 -7.66340e+01        00000 
-9.35190e+01 -9.21270e+01        00000 
-8.05321e+01 -8.82782e+01        00000 
-5.58758e+01 -6.98067e+01        00000 
-6.82390e+01 -8.49275e+01        00000 
-5.65826e+01 -8.20470e+01        00000 
-3.57872e+01 -6.48379e+01        00000 
-4.54915e+01 -7.96371e+01        00000 
-3.48788e+01 -7.77057e+01        00000 
-1.74585e+01 -6.18690e+01        00000 
-2.46440e+01 -7.62571e+01        00000 
-1.46800e+01 -7.52924e+01        00000 
-4.34871e-03 -6.08863e+01        00000 
-4.87885e+00 -7.48102e+01        00000 
 4.86867e+00 -7.48098e+01        00000 
 1.74497e+01 -6.18674e+01        00000 
 1.46701e+01 -7.52912e+01        00000 
 2.46340e+01 -7.62554e+01        00000 
 3.57790e+01 -6.48350e+01        00000 
 3.48694e+01 -7.77035e+01        00000 
 4.54826e+01 -7.96342e+01        00000 
 5.58691e+01 -6.98025e+01        00000 
 5.65743e+01 -8.20433e+01        00000 
 6.82315e+01 -8.49233e+01        00000 
 7.84383e+01 -7.66284e+01        00000 
 8.05254e+01 -8.82735e+01        00000 
 9.35130e+01 -9.21219e+01        00000 
-1.10630e+02 -1.36086e+02        00000 
-1.26408e+02 -1.55188e+02        00000 
-1.09625e+02 -1.51895e+02        00000 
-8.02499e+01 -1.30245e+02        00000 
-9.35452e+01 -1.49045e+02        00000 
-7.80826e+01 -1.46607e+02        00000 
-5.21715e+01 -1.25999e+02        00000 
-6.31490e+01 -1.44570e+02        00000 
-4.86544e+01 -1.42936e+02        00000 
-2.56823e+01 -1.23427e+02        00000 
-3.45053e+01 -1.41707e+02        00000 
-2.06053e+01 -1.40886e+02        00000 
-6.43118e-03 -1.22566e+02        00000 
-6.85612e+00 -1.40475e+02        00000 
 6.84294e+00 -1.40475e+02        00000 
 2.56695e+01 -1.23427e+02        00000 
 2.05922e+01 -1.40886e+02        00000 
 3.44919e+01 -1.41707e+02        00000 
 5.21588e+01 -1.25998e+02        00000 
 4.86410e+01 -1.42936e+02        00000 
 6.31356e+01 -1.44570e+02        00000 
 8.02385e+01 -1.30243e+02        00000 
 7.80696e+01 -1.46606e+02        00000 
 9.35329e+01 -1.49044e+02        00000 
 1.10620e+02 -1.36083e+02        00000 
 1.09613e+02 -1.51894e+02        00000 
 1.26398e+02 -1.55186e+02        00000 
-1.37969e+02 -2.10382e+02        00000 
-1.54145e+02 -2.32516e+02        00000 
-1.34108e+02 -2.29792e+02        00000 
-1.00804e+02 -2.05519e+02        00000 
-1.14781e+02 -2.27439e+02        00000 
-9.60723e+01 -2.25431e+02        00000 
-6.59242e+01 -2.02007e+02        00000 
-7.78877e+01 -2.23760e+02        00000 
-6.01329e+01 -2.22422e+02        00000 
-3.25789e+01 -1.99891e+02        00000 
-4.27135e+01 -2.21419e+02        00000 
-2.55347e+01 -2.20750e+02        00000 
-7.32449e-03 -1.99184e+02        00000 
-8.50044e+00 -2.20415e+02        00000 
 8.48569e+00 -2.20415e+02        00000 
 3.25643e+01 -1.99891e+02        00000 
 2.55199e+01 -2.20750e+02        00000 
 4.26987e+01 -2.21420e+02        00000 
 6.59093e+01 -2.02008e+02        00000 
 6.01178e+01 -2.22424e+02        00000 
 7.78725e+01 -2.23761e+02        00000 
 1.00789e+02 -2.05520e+02        00000 
 9.60571e+01 -2.25433e+02        00000 
 1.14765e+02 -2.27441e+02        00000 
 1.37954e+02 -2.10383e+02        00000 
 1.34092e+02 -2.29794e+02        00000 
 1.54129e+02 -2.32517e+02        00000 
-1.60365e+02 -2.97135e+02        00000 
-1.76624e+02 -3.21672e+02        00000 
-1.53942e+02 -3.19520e+02        00000 
-1.17607e+02 -2.93246e+02        00000 
-1.31971e+02 -3.17663e+02        00000 
-1.10617e+02 -3.16083e+02        00000 
-7.71314e+01 -2.90449e+02        00000 
-8.97871e+01 -3.14770e+02        00000 
-6.93869e+01 -3.13724e+02        00000 
-3.81850e+01 -2.88772e+02        00000 
-4.93228e+01 -3.12941e+02        00000 
-2.95000e+01 -3.12420e+02        00000 
-7.46722e-03 -2.88214e+02        00000 
-9.82224e+00 -3.12160e+02        00000 
 9.80719e+00 -3.12160e+02        00000 
 3.81702e+01 -2.88773e+02        00000 
 2.94852e+01 -3.12420e+02        00000 
 4.93078e+01 -3.12941e+02        00000 
 7.71159e+01 -2.90450e+02        00000 
 6.93716e+01 -3.13724e+02        00000 
 8.97711e+01 -3.14771e+02        00000 
 1.17591e+02 -2.93247e+02        00000 
 1.10601e+02 -3.16084e+02        00000 
 1.31955e+02 -3.17665e+02        00000 
 1.60347e+02 -2.97137e+02        00000 
 1.53925e+02 -3.19522e+02        00000 
 1.76605e+02 -3.21674e+02        00000 
-1.77810e+02 -3.93826e+02        00000 
-1.93854e+02 -4.20137e+02        00000 
-1.69136e+02 -4.18553e+02        00000 
-1.30664e+02 -3.90915e+02        00000 
-1.45114e+02 -4.17196e+02        00000 
-1.21706e+02 -4.16053e+02        00000 
-8.58019e+01 -3.88853e+02        00000 
-9.88283e+01 -4.15117e+02        00000 
-7.63946e+01 -4.14380e+02        00000 
-4.25044e+01 -3.87639e+02        00000 
-5.43130e+01 -4.13836e+02        00000 
-3.24873e+01 -4.13477e+02        00000 
-7.69617e-03 -3.87239e+02        00000 
-1.08168e+01 -4.13299e+02        00000 
 1.08016e+01 -4.13299e+02        00000 
 4.24893e+01 -3.87639e+02        00000 
 3.24722e+01 -4.13477e+02        00000 
 5.42982e+01 -4.13836e+02        00000 
 8.57863e+01 -3.88854e+02        00000 
 7.63795e+01 -4.14381e+02        00000 
 9.88129e+01 -4.15118e+02        00000 
 1.30647e+02 -3.90917e+02        00000 
 1.21690e+02 -4.16055e+02        00000 
 1.45097e+02 -4.17198e+02        00000 
 1.77793e+02 -3.93828e+02        00000 
 1.69119e+02 -4.18555e+02        00000 
 1.93838e+02 -4.20140e+02        00000 
-1.90389e+02 -4.97948e+02        00000 
-2.06016e+02 -5.25457e+02        00000 
-1.79759e+02 -5.24416e+02        00000 
-1.39914e+02 -4.96033e+02        00000 
-1.54166e+02 -5.23569e+02        00000 
-1.29209e+02 -5.22898e+02        00000 
-9.18023e+01 -4.94780e+02        00000 
-1.04840e+02 -5.22377e+02        00000 
-8.09831e+01 -5.21984e+02        00000 
-4.54418e+01 -4.94087e+02        00000 
-5.75417e+01 -5.21702e+02        00000 
-3.44045e+01 -5.21520e+02        00000 
-6.71195e-03 -4.93867e+02        00000 
-1.14516e+01 -5.21431e+02        00000 
 1.14390e+01 -5.21431e+02        00000 
 4.54289e+01 -4.94088e+02        00000 
 3.43920e+01 -5.21521e+02        00000 
 5.75300e+01 -5.21703e+02        00000 
 9.17897e+01 -4.94782e+02        00000 
 8.09716e+01 -5.21986e+02        00000 
 1.04828e+02 -5.22379e+02        00000 
 1.39901e+02 -4.96036e+02        00000 
 1.29196e+02 -5.22900e+02        00000 
 1.54153e+02 -5.23572e+02        00000 
 1.90375e+02 -4.97952e+02        00000 
 1.79745e+02 -5.24419e+02        00000 
 2.06001e+02 -5.25459e+02        00000 
-1.98400e+02 -6.07458e+02        00000 
-2.13760e+02 -6.36085e+02        00000 
-1.85844e+02 -6.35566e+02        00000 
-1.45120e+02 -6.06555e+02        00000 
-1.58898e+02 -6.35168e+02        00000 
-1.32883e+02 -6.34796e+02        00000 
-9.49151e+01 -6.05943e+02        00000 
-1.07663e+02 -6.34438e+02        00000 
-8.30861e+01 -6.34112e+02        00000 
-4.69091e+01 -6.05535e+02        00000 
-5.90017e+01 -6.33841e+02        00000 
-3.52647e+01 -6.33647e+02        00000 
-4.75215e-03 -6.05388e+02        00000 
-1.17348e+01 -6.33546e+02        00000 
 1.17262e+01 -6.33546e+02        00000 
 4.68992e+01 -6.05536e+02        00000 
 3.52558e+01 -6.33647e+02        00000 
 5.89920e+01 -6.33841e+02        00000 
 9.49049e+01 -6.05943e+02        00000 
 8.30759e+01 -6.34111e+02        00000 
 1.07652e+02 -6.34437e+02        00000 
 1.45109e+02 -6.06554e+02        00000 
 1.32872e+02 -6.34794e+02        00000 
 1.58886e+02 -6.35166e+02        00000 
 1.98387e+02 -6.07457e+02        00000 
 1.85832e+02 -6.35565e+02        00000 
 2.13748e+02 -6.36084e+02        00000 
-1.59764e+01 -1.24113e+01        00000 
-2.78270e+01 -2.24658e+01        00000 
-1.03086e+01 -8.06602e+00        00000 
-1.80753e+01 -1.59685e+01        00000 
-5.89406e+00 -5.92496e+00        00000 
-1.08170e+01 -1.24301e+01        00000 
-1.92504e+00 -5.01756e+00        00000 
-4.50374e+00 -1.07473e+01        00000 
 1.92280e+00 -5.01698e+00        00000 
 1.49062e+00 -1.04316e+01        00000 
 5.89200e+00 -5.92339e+00        00000 
 7.58703e+00 -1.13969e+01        00000 
 1.03073e+01 -8.06387e+00        00000 
 1.42664e+01 -1.39137e+01        00000 
 1.59746e+01 -1.24088e+01        00000 
 2.24535e+01 -1.87452e+01        00000 
 2.78387e+01 -2.17265e+01        00000 
 3.50260e+01 -2.72761e+01        00000 
-5.10053e+01 -4.91288e+01        00000 
-6.42672e+01 -6.24662e+01        00000 
-3.41345e+01 -4.28455e+01        00000 
-4.44752e+01 -5.57763e+01        00000 
-1.96296e+01 -3.88105e+01        00000 
-2.71389e+01 -5.11954e+01        00000 
-6.41240e+00 -3.68732e+01        00000 
-1.13657e+01 -4.87084e+01        00000 
 6.40536e+00 -3.68724e+01        00000 
 3.76583e+00 -4.82172e+01        00000 
 1.96231e+01 -3.88081e+01        00000 
 1.91092e+01 -4.96948e+01        00000 
 3.41293e+01 -4.28417e+01        00000 
 3.55441e+01 -5.32152e+01        00000 
 5.10004e+01 -4.91242e+01        00000 
 5.40194e+01 -5.88604e+01        00000 
 7.08824e+01 -5.72736e+01        00000 
 7.52218e+01 -6.65787e+01        00000 
-8.15104e+01 -1.01002e+02        00000 
-9.56512e+01 -1.18159e+02        00000 
-5.61763e+01 -9.55040e+01        00000 
-6.77790e+01 -1.12400e+02        00000 
-3.28641e+01 -9.17865e+01        00000 
-4.20590e+01 -1.08388e+02        00000 
-1.08163e+01 -8.99185e+01        00000 
-1.77682e+01 -1.06145e+02        00000 
 1.08051e+01 -8.99180e+01        00000 
 5.89741e+00 -1.05695e+02        00000 
 3.28534e+01 -9.17849e+01        00000 
 2.97722e+01 -1.07043e+02        00000 
 5.61666e+01 -9.55012e+01        00000 
 5.46816e+01 -1.10174e+02        00000 
 8.15022e+01 -1.00998e+02        00000 
 8.13951e+01 -1.15056e+02        00000 
 1.09489e+02 -1.08083e+02        00000 
 1.10586e+02 -1.21728e+02        00000 
-1.07624e+02 -1.68668e+02        00000 
-1.22446e+02 -1.89208e+02        00000 
-7.49438e+01 -1.64043e+02        00000 
-8.75101e+01 -1.84385e+02        00000 
-4.41860e+01 -1.60931e+02        00000 
-5.46748e+01 -1.81049e+02        00000 
-1.46014e+01 -1.59367e+02        00000 
-2.31921e+01 -1.79190e+02        00000 
 1.45878e+01 -1.59367e+02        00000 
 7.70501e+00 -1.78817e+02        00000 
 4.41719e+01 -1.60931e+02        00000 
 3.87973e+01 -1.79934e+02        00000 
 7.49298e+01 -1.64044e+02        00000 
 7.08618e+01 -1.82533e+02        00000 
 1.07611e+02 -1.68669e+02        00000 
 1.04655e+02 -1.86608e+02        00000 
 1.42956e+02 -1.74679e+02        00000 
 1.40917e+02 -1.92218e+02        00000 
-1.29397e+02 -2.50023e+02        00000 