<?xml version="1.0" encoding="utf-8"?>
<VTKFile byte_order="LittleEndian" type="UnstructuredGrid" version="0.1">
   <UnstructuredGrid>
      <Piece NumberOfCells="1296" NumberOfPoints="685">
         <Points>
            <DataArray Name="Points" NumberOfComponents="3" format="ascii" type="Float32">
0.0000 0.0000 0.0000
0.0000 0.1111 0.0000
0.0000 0.2222 0.0000
0.0000 0.3333 0.0000
0.0000 0.4444 0.0000
0.0000 0.5556 0.0000
0.0000 0.6667 0.0000
0.0000 0.7778 0.0000
0.0000 0.8889 0.0000
0.0000 1.0000 0.0000
0.2222 0.0000 0.0000
0.2222 0.1111 0.0000
0.2222 0.2222 0.0000
0.2222 0.3333 0.0000
0.2222 0.4444 0.0000
0.2222 0.5556 0.0000
0.2222 0.6667 0.0000
0.2222 0.7778 0.0000
0.2222 0.8889 0.0000
0.2222 1.0000 0.0000
0.4444 0.0000 0.0000
0.4444 0.1111 0.0000
0.4444 0.2222 0.0000
0.4444 0.3333 0.0000
0.4444 0.4444 0.0000
0.4444 0.5556 0.0000
0.4444 0.6667 0.0000
0.4444 0.7778 0.0000
0.4444 0.8889 0.0000
0.4444 1.0000 0.0000
0.6667 0.0000 0.0000
0.6667 0.1111 0.0000
0.6667 0.2222 0.0000
0.6667 0.3333 0.0000
0.6667 0.4444 0.0000
0.6667 0.5556 0.0000
0.6667 0.6667 0.0000
0.6667 0.7778 0.0000
0.6667 0.8889 0.0000
0.6667 1.0000 0.0000
0.8889 0.0000 0.0000
0.8889 0.1111 0.0000
0.8889 0.2222 0.0000
0.8889 0.3333 0.0000
0.8889 0.4444 0.0000
0.8889 0.5556 0.0000
0.8889 0.6667 0.0000
0.8889 0.7778 0.0000
0.8889 0.8889 0.0000
0.8889 1.0000 0.0000
1.1111 0.0000 0.0000
1.1111 0.1111 0.0000
1.1111 0.2222 0.0000
1.1111 0.3333 0.0000
1.1111 0.4444 0.0000
1.1111 0.5556 0.0000
1.1111 0.6667 0.0000
1.1111 0.7778 0.0000
1.1111 0.8889 0.0000
1.1111 1.0000 0.0000
1.3333 0.0000 0.0000
1.3333 0.1111 0.0000
1.3333 0.2222 0.0000
1.3333 0.3333 0.0000
1.3333 0.4444 0.0000
1.3333 0.5556 0.0000
1.3333 0.6667 0.0000
1.3333 0.7778 0.0000
1.3333 0.8889 0.0000
1.3333 1.0000 0.0000
1.5556 0.0000 0.0000
1.5556 0.1111 0.0000
1.5556 0.2222 0.0000
1.5556 0.3333 0.0000
1.5556 0.4444 0.0000
1.5556 0.5556 0.0000
1.5556 0.6667 0.0000
1.5556 0.7778 0.0000
1.5556 0.8889 0.0000
1.5556 1.0000 0.0000
1.7778 0.0000 0.0000
1.7778 0.1111 0.0000
1.7778 0.2222 0.0000
1.7778 0.3333 0.0000
1.7778 0.4444 0.0000
1.7778 0.5556 0.0000
1.7778 0.6667 0.0000
1.7778 0.7778 0.0000
1.7778 0.8889 0.0000
1.7778 1.0000 0.0000
2.0000 0.0000 0.0000
2.0000 0.1111 0.0000
2.0000 0.2222 0.0000
2.0000 0.3333 0.0000
2.0000 0.4444 0.0000
2.0000 0.5556 0.0000
2.0000 0.6667 0.0000
2.0000 0.7778 0.0000
2.0000 0.8889 0.0000
2.0000 1.0000 0.0000
0.1111 0.0556 0.0000
0.1111 0.1667 0.0000
0.1111 0.2778 0.0000
0.1111 0.3889 0.0000
0.1111 0.5000 0.0000
0.1111 0.6111 0.0000
0.1111 0.7222 0.0000
0.1111 0.8333 0.0000
0.1111 0.9444 0.0000
0.3333 0.0556 0.0000
0.3333 0.1667 0.0000
0.3333 0.2778 0.0000
0.3333 0.3889 0.0000
0.3333 0.5000 0.0000
0.3333 0.6111 0.0000
0.3333 0.7222 0.0000
0.3333 0.8333 0.0000
0.3333 0.9444 0.0000
0.5556 0.0556 0.0000
0.5556 0.1667 0.0000
0.5556 0.2778 0.0000
0.5556 0.3889 0.0000
0.5556 0.5000 0.0000
0.5556 0.6111 0.0000
0.5556 0.7222 0.0000
0.5556 0.8333 0.0000
0.5556 0.9444 0.0000
0.7778 0.0556 0.0000
0.7778 0.1667 0.0000
0.7778 0.2778 0.0000
0.7778 0.3889 0.0000
0.7778 0.5000 0.0000
0.7778 0.6111 0.0000
0.7778 0.7222 0.0000
0.7778 0.8333 0.0000
0.7778 0.9444 0.0000
1.0000 0.0556 0.0000
1.0000 0.1667 0.0000
1.0000 0.2778 0.0000
1.0000 0.3889 0.0000
1.0000 0.5000 0.0000
1.0000 0.6111 0.0000
1.0000 0.7222 0.0000
1.0000 0.8333 0.0000
1.0000 0.9444 0.0000
1.2222 0.0556 0.0000
1.2222 0.1667 0.0000
1.2222 0.2778 0.0000
1.2222 0.3889 0.0000
1.2222 0.5000 0.0000
1.2222 0.6111 0.0000
1.2222 0.7222 0.0000
1.2222 0.8333 0.0000
1.2222 0.9444 0.0000
1.4444 0.0556 0.0000
1.4444 0.1667 0.0000
1.4444 0.2778 0.0000
1.4444 0.3889 0.0000
1.4444 0.5000 0.0000
1.4444 0.6111 0.0000
1.4444 0.7222 0.0000
1.4444 0.8333 0.0000
1.4444 0.9444 0.0000
1.6667 0.0556 0.0000
1.6667 0.1667 0.0000
1.6667 0.2778 0.0000
1.6667 0.3889 0.0000
1.6667 0.5000 0.0000
1.6667 0.6111 0.0000
1.6667 0.7222 0.0000
1.6667 0.8333 0.0000
1.6667 0.9444 0.0000
1.8889 0.0556 0.0000
1.8889 0.1667 0.0000
1.8889 0.2778 0.0000
1.8889 0.3889 0.0000
1.8889 0.5000 0.0000
1.8889 0.6111 0.0000
1.8889 0.7222 0.0000
1.8889 0.8333 0.0000
1.8889 0.9444 0.0000
0.0000 0.0556 0.0000
0.0556 0.0278 0.0000
0.0556 0.0833 0.0000
0.0000 0.1667 0.0000
0.0556 0.1389 0.0000
0.0556 0.1944 0.0000
0.0000 0.2778 0.0000
0.0556 0.2500 0.0000
0.0556 0.3056 0.0000
0.0000 0.3889 0.0000
0.0556 0.3611 0.0000
0.0556 0.4167 0.0000
0.0000 0.5000 0.0000
0.0556 0.4722 0.0000
0.0556 0.5278 0.0000
0.0000 0.6111 0.0000
0.0556 0.5833 0.0000
0.0556 0.6389 0.0000
0.0000 0.7222 0.0000
0.0556 0.6944 0.0000
0.0556 0.7500 0.0000
0.0000 0.8333 0.0000
0.0556 0.8056 0.0000
0.0556 0.8611 0.0000
0.0000 0.9444 0.0000
0.0556 0.9167 0.0000
0.0556 0.9722 0.0000
0.2222 0.0556 0.0000
0.2778 0.0278 0.0000
0.2778 0.0833 0.0000
0.2222 0.1667 0.0000
0.2778 0.1389 0.0000
0.2778 0.1944 0.0000
0.2222 0.2778 0.0000
0.2778 0.2500 0.0000
0.2778 0.3056 0.0000
0.2222 0.3889 0.0000
0.2778 0.3611 0.0000
0.2778 0.4167 0.0000
0.2222 0.5000 0.0000
0.2778 0.4722 0.0000
0.2778 0.5278 0.0000
0.2222 0.6111 0.0000
0.2778 0.5833 0.0000
0.2778 0.6389 0.0000
0.2222 0.7222 0.0000
0.2778 0.6944 0.0000
0.2778 0.7500 0.0000
0.2222 0.8333 0.0000
0.2778 0.8056 0.0000
0.2778 0.8611 0.0000
0.2222 0.9444 0.0000
0.2778 0.9167 0.0000
0.2778 0.9722 0.0000
0.4444 0.0556 0.0000
0.5000 0.0278 0.0000
0.5000 0.0833 0.0000
0.4444 0.1667 0.0000
0.5000 0.1389 0.0000
0.5000 0.1944 0.0000
0.4444 0.2778 0.0000
0.5000 0.2500 0.0000
0.5000 0.3056 0.0000
0.4444 0.3889 0.0000
0.5000 0.3611 0.0000
0.5000 0.4167 0.0000
0.4444 0.5000 0.0000
0.5000 0.4722 0.0000
0.5000 0.5278 0.0000
0.4444 0.6111 0.0000
0.5000 0.5833 0.0000
0.5000 0.6389 0.0000
0.4444 0.7222 0.0000
0.5000 0.6944 0.0000
0.5000 0.7500 0.0000
0.4444 0.8333 0.0000
0.5000 0.8056 0.0000
0.5000 0.8611 0.0000
0.4444 0.9444 0.0000
0.5000 0.9167 0.0000
0.5000 0.9722 0.0000
0.6667 0.0556 0.0000
0.7222 0.0278 0.0000
0.7222 0.0833 0.0000
0.6667 0.1667 0.0000
0.7222 0.1389 0.0000
0.7222 0.1944 0.0000
0.6667 0.2778 0.0000
0.7222 0.2500 0.0000
0.7222 0.3056 0.0000
0.6667 0.3889 0.0000
0.7222 0.3611 0.0000
0.7222 0.4167 0.0000
0.6667 0.5000 0.0000
0.7222 0.4722 0.0000
0.7222 0.5278 0.0000
0.6667 0.6111 0.0000
0.7222 0.5833 0.0000
0.7222 0.6389 0.0000
0.6667 0.7222 0.0000
0.7222 0.6944 0.0000
0.7222 0.7500 0.0000
0.6667 0.8333 0.0000
0.7222 0.8056 0.0000
0.7222 0.8611 0.0000
0.6667 0.9444 0.0000
0.7222 0.9167 0.0000
0.7222 0.9722 0.0000
0.8889 0.0556 0.0000
0.9444 0.0278 0.0000
0.9444 0.0833 0.0000
0.8889 0.1667 0.0000
0.9444 0.1389 0.0000
0.9444 0.1944 0.0000
0.8889 0.2778 0.0000
0.9444 0.2500 0.0000
0.9444 0.3056 0.0000
0.8889 0.3889 0.0000
0.9444 0.3611 0.0000
0.9444 0.4167 0.0000
0.8889 0.5000 0.0000
0.9444 0.4722 0.0000
0.9444 0.5278 0.0000
0.8889 0.6111 0.0000
0.9444 0.5833 0.0000
0.9444 0.6389 0.0000
0.8889 0.7222 0.0000
0.9444 0.6944 0.0000
0.9444 0.7500 0.0000
0.8889 0.8333 0.0000
0.9444 0.8056 0.0000
0.9444 0.8611 0.0000
0.8889 0.9444 0.0000
0.9444 0.9167 0.0000
0.9444 0.9722 0.0000
1.1111 0.0556 0.0000
1.1667 0.0278 0.0000
1.1667 0.0833 0.0000
1.1111 0.1667 0.0000
1.1667 0.1389 0.0000
1.1667 0.1944 0.0000
1.1111 0.2778 0.0000
1.1667 0.2500 0.0000
1.1667 0.3056 0.0000
1.1111 0.3889 0.0000
1.1667 0.3611 0.0000
1.1667 0.4167 0.0000
1.1111 0.5000 0.0000
1.1667 0.4722 0.0000
1.1667 0.5278 0.0000
1.1111 0.6111 0.0000
1.1667 0.5833 0.0000
1.1667 0.6389 0.0000
1.1111 0.7222 0.0000
1.1667 0.6944 0.0000
1.1667 0.7500 0.0000
1.1111 0.8333 0.0000
1.1667 0.8056 0.0000
1.1667 0.8611 0.0000
1.1111 0.9444 0.0000
1.1667 0.9167 0.0000
1.1667 0.9722 0.0000
1.3333 0.0556 0.0000
1.3889 0.0278 0.0000
1.3889 0.0833 0.0000
1.3333 0.1667 0.0000
1.3889 0.1389 0.0000
1.3889 0.1944 0.0000
1.3333 0.2778 0.0000
1.3889 0.2500 0.0000
1.3889 0.3056 0.0000
1.3333 0.3889 0.0000
1.3889 0.3611 0.0000
1.3889 0.4167 0.0000
1.3333 0.5000 0.0000
1.3889 0.4722 0.0000
1.3889 0.5278 0.0000
1.3333 0.6111 0.0000
1.3889 0.5833 0.0000
1.3889 0.6389 0.0000
1.3333 0.7222 0.0000
1.3889 0.6944 0.0000
1.3889 0.7500 0.0000
1.3333 0.8333 0.0000
1.3889 0.8056 0.0000
1.3889 0.8611 0.0000
1.3333 0.9444 0.0000
1.3889 0.9167 0.0000
1.3889 0.9722 0.0000
1.5556 0.0556 0.0000
1.6111 0.0278 0.0000
1.6111 0.0833 0.0000
1.5556 0.1667 0.0000
1.6111 0.1389 0.0000
1.6111 0.1944 0.0000
1.5556 0.2778 0.0000
1.6111 0.2500 0.0000
1.6111 0.3056 0.0000
1.5556 0.3889 0.0000
1.6111 0.3611 0.0000
1.6111 0.4167 0.0000
1.5556 0.5000 0.0000
1.6111 0.4722 0.0000
1.6111 0.5278 0.0000
1.5556 0.6111 0.0000
1.6111 0.5833 0.0000
1.6111 0.6389 0.0000
1.5556 0.7222 0.0000
1.6111 0.6944 0.0000
1.6111 0.7500 0.0000
1.5556 0.8333 0.0000
1.6111 0.8056 0.0000
1.6111 0.8611 0.0000
1.5556 0.9444 0.0000
1.6111 0.9167 0.0000
1.6111 0.9722 0.0000
1.7778 0.0556 0.0000
1.8333 0.0278 0.0000
1.8333 0.0833 0.0000
1.7778 0.1667 0.0000
1.8333 0.1389 0.0000
1.8333 0.1944 0.0000
1.7778 0.2778 0.0000
1.8333 0.2500 0.0000
1.8333 0.3056 0.0000
1.7778 0.3889 0.0000
1.8333 0.3611 0.0000
1.8333 0.4167 0.0000
1.7778 0.5000 0.0000
1.8333 0.4722 0.0000
1.8333 0.5278 0.0000
1.7778 0.6111 0.0000
1.8333 0.5833 0.0000
1.8333 0.6389 0.0000
1.7778 0.7222 0.0000
1.8333 0.6944 0.0000
1.8333 0.7500 0.0000
1.7778 0.8333 0.0000
1.8333 0.8056 0.0000
1.8333 0.8611 0.0000
1.7778 0.9444 0.0000
1.8333 0.9167 0.0000
1.8333 0.9722 0.0000
0.1111 0.1111 0.0000
0.1667 0.0833 0.0000
0.1111 0.2222 0.0000
0.1667 0.1944 0.0000
0.1111 0.3333 0.0000
0.1667 0.3056 0.0000
0.1111 0.4444 0.0000
0.1667 0.4167 0.0000
0.1111 0.5556 0.0000
0.1667 0.5278 0.0000
0.1111 0.6667 0.0000
0.1667 0.6389 0.0000
0.1111 0.7778 0.0000
0.1667 0.7500 0.0000
0.1111 0.8889 0.0000
0.1667 0.8611 0.0000
0.1111 1.0000 0.0000
0.1667 0.9722 0.0000
0.3333 0.1111 0.0000
0.3889 0.0833 0.0000
0.3333 0.2222 0.0000
0.3889 0.1944 0.0000
0.3333 0.3333 0.0000
0.3889 0.3056 0.0000
0.3333 0.4444 0.0000
0.3889 0.4167 0.0000
0.3333 0.5556 0.0000
0.3889 0.5278 0.0000
0.3333 0.6667 0.0000
0.3889 0.6389 0.0000
0.3333 0.7778 0.0000
0.3889 0.7500 0.0000
0.3333 0.8889 0.0000
0.3889 0.8611 0.0000
0.3333 1.0000 0.0000
0.3889 0.9722 0.0000
0.5556 0.1111 0.0000
[...]
         <PointData>
            <DataArray Name="fValues" NumberOfComponents="3" format="ascii" type="Float64">
-3.67130e-15 -2.44753e-15        00000 
-3.63150e-16  3.30136e-17        00000 
 2.08825e-15 -1.57169e-16        00000 
-9.20592e-16 -1.97270e-16        00000 
-1.20681e-16 -4.94587e-16        00000 
 2.63026e-16        00000        00000 
 1.09230e-15 -6.43623e-16        00000 
 1.24824e-15  9.85456e-17        00000 
 2.64172e-16 -1.05669e-15        00000 
       00000  6.11883e-16        00000 
-4.47416e+01 -3.34640e+01        00000 
-3.05475e+01 -2.56463e+01        00000 
-1.99755e+01 -2.01715e+01        00000 
-1.13691e+01 -1.70692e+01        00000 
-3.73467e+00 -1.56979e+01        00000 
 3.63054e+00 -1.57526e+01        00000 
 1.12026e+01 -1.72097e+01        00000 
 1.95267e+01 -2.03502e+01        00000 
 2.99368e+01 -2.57942e+01        00000 
 4.40171e+01 -3.35525e+01        00000 
-8.15315e+01 -7.13980e+01        00000 
-6.01554e+01 -6.45442e+01        00000 
-4.10058e+01 -5.92760e+01        00000 
-2.38272e+01 -5.57682e+01        00000 
-7.83285e+00 -5.40235e+01        00000 
 7.72873e+00 -5.40680e+01        00000 
 2.35396e+01 -5.58629e+01        00000 
 4.04561e+01 -5.94603e+01        00000 
 5.93203e+01 -6.47200e+01        00000 
 8.06237e+01 -7.15254e+01        00000 
-1.14145e+02 -1.23871e+02        00000 
-8.56546e+01 -1.18006e+02        00000 
-5.94127e+01 -1.13517e+02        00000 
-3.49299e+01 -1.10473e+02        00000 
-1.16515e+01 -1.08892e+02        00000 
 1.14108e+01 -1.08771e+02        00000 
 3.47441e+01 -1.10259e+02        00000 
 5.89960e+01 -1.13309e+02        00000 
 8.50607e+01 -1.17917e+02        00000 
 1.13483e+02 -1.23982e+02        00000 
-1.41894e+02 -1.90204e+02        00000 
-1.07251e+02 -1.85279e+02        00000 
-7.48898e+01 -1.81499e+02        00000 
-4.43070e+01 -1.78932e+02        00000 
-1.49002e+01 -1.77617e+02        00000 
 1.43863e+01 -1.77489e+02        00000 
 4.41091e+01 -1.78613e+02        00000 
 7.47800e+01 -1.81078e+02        00000 
 1.07141e+02 -1.84877e+02        00000 
 1.41891e+02 -1.89893e+02        00000 
-1.64955e+02 -2.67655e+02        00000 
-1.25077e+02 -2.63656e+02        00000 
-8.76585e+01 -2.60595e+02        00000 
-5.20133e+01 -2.58523e+02        00000 
-1.74199e+01 -2.57547e+02        00000 
 1.70073e+01 -2.57566e+02        00000 
 5.18889e+01 -2.58571e+02        00000 
 8.77236e+01 -2.60594e+02        00000 
 1.25308e+02 -2.63711e+02        00000 
 1.65332e+02 -2.67847e+02        00000 
-1.83507e+02 -3.55051e+02        00000 
-1.39443e+02 -3.51932e+02        00000 
-9.78578e+01 -3.49584e+02        00000 
-5.81180e+01 -3.48113e+02        00000 
-1.93019e+01 -3.47420e+02        00000 
 1.90477e+01 -3.47471e+02        00000 
 5.78667e+01 -3.48199e+02        00000 
 9.78149e+01 -3.49646e+02        00000 
 1.39571e+02 -3.51888e+02        00000 
 1.83818e+02 -3.54927e+02        00000 
-1.97399e+02 -4.49503e+02        00000 
-1.49978e+02 -4.47356e+02        00000 
-1.05152e+02 -4.45927e+02        00000 
-6.23683e+01 -4.45095e+02        00000 
-2.08357e+01 -4.44775e+02        00000 
 2.02572e+01 -4.44846e+02        00000 
 6.17728e+01 -4.45292e+02        00000 
 1.04695e+02 -4.46154e+02        00000 
 1.49640e+02 -4.47549e+02        00000 
 1.97079e+02 -4.49579e+02        00000 
-2.06889e+02 -5.49773e+02        00000 
-1.56593e+02 -5.48532e+02        00000 
-1.09347e+02 -5.47806e+02        00000 
-6.46848e+01 -5.47294e+02        00000 
-2.16359e+01 -5.47075e+02        00000 
 2.08259e+01 -5.47168e+02        00000 
 6.36930e+01 -5.47456e+02        00000 
 1.08203e+02 -5.47933e+02        00000 
 1.55471e+02 -5.48531e+02        00000 
 2.05683e+02 -5.49541e+02        00000 
-2.12548e+02 -6.59363e+02        00000 
-1.59336e+02 -6.56545e+02        00000 
-1.11363e+02 -6.53241e+02        00000 
-6.59604e+01 -6.50741e+02        00000 
-2.21176e+01 -6.49324e+02        00000 
 2.11908e+01 -6.49189e+02        00000 
 6.47732e+01 -6.50463e+02        00000 
 1.09937e+02 -6.52970e+02        00000 
 1.57877e+02 -6.56181e+02        00000 
 2.10885e+02 -6.58844e+02        00000 
-1.81453e+01 -1.42295e+01        00000 
-1.16353e+01 -8.57624e+00        00000 
-7.24080e+00 -5.87959e+00        00000 
-3.49862e+00 -4.64764e+00        00000 
 4.54082e-03 -4.31261e+00        00000 
 3.47674e+00 -4.71903e+00        00000 
 7.09210e+00 -6.07530e+00        00000 
 1.13489e+01 -8.75887e+00        00000 
 1.77932e+01 -1.42794e+01        00000 
-5.44382e+01 -4.68440e+01        00000 
-3.80351e+01 -4.03035e+01        00000 
-2.40165e+01 -3.57562e+01        00000 
-1.16198e+01 -3.31680e+01        00000 
-6.05893e-02 -3.23838e+01        00000 
 1.14754e+01 -3.32863e+01        00000 
 2.36139e+01 -3.59111e+01        00000 
 3.73597e+01 -4.04755e+01        00000 
 5.36008e+01 -4.69762e+01        00000 
-8.55848e+01 -9.24243e+01        00000 
-6.17485e+01 -8.67470e+01        00000 
-3.98914e+01 -8.26348e+01        00000 
-1.95921e+01 -8.01904e+01        00000 
-5.73931e-02 -7.93386e+01        00000 
 1.94315e+01 -8.01678e+01        00000 
 3.95703e+01 -8.26771e+01        00000 
 6.10621e+01 -8.68295e+01        00000 
 8.47703e+01 -9.25423e+01        00000 
-1.12459e+02 -1.52719e+02        00000 
-8.19632e+01 -1.47885e+02        00000 
-5.34612e+01 -1.44428e+02        00000 
-2.65332e+01 -1.42294e+02        00000 
-2.19989e-01 -1.41466e+02        00000 
 2.62472e+01 -1.41992e+02        00000 
 5.32967e+01 -1.44015e+02        00000 
 8.16496e+01 -1.47539e+02        00000 
 1.12141e+02 -1.52434e+02        00000 
-1.34944e+02 -2.25284e+02        00000 
-9.88339e+01 -2.21360e+02        00000 
-6.47922e+01 -2.18522e+02        00000 
-3.22445e+01 -2.16755e+02        00000 
-2.70962e-01 -2.16105e+02        00000 
 3.18778e+01 -2.16605e+02        00000 
 6.47092e+01 -2.18271e+02        00000 
 9.88868e+01 -2.21102e+02        00000 
 1.35116e+02 -2.25098e+02        00000 
-1.53423e+02 -3.08366e+02        00000 
-1.12630e+02 -3.05190e+02        00000 
-7.40084e+01 -3.02932e+02        00000 
-3.67285e+01 -3.01585e+02        00000 
-1.63721e-01 -3.01235e+02        00000 
 3.65326e+01 -3.01710e+02        00000 
 7.39925e+01 -3.03029e+02        00000 
 1.12789e+02 -3.05290e+02        00000 
 1.53737e+02 -3.08425e+02        00000 
-1.67734e+02 -4.00108e+02        00000 
-1.23283e+02 -3.97826e+02        00000 
-8.09944e+01 -3.96332e+02        00000 
-4.02340e+01 -3.95538e+02        00000 
-1.82911e-01 -3.95310e+02        00000 
 3.98235e+01 -3.95609e+02        00000 
 8.06704e+01 -3.96431e+02        00000 
 1.23120e+02 -3.97880e+02        00000 
 1.67730e+02 -4.00030e+02        00000 
-1.77925e+02 -4.98028e+02        00000 
-1.30410e+02 -4.96661e+02        00000 
-8.54774e+01 -4.95878e+02        00000 
-4.24334e+01 -4.95535e+02        00000 
-3.68931e-01 -4.95504e+02        00000 
 4.16615e+01 -4.95759e+02        00000 
 8.46480e+01 -4.96214e+02        00000 
 1.29657e+02 -4.96943e+02        00000 
 1.77147e+02 -4.98194e+02        00000 
-1.83606e+02 -6.01812e+02        00000 
-1.33804e+02 -6.00967e+02        00000 
-8.75713e+01 -5.99860e+02        00000 
-4.34018e+01 -5.99033e+02        00000 
-3.87048e-01 -5.98709e+02        00000 
 4.24247e+01 -5.98984e+02        00000 
 8.62778e+01 -5.99767e+02        00000 
 1.32451e+02 -6.00811e+02        00000 
 1.82225e+02 -6.01641e+02        00000 
-1.94880e-16 -5.27818e-16        00000 
-9.91819e+00 -7.45525e+00        00000 
-7.55086e+00 -5.20006e+00        00000 
 3.14916e-15  2.02460e-15        00000 
-6.08534e+00 -3.78977e+00        00000 
-4.95673e+00 -2.84242e+00        00000 
 4.99600e-16 -2.49800e-16        00000 
-3.95704e+00 -2.17694e+00        00000 
-2.99411e+00 -1.71336e+00        00000 
-2.29687e-16 -1.67369e-16        00000 
-2.11543e+00 -1.43251e+00        00000 
-1.26563e+00 -1.24625e+00        00000 
 1.24900e-16 -8.74301e-16        00000 
-4.32782e-01 -1.18997e+00        00000 
 4.10603e-01 -1.20541e+00        00000 
-4.94301e-16  1.07270e-16        00000 
 1.24822e+00 -1.31823e+00        00000 
 2.05756e+00 -1.50927e+00        00000 
 8.74301e-16 -9.99201e-16        00000 
 2.93463e+00 -1.83919e+00        00000 
 3.85085e+00 -2.30250e+00        00000 
       00000 -7.49401e-16        00000 
 4.82846e+00 -2.94662e+00        00000 
 5.94242e+00 -3.88715e+00        00000 
-2.13529e-15  4.53033e-16        00000 
 7.36781e+00 -5.26379e+00        00000 
 9.71952e+00 -7.46526e+00        00000 
-3.72586e+01 -2.94186e+01        00000 
-5.00861e+01 -3.98696e+01        00000 
-4.21140e+01 -3.59165e+01        00000 
-2.49195e+01 -2.25885e+01        00000 
-3.48789e+01 -3.24782e+01        00000 
-2.84076e+01 -2.96482e+01        00000 
-1.54984e+01 -1.83665e+01        00000 
-2.25337e+01 -2.74233e+01        00000 
-1.70836e+01 -2.57190e+01        00000 
-7.46056e+00 -1.61885e+01        00000 
-1.19828e+01 -2.45242e+01        00000 
-7.14318e+00 -2.37582e+01        00000 
-4.97334e-02 -1.55475e+01        00000 
-2.40731e+00 -2.33939e+01        00000 
 2.29385e+00 -2.34169e+01        00000 
 7.35850e+00 -1.62967e+01        00000 
 7.01957e+00 -2.38328e+01        00000 
 1.18395e+01 -2.46458e+01        00000 
 1.52112e+01 -1.85342e+01        00000 
 1.68181e+01 -2.58697e+01        00000 
 2.21008e+01 -2.75810e+01        00000 
 2.43706e+01 -2.27453e+01        00000 
 2.78484e+01 -2.98107e+01        00000 
 3.42109e+01 -3.26358e+01        00000 
 3.65377e+01 -2.95105e+01        00000 
 4.13445e+01 -3.60504e+01        00000 
 4.92546e+01 -3.99701e+01        00000 
-7.05616e+01 -6.78152e+01        00000 
-8.40754e+01 -8.15695e+01        00000 
-7.24903e+01 -7.81096e+01        00000 
-5.03260e+01 -6.16849e+01        00000 
-6.14657e+01 -7.51008e+01        00000 
-5.09417e+01 -7.25300e+01        00000 
-3.22225e+01 -5.73046e+01        00000 
-4.09591e+01 -7.03802e+01        00000 
-3.14093e+01 -6.86926e+01        00000 
-1.57338e+01 -5.46665e+01        00000 
-2.21935e+01 -6.74225e+01        00000 
-1.32418e+01 -6.65704e+01        00000 
-4.38728e-02 -5.38328e+01        00000 
-4.41248e+00 -6.61466e+01        00000 
 4.32345e+00 -6.61694e+01        00000 
 1.55323e+01 -5.47396e+01        00000 
 1.30908e+01 -6.65989e+01        00000 
 2.19755e+01 -6.74890e+01        00000 
 3.18071e+01 -5.74437e+01        00000 
 3.10847e+01 -6.87906e+01        00000 
 4.05022e+01 -7.05289e+01        00000 
 4.95937e+01 -6.18843e+01        00000 
 5.03357e+01 -7.26776e+01        00000 
 6.06800e+01 -7.52493e+01        00000 
 6.96401e+01 -6.79472e+01        00000 
 7.16115e+01 -7.82451e+01        00000 
 8.31842e+01 -8.17023e+01        00000 
-9.95755e+01 -1.20799e+02        00000 
-1.13753e+02 -1.38004e+02        00000 
-9.87203e+01 -1.35017e+02        00000 
-7.22849e+01 -1.15594e+02        00000 
-8.42365e+01 -1.32444e+02        00000 
-7.03261e+01 -1.30271e+02        00000 
-4.69827e+01 -1.11802e+02        00000 
-5.68680e+01 -1.28471e+02        00000 
-4.38290e+01 -1.27035e+02        00000 
-2.31945e+01 -1.09496e+02        00000 
-3.11396e+01 -1.25915e+02        00000 
-1.86941e+01 -1.25135e+02        00000 
-1.32377e-01 -1.08645e+02        00000 
-6.33541e+00 -1.24686e+02        00000 
 6.02692e+00 -1.24624e+02        00000 
 2.29957e+01 -1.09333e+02        00000 
 1.84301e+01 -1.24948e+02        00000 
 3.09304e+01 -1.25632e+02        00000 
 4.67153e+01 -1.11596e+02        00000 
 4.36263e+01 -1.26693e+02        00000 
 5.65824e+01 -1.28156e+02        00000 
 7.17523e+01 -1.15416e+02        00000 
 6.99509e+01 -1.29966e+02        00000 
 8.38363e+01 -1.32205e+02        00000 
 9.89515e+01 -1.20772e+02        00000 
 9.82434e+01 -1.34843e+02        00000 
 1.13279e+02 -1.37894e+02        00000 
-1.24220e+02 -1.87639e+02        00000 
-1.38803e+02 -2.07507e+02        00000 
-1.20797e+02 -2.05021e+02        00000 
-9.08316e+01 -1.83239e+02        00000 
-1.03425e+02 -2.02896e+02        00000 
-8.65633e+01 -2.01110e+02        00000 
-5.93924e+01 -1.80046e+02        00000 
-7.01816e+01 -1.99619e+02        00000 
-5.42271e+01 -1.98405e+02        00000 
-2.95297e+01 -1.78107e+02        00000 
-3.86205e+01 -1.97459e+02        00000 
-2.32450e+01 -1.96813e+02        00000 
-2.83703e-01 -1.77403e+02        00000 
-7.93139e+00 -1.96458e+02        00000 
 7.36474e+00 -1.96415e+02        00000 
 2.91771e+01 -1.77916e+02        00000 
 2.27768e+01 -1.96679e+02        00000 
 3.83478e+01 -1.97217e+02        00000 
 5.92723e+01 -1.79676e+02        00000 
 5.40796e+01 -1.98085e+02        00000 
 7.01110e+01 -1.99252e+02        00000 
 9.07259e+01 -1.82809e+02        00000 
 8.65458e+01 -2.00729e+02        00000 
 1.03414e+02 -2.02547e+02        00000 
 1.24164e+02 -1.87237e+02        00000 
 1.20825e+02 -2.04699e+02        00000 
 1.38906e+02 -2.07196e+02        00000 
-1.44675e+02 -2.65559e+02        00000 
-1.59528e+02 -2.87780e+02        00000 
-1.39009e+02 -2.85782e+02        00000 
-1.06104e+02 -2.62017e+02        00000 
-1.19136e+02 -2.84061e+02        00000 
-9.98895e+01 -2.82603e+02        00000 
-6.96734e+01 -2.59448e+02        00000 
-8.11502e+01 -2.81396e+02        00000 
-6.27785e+01 -2.80394e+02        00000 
-3.46258e+01 -2.57895e+02        00000 
-4.46714e+01 -2.79684e+02        00000 
-2.68061e+01 -2.79238e+02        00000 
-2.45097e-01 -2.57461e+02        00000 
-9.03743e+00 -2.79007e+02        00000 
 8.68829e+00 -2.79048e+02        00000 
 3.43702e+01 -2.57950e+02        00000 
 2.65143e+01 -2.79317e+02        00000 
 4.44700e+01 -2.79797e+02        00000 
 6.96363e+01 -2.59461e+02        00000 
 6.26777e+01 -2.80501e+02        00000 
 8.11671e+01 -2.81455e+02        00000 
 1.06232e+02 -2.62025e+02        00000 
 1.00037e+02 -2.82661e+02        00000 
 1.19384e+02 -2.84132e+02        00000 
 1.44972e+02 -2.65662e+02        00000 
 1.39308e+02 -2.85864e+02        00000 
 1.59889e+02 -2.87887e+02        00000 
-1.61081e+02 -3.53405e+02        00000 
-1.75836e+02 -3.77385e+02        00000 
-1.53384e+02 -3.75872e+02        00000 
-1.18397e+02 -3.50648e+02        00000 
-1.31626e+02 -3.74603e+02        00000 
-1.10399e+02 -3.73554e+02        00000 
-7.77947e+01 -3.48741e+02        00000 
-8.96714e+01 -3.72703e+02        00000 
-6.93735e+01 -3.72058e+02        00000 
-3.86104e+01 -3.47674e+02        00000 
-4.93922e+01 -3.71599e+02        00000 
-2.95805e+01 -3.71278e+02        00000 
-1.18338e-01 -3.47359e+02        00000 
-9.93799e+00 -3.71139e+02        00000 
 9.63578e+00 -3.71153e+02        00000 
 3.83657e+01 -3.47747e+02        00000 
 2.92668e+01 -3.71336e+02        00000 
 4.90549e+01 -3.71675e+02        00000 
 7.76487e+01 -3.48827e+02        00000 
 6.90983e+01 -3.72132e+02        00000 
 8.95001e+01 -3.72767e+02        00000 
 1.18440e+02 -3.50651e+02        00000 
 1.10311e+02 -3.73592e+02        00000 
 1.31628e+02 -3.74603e+02        00000 
 1.61369e+02 -3.53303e+02        00000 
 1.53504e+02 -3.75829e+02        00000 
 1.76080e+02 -3.77255e+02        00000 
-1.73345e+02 -4.48340e+02        00000 
-1.87891e+02 -4.73602e+02        00000 
-1.63804e+02 -4.72565e+02        00000 
-1.27260e+02 -4.46553e+02        00000 
-1.40405e+02 -4.71752e+02        00000 
-1.17633e+02 -4.71132e+02        00000 
-8.35392e+01 -4.45435e+02        00000 
-9.54743e+01 -4.70675e+02        00000 
-7.38193e+01 -4.70343e+02        00000 
-4.15018e+01 -4.44880e+02        00000 
-5.25310e+01 -4.70128e+02        00000 
-3.15332e+01 -4.70005e+02        00000 
-2.83464e-01 -4.44749e+02        00000 
-1.07064e+01 -4.69972e+02        00000 
 1.00554e+01 -4.70017e+02        00000 
 4.08987e+01 -4.45021e+02        00000 
 3.08630e+01 -4.70159e+02        00000 
 5.18577e+01 -4.70346e+02        00000 
 8.29798e+01 -4.45666e+02        00000 
 7.31399e+01 -4.70640e+02        00000 
 9.48258e+01 -4.71020e+02        00000 
 1.26887e+02 -4.46781e+02        00000 
 1.17068e+02 -4.71458e+02        00000 
 1.39866e+02 -4.72038e+02        00000 
 1.72999e+02 -4.48473e+02        00000 
 1.63274e+02 -4.72813e+02        00000 
 1.87309e+02 -4.73726e+02        00000 
-1.81414e+02 -5.49067e+02        00000 
-1.95651e+02 -5.75471e+02        00000 
-1.69986e+02 -5.74976e+02        00000 
-1.32597e+02 -5.48138e+02        00000 
-1.45290e+02 -5.74574e+02        00000 
-1.21510e+02 -5.74207e+02        00000 
-8.67288e+01 -5.47522e+02        00000 
-9.84718e+01 -5.73838e+02        00000 
-7.60299e+01 -5.73487e+02        00000 
-4.30109e+01 -5.47120e+02        00000 
-5.40723e+01 -5.73213e+02        00000 
-3.24406e+01 -5.73036e+02        00000 
-3.96796e-01 -5.47085e+02        00000 
-1.10343e+01 -5.72959e+02        00000 
 1.02710e+01 -5.72988e+02        00000 
 4.21291e+01 -5.47285e+02        00000 
 3.15816e+01 -5.73093e+02        00000 
 5.30572e+01 -5.73264e+02        00000 
 8.56670e+01 -5.47672e+02        00000 
 7.48734e+01 -5.73518e+02        00000 
 9.72411e+01 -5.73826e+02        00000 
 1.31459e+02 -5.48194e+02        00000 
 1.20235e+02 -5.74147e+02        00000 
 1.44030e+02 -5.74487e+02        00000 
 1.80266e+02 -5.48927e+02        00000 
 1.68714e+02 -5.74826e+02        00000 
 1.94337e+02 -5.75285e+02        00000 
-1.43957e+01 -1.08769e+01        00000 
-2.50298e+01 -1.97595e+01        00000 
-9.34694e+00 -7.00883e+00        00000 
-1.63292e+01 -1.39701e+01        00000 
-5.29927e+00 -5.12209e+00        00000 
-9.75884e+00 -1.08682e+01        00000 
-1.74465e+00 -4.38845e+00        00000 
-4.07592e+00 -9.45179e+00        00000 
 1.71409e+00 -4.43452e+00        00000 
 1.32075e+00 -9.20639e+00        00000 
 5.23579e+00 -5.26669e+00        00000 
 6.76129e+00 -1.01032e+01        00000 
 9.09521e+00 -7.19208e+00        00000 
 1.26057e+01 -1.23667e+01        00000 
 1.40760e+01 -1.09960e+01        00000 
 1.97923e+01 -1.66096e+01        00000 
 2.45337e+01 -1.91691e+01        00000 
 3.08644e+01 -2.41072e+01        00000 
-4.59192e+01 -4.33506e+01        00000 
-5.78126e+01 -5.52052e+01        00000 
-3.07759e+01 -3.77761e+01        00000 
-4.00620e+01 -4.92365e+01        00000 
-1.76446e+01 -3.42242e+01        00000 
-2.44239e+01 -4.51979e+01        00000 
-5.79693e+00 -3.25686e+01        00000 
-1.02300e+01 -4.30032e+01        00000 
 5.68556e+00 -3.26329e+01        00000 
 3.32598e+00 -4.26205e+01        00000 
 1.74078e+01 -3.43610e+01        00000 
 1.69754e+01 -4.40021e+01        00000 
 3.02188e+01 -3.79537e+01        00000 
 3.15197e+01 -4.71711e+01        00000 
 4.51419e+01 -4.35047e+01        00000 
 4.78942e+01 -5.21714e+01        00000 
 6.27272e+01 -5.07753e+01        00000 
 6.66856e+01 -5.90416e+01        00000 
-7.34142e+01 -8.94066e+01        00000 
-8.61125e+01 -1.04743e+02        00000 
-5.05973e+01 -8.44967e+01        00000 
-6.10523e+01 -9.96126e+01        00000 
-2.95791e+01 -8.12159e+01        00000 
-3.78541e+01 -9.60590e+01        00000 
-9.78439e+00 -7.95671e+01        00000 
-1.60683e+01 -9.40639e+01        00000 
 9.63302e+00 -7.95433e+01        00000 
 5.21085e+00 -9.35764e+01        00000 
 2.93547e+01 -8.12222e+01        00000 
 2.66566e+01 -9.47320e+01        00000 
 5.00873e+01 -8.45632e+01        00000 
 4.88732e+01 -9.75520e+01        00000 
 7.26051e+01 -8.95020e+01        00000 
 7.26522e+01 -1.01941e+02        00000 
 9.75711e+01 -9.59037e+01        00000 
 9.87297e+01 -1.08028e+02        00000 
-9.69388e+01 -1.50146e+02        00000 
-1.10274e+02 -1.68635e+02        00000 
-6.75018e+01 -1.45988e+02        00000 
-7.88302e+01 -1.64276e+02        00000 
-3.98467e+01 -1.43196e+02        00000 
-4.92596e+01 -1.61275e+02        00000 
-1.33590e+01 -1.41707e+02        00000 
-2.11014e+01 -1.59560e+02        00000 
 1.29689e+01 -1.41539e+02        00000 
 6.68653e+00 -1.59073e+02        00000 
 3.96680e+01 -1.42810e+02        00000 
 3.48363e+01 -1.59905e+02        00000 
 6.72419e+01 -1.45584e+02        00000 
 6.36801e+01 -1.62167e+02        00000 
 9.66053e+01 -1.49814e+02        00000 
 9.40842e+01 -1.65855e+02        00000 
 1.28311e+02 -1.55335e+02        00000 
 1.26712e+02 -1.70982e+02        00000 
-1.16592e+02 -2.23170e+02        00000 