<?xml version="1.0" encoding="utf-8"?>
<VTKFile byte_order="LittleEndian" type="UnstructuredGrid" version="0.1">
   <UnstructuredGrid>
      <Piece NumberOfCells="1296" NumberOfPoints="685">
         <Points>
            <DataArray Name="Points" NumberOfComponents="3" format="ascii" type="Float32">
0.0000 0.0000 0.0000
0.0000 0.1111 0.0000
0.0000 0.2222 0.0000
0.0000 0.3333 0.0000
0.0000 0.4444 0.0000
0.0000 0.5556 0.0000
0.0000 0.6667 0.0000
0.0000 0.7778 0.0000
0.0000 0.8889 0.0000
0.0000 1.0000 0.0000
0.2222 0.0000 0.0000
0.2222 0.1111 0.0000
0.2222 0.2222 0.0000
0.2222 0.3333 0.0000
0.2222 0.4444 0.0000
0.2222 0.5556 0.0000
0.2222 0.6667 0.0000
0.2222 0.7778 0.0000
0.2222 0.8889 0.0000
0.2222 1.0000 0.0000
0.4444 0.0000 0.0000
0.4444 0.1111 0.0000
0.4444 0.2222 0.0000
0.4444 0.3333 0.0000
0.4444 0.4444 0.0000
0.4444 0.5556 0.0000
0.4444 0.6667 0.0000
0.4444 0.7778 0.0000
0.4444 0.8889 0.0000
0.4444 1.0000 0.0000
0.6667 0.0000 0.0000
0.6667 0.1111 0.0000
0.6667 0.2222 0.0000
0.6667 0.3333 0.0000
0.6667 0.4444 0.0000
0.6667 0.5556 0.0000
0.6667 0.6667 0.0000
0.6667 0.7778 0.0000
0.6667 0.8889 0.0000
0.6667 1.0000 0.0000
0.8889 0.0000 0.0000
0.8889 0.1111 0.0000
0.8889 0.2222 0.0000
0.8889 0.3333 0.0000
0.8889 0.4444 0.0000
0.8889 0.5556 0.0000
0.8889 0.6667 0.0000
0.8889 0.7778 0.0000
0.8889 0.8889 0.0000
0.8889 1.0000 0.0000
1.1111 0.0000 0.0000
1.1111 0.1111 0.0000
1.1111 0.2222 0.0000
1.1111 0.3333 0.0000
1.1111 0.4444 0.0000
1.1111 0.5556 0.0000
1.1111 0.6667 0.0000
1.1111 0.7778 0.0000
1.1111 0.8889 0.0000
1.1111 1.0000 0.0000
1.3333 0.0000 0.0000
1.3333 0.1111 0.0000
1.3333 0.2222 0.0000
1.3333 0.3333 0.0000
1.3333 0.4444 0.0000
1.3333 0.5556 0.0000
1.3333 0.6667 0.0000
1.3333 0.7778 0.0000
1.3333 0.8889 0.0000
1.3333 1.0000 0.0000
1.5556 0.0000 0.0000
1.5556 0.1111 0.0000
1.5556 0.2222 0.0000
1.5556 0.3333 0.0000
1.5556 0.4444 0.0000
1.5556 0.5556 0.0000
1.5556 0.6667 0.0000
1.5556 0.7778 0.0000
1.5556 0.8889 0.0000
1.5556 1.0000 0.0000
1.7778 0.0000 0.0000
1.7778 0.1111 0.0000
1.7778 0.2222 0.0000
1.7778 0.3333 0.0000
1.7778 0.4444 0.0000
1.7778 0.5556 0.0000
1.7778 0.6667 0.0000
1.7778 0.7778 0.0000
1.7778 0.8889 0.0000
1.7778 1.0000 0.0000
2.0000 0.0000 0.0000
2.0000 0.1111 0.0000
2.0000 0.2222 0.0000
2.0000 0.3333 0.0000
2.0000 0.4444 0.0000
2.0000 0.5556 0.0000
2.0000 0.6667 0.0000
2.0000 0.7778 0.0000
2.0000 0.8889 0.0000
2.0000 1.0000 0.0000
0.1111 0.0556 0.0000
0.1111 0.1667 0.0000
0.1111 0.2778 0.0000
0.1111 0.3889 0.0000
0.1111 0.5000 0.0000
0.1111 0.6111 0.0000
0.1111 0.7222 0.0000
0.1111 0.8333 0.0000
0.1111 0.9444 0.0000
0.3333 0.0556 0.0000
0.3333 0.1667 0.0000
0.3333 0.2778 0.0000
0.3333 0.3889 0.0000
0.3333 0.5000 0.0000
0.3333 0.6111 0.0000
0.3333 0.7222 0.0000
0.3333 0.8333 0.0000
0.3333 0.9444 0.0000
0.5556 0.0556 0.0000
0.5556 0.1667 0.0000
0.5556 0.2778 0.0000
0.5556 0.3889 0.0000
0.5556 0.5000 0.0000
0.5556 0.6111 0.0000
0.5556 0.7222 0.0000
0.5556 0.8333 0.0000
0.5556 0.9444 0.0000
0.7778 0.0556 0.0000
0.7778 0.1667 0.0000
0.7778 0.2778 0.0000
0.7778 0.3889 0.0000
0.7778 0.5000 0.0000
0.7778 0.6111 0.0000
0.7778 0.7222 0.0000
0.7778 0.8333 0.0000
0.7778 0.9444 0.0000
1.0000 0.0556 0.0000
1.0000 0.1667 0.0000
1.0000 0.2778 0.0000
1.0000 0.3889 0.0000
1.0000 0.5000 0.0000
1.0000 0.6111 0.0000
1.0000 0.7222 0.0000
1.0000 0.8333 0.0000
1.0000 0.9444 0.0000
1.2222 0.0556 0.0000
1.2222 0.1667 0.0000
1.2222 0.2778 0.0000
1.2222 0.3889 0.0000
1.2222 0.5000 0.0000
1.2222 0.6111 0.0000
1.2222 0.7222 0.0000
1.2222 0.8333 0.0000
1.2222 0.9444 0.0000
1.4444 0.0556 0.0000
1.4444 0.1667 0.0000
1.4444 0.2778 0.0000
1.4444 0.3889 0.0000
1.4444 0.5000 0.0000
1.4444 0.6111 0.0000
1.4444 0.7222 0.0000
1.4444 0.8333 0.0000
1.4444 0.9444 0.0000
1.6667 0.0556 0.0000
1.6667 0.1667 0.0000
1.6667 0.2778 0.0000
1.6667 0.3889 0.0000
1.6667 0.5000 0.0000
1.6667 0.6111 0.0000
1.6667 0.7222 0.0000
1.6667 0.8333 0.0000
1.6667 0.9444 0.0000
1.8889 0.0556 0.0000
1.8889 0.1667 0.0000
1.8889 0.2778 0.0000
1.8889 0.3889 0.0000
1.8889 0.5000 0.0000
1.8889 0.6111 0.0000
1.8889 0.7222 0.0000
1.8889 0.8333 0.0000
1.8889 0.9444 0.0000
0.0000 0.0556 0.0000
0.0556 0.0278 0.0000
0.0556 0.0833 0.0000
0.0000 0.1667 0.0000
0.0556 0.1389 0.0000
0.0556 0.1944 0.0000
0.0000 0.2778 0.0000
0.0556 0.2500 0.0000
0.0556 0.3056 0.0000
0.0000 0.3889 0.0000
0.0556 0.3611 0.0000
0.0556 0.4167 0.0000
0.0000 0.5000 0.0000
0.0556 0.4722 0.0000
0.0556 0.5278 0.0000
0.0000 0.6111 0.0000
0.0556 0.5833 0.0000
0.0556 0.6389 0.0000
0.0000 0.7222 0.0000
0.0556 0.6944 0.0000
0.0556 0.7500 0.0000
0.0000 0.8333 0.0000
0.0556 0.8056 0.0000
0.0556 0.8611 0.0000
0.0000 0.9444 0.0000
0.0556 0.9167 0.0000
0.0556 0.9722 0.0000
0.2222 0.0556 0.0000
0.2778 0.0278 0.0000
0.2778 0.0833 0.0000
0.2222 0.1667 0.0000
0.2778 0.1389 0.0000
0.2778 0.1944 0.0000
0.2222 0.2778 0.0000
0.2778 0.2500 0.0000
0.2778 0.3056 0.0000
0.2222 0.3889 0.0000
0.2778 0.3611 0.0000
0.2778 0.4167 0.0000
0.2222 0.5000 0.0000
0.2778 0.4722 0.0000
0.2778 0.5278 0.0000
0.2222 0.6111 0.0000
0.2778 0.5833 0.0000
0.2778 0.6389 0.0000
0.2222 0.7222 0.0000
0.2778 0.6944 0.0000
0.2778 0.7500 0.0000
0.2222 0.8333 0.0000
0.2778 0.8056 0.0000
0.2778 0.8611 0.0000
0.2222 0.9444 0.0000
0.2778 0.9167 0.0000
0.2778 0.9722 0.0000
0.4444 0.0556 0.0000
0.5000 0.0278 0.0000
0.5000 0.0833 0.0000
0.4444 0.1667 0.0000
0.5000 0.1389 0.0000
0.5000 0.1944 0.0000
0.4444 0.2778 0.0000
0.5000 0.2500 0.0000
0.5000 0.3056 0.0000
0.4444 0.3889 0.0000
0.5000 0.3611 0.0000
0.5000 0.4167 0.0000
0.4444 0.5000 0.0000
0.5000 0.4722 0.0000
0.5000 0.5278 0.0000
0.4444 0.6111 0.0000
0.5000 0.5833 0.0000
0.5000 0.6389 0.0000
0.4444 0.7222 0.0000
0.5000 0.6944 0.0000
0.5000 0.7500 0.0000
0.4444 0.8333 0.0000
0.5000 0.8056 0.0000
0.5000 0.8611 0.0000
0.4444 0.9444 0.0000
0.5000 0.9167 0.0000
0.5000 0.9722 0.0000
0.6667 0.0556 0.0000
0.7222 0.0278 0.0000
0.7222 0.0833 0.0000
0.6667 0.1667 0.0000
0.7222 0.1389 0.0000
0.7222 0.1944 0.0000
0.6667 0.2778 0.0000
0.7222 0.2500 0.0000
0.7222 0.3056 0.0000
0.6667 0.3889 0.0000
0.7222 0.3611 0.0000
0.7222 0.4167 0.0000
0.6667 0.5000 0.0000
0.7222 0.4722 0.0000
0.7222 0.5278 0.0000
0.6667 0.6111 0.0000
0.7222 0.5833 0.0000
0.7222 0.6389 0.0000
0.6667 0.7222 0.0000
0.7222 0.6944 0.0000
0.7222 0.7500 0.0000
0.6667 0.8333 0.0000
0.7222 0.8056 0.0000
0.7222 0.8611 0.0000
0.6667 0.9444 0.0000
0.7222 0.9167 0.0000
0.7222 0.9722 0.0000
0.8889 0.0556 0.0000
0.9444 0.0278 0.0000
0.9444 0.0833 0.0000
0.8889 0.1667 0.0000
0.9444 0.1389 0.0000
0.9444 0.1944 0.0000
0.8889 0.2778 0.0000
0.9444 0.2500 0.0000
0.9444 0.3056 0.0000
0.8889 0.3889 0.0000
0.9444 0.3611 0.0000
0.9444 0.4167 0.0000
0.8889 0.5000 0.0000
0.9444 0.4722 0.0000
0.9444 0.5278 0.0000
0.8889 0.6111 0.0000
0.9444 0.5833 0.0000
0.9444 0.6389 0.0000
0.8889 0.7222 0.0000
0.9444 0.6944 0.0000
0.9444 0.7500 0.0000
0.8889 0.8333 0.0000
0.9444 0.8056 0.0000
0.9444 0.8611 0.0000
0.8889 0.9444 0.0000
0.9444 0.9167 0.0000
0.9444 0.9722 0.0000
1.1111 0.0556 0.0000
1.1667 0.0278 0.0000
1.1667 0.0833 0.0000
1.1111 0.1667 0.0000
1.1667 0.1389 0.0000
1.1667 0.1944 0.0000
1.1111 0.2778 0.0000
1.1667 0.2500 0.0000
1.1667 0.3056 0.0000
1.1111 0.3889 0.0000
1.1667 0.3611 0.0000
1.1667 0.4167 0.0000
1.1111 0.5000 0.0000
1.1667 0.4722 0.0000
1.1667 0.5278 0.0000
1.1111 0.6111 0.0000
1.1667 0.5833 0.0000
1.1667 0.6389 0.0000
1.1111 0.7222 0.0000
1.1667 0.6944 0.0000
1.1667 0.7500 0.0000
1.1111 0.8333 0.0000
1.1667 0.8056 0.0000
1.1667 0.8611 0.0000
1.1111 0.9444 0.0000
1.1667 0.9167 0.0000
1.1667 0.9722 0.0000
1.3333 0.0556 0.0000
1.3889 0.0278 0.0000
1.3889 0.0833 0.0000
1.3333 0.1667 0.0000
1.3889 0.1389 0.0000
1.3889 0.1944 0.0000
1.3333 0.2778 0.0000
1.3889 0.2500 0.0000
1.3889 0.3056 0.0000
1.3333 0.3889 0.0000
1.3889 0.3611 0.0000
1.3889 0.4167 0.0000
1.3333 0.5000 0.0000
1.3889 0.4722 0.0000
1.3889 0.5278 0.0000
1.3333 0.6111 0.0000
1.3889 0.5833 0.0000
1.3889 0.6389 0.0000
1.3333 0.7222 0.0000
1.3889 0.6944 0.0000
1.3889 0.7500 0.0000
1.3333 0.8333 0.0000
1.3889 0.8056 0.0000
1.3889 0.8611 0.0000
1.3333 0.9444 0.0000
1.3889 0.9167 0.0000
1.3889 0.9722 0.0000
1.5556 0.0556 0.0000
1.6111 0.0278 0.0000
1.6111 0.0833 0.0000
1.5556 0.1667 0.0000
1.6111 0.1389 0.0000
1.6111 0.1944 0.0000
1.5556 0.2778 0.0000
1.6111 0.2500 0.0000
1.6111 0.3056 0.0000
1.5556 0.3889 0.0000
1.6111 0.3611 0.0000
1.6111 0.4167 0.0000
1.5556 0.5000 0.0000
1.6111 0.4722 0.0000
1.6111 0.5278 0.0000
1.5556 0.6111 0.0000
1.6111 0.5833 0.0000
1.6111 0.6389 0.0000
1.5556 0.7222 0.0000
1.6111 0.6944 0.0000
1.6111 0.7500 0.0000
1.5556 0.8333 0.0000
1.6111 0.8056 0.0000
1.6111 0.8611 0.0000
1.5556 0.9444 0.0000
1.6111 0.9167 0.0000
1.6111 0.9722 0.0000
1.7778 0.0556 0.0000
1.8333 0.0278 0.0000
1.8333 0.0833 0.0000
1.7778 0.1667 0.0000
1.8333 0.1389 0.0000
1.8333 0.1944 0.0000
1.7778 0.2778 0.0000
1.8333 0.2500 0.0000
1.8333 0.3056 0.0000
1.7778 0.3889 0.0000
1.8333 0.3611 0.0000
1.8333 0.4167 0.0000
1.7778 0.5000 0.0000
1.8333 0.4722 0.0000
1.8333 0.5278 0.0000
1.7778 0.6111 0.0000
1.8333 0.5833 0.0000
1.8333 0.6389 0.0000
1.7778 0.7222 0.0000
1.8333 0.6944 0.0000
1.8333 0.7500 0.0000
1.7778 0.8333 0.0000
1.8333 0.8056 0.0000
1.8333 0.8611 0.0000
1.7778 0.9444 0.0000
1.8333 0.9167 0.0000
1.8333 0.9722 0.0000
0.1111 0.1111 0.0000
0.1667 0.0833 0.0000
0.1111 0.2222 0.0000
0.1667 0.1944 0.0000
0.1111 0.3333 0.0000
0.1667 0.3056 0.0000
0.1111 0.4444 0.0000
0.1667 0.4167 0.0000
0.1111 0.5556 0.0000
0.1667 0.5278 0.0000
0.1111 0.6667 0.0000
0.1667 0.6389 0.0000
0.1111 0.7778 0.0000
0.1667 0.7500 0.0000
0.1111 0.8889 0.0000
0.1667 0.8611 0.0000
0.1111 1.0000 0.0000
0.1667 0.9722 0.0000
0.3333 0.1111 0.0000
0.3889 0.0833 0.0000
0.3333 0.2222 0.0000
0.3889 0.1944 0.0000
0.3333 0.3333 0.0000
0.3889 0.3056 0.0000
0.3333 0.4444 0.0000
0.3889 0.4167 0.0000
0.3333 0.5556 0.0000
0.3889 0.5278 0.0000
0.3333 0.6667 0.0000
0.3889 0.6389 0.0000
0.3333 0.7778 0.0000
0.3889 0.7500 0.0000
0.3333 0.8889 0.0000
0.3889 0.8611 0.0000
0.3333 1.0000 0.0000
0.3889 0.9722 0.0000
0.5556 0.1111 0.0000
[...]
         <PointData>
            <DataArray Name="fValues" NumberOfComponents="3" format="ascii" type="Float64">
-2.44753e-15  3.05941e-16        00000 
 4.12671e-16  4.78698e-16        00000 
-1.11522e-15 -1.90498e-16        00000 
-2.95904e-16  1.64391e-17        00000 
-1.30545e-16 -6.39508e-17        00000 
       00000 -9.04152e-17        00000 
 1.32025e-16 -7.83899e-17        00000 
 7.55516e-16 -4.10607e-17        00000 
-2.11338e-15 -3.96259e-16        00000 
 6.11883e-16 -9.17824e-16        00000 
-2.52933e+01 -1.79802e+01        00000 
-1.75590e+01 -1.34721e+01        00000 
-1.14036e+01 -1.02405e+01        00000 
-6.50912e+00 -8.17529e+00        00000 
-2.11417e+00 -7.16319e+00        00000 
 2.06038e+00 -6.84156e+00        00000 
 6.50445e+00 -7.54859e+00        00000 
 1.14442e+01 -9.36734e+00        00000 
 1.73375e+01 -1.25469e+01        00000 
 2.48165e+01 -1.69156e+01        00000 
-4.66269e+01 -3.82744e+01        00000 
-3.49123e+01 -3.42247e+01        00000 
-2.43651e+01 -3.09645e+01        00000 
-1.45710e+01 -2.87292e+01        00000 
-5.13612e+00 -2.74968e+01        00000 
 3.96960e+00 -2.73009e+01        00000 
 1.32607e+01 -2.82124e+01        00000 
 2.31952e+01 -3.01200e+01        00000 
 3.40802e+01 -3.28916e+01        00000 
 4.60467e+01 -3.67185e+01        00000 
-6.72269e+01 -6.66882e+01        00000 
-5.10841e+01 -6.28316e+01        00000 
-3.60794e+01 -5.99532e+01        00000 
-2.19396e+01 -5.80655e+01        00000 
-8.03372e+00 -5.70600e+01        00000 
 5.59668e+00 -5.69336e+01        00000 
 1.92504e+01 -5.77542e+01        00000 
 3.33294e+01 -5.96731e+01        00000 
 4.84985e+01 -6.23847e+01        00000 
 6.46802e+01 -6.57219e+01        00000 
-8.65629e+01 -1.04335e+02        00000 
-6.59787e+01 -1.00693e+02        00000 
-4.67472e+01 -9.80402e+01        00000 
-2.83853e+01 -9.63451e+01        00000 
-1.07363e+01 -9.54297e+01        00000 
 6.70958e+00 -9.53685e+01        00000 
 2.43783e+01 -9.60830e+01        00000 
 4.23197e+01 -9.77310e+01        00000 
 6.11230e+01 -1.00145e+02        00000 
 8.09850e+01 -1.03078e+02        00000 
-1.02840e+02 -1.50199e+02        00000 
-7.89709e+01 -1.47184e+02        00000 
-5.61082e+01 -1.44712e+02        00000 
-3.42850e+01 -1.42997e+02        00000 
-1.31377e+01 -1.42062e+02        00000 
 7.66906e+00 -1.41838e+02        00000 
 2.85567e+01 -1.42228e+02        00000 
 5.00703e+01 -1.43292e+02        00000 
 7.23503e+01 -1.45207e+02        00000 
 9.58096e+01 -1.47799e+02        00000 
-1.16403e+02 -2.01815e+02        00000 
-8.97259e+01 -1.99530e+02        00000 
-6.40218e+01 -1.97789e+02        00000 
-3.92344e+01 -1.96566e+02        00000 
-1.52477e+01 -1.95881e+02        00000 
 8.31525e+00 -1.95636e+02        00000 
 3.19846e+01 -1.95824e+02        00000 
 5.63712e+01 -1.96632e+02        00000 
 8.21055e+01 -1.98112e+02        00000 
 1.09270e+02 -2.00306e+02        00000 
-1.27401e+02 -2.60008e+02        00000 
-9.75790e+01 -2.58373e+02        00000 
-6.95370e+01 -2.57343e+02        00000 
-4.27403e+01 -2.56627e+02        00000 
-1.68897e+01 -2.56097e+02        00000 
 8.62199e+00 -2.55834e+02        00000 
 3.45579e+01 -2.55826e+02        00000 
 6.14996e+01 -2.56357e+02        00000 
 8.97724e+01 -2.57521e+02        00000 
 1.19476e+02 -2.59190e+02        00000 
-1.35290e+02 -3.24072e+02        00000 
-1.02586e+02 -3.23213e+02        00000 
-7.24567e+01 -3.22764e+02        00000 
-4.44964e+01 -3.22367e+02        00000 
-1.77323e+01 -3.22013e+02        00000 
 8.67048e+00 -3.21800e+02        00000 
 3.57343e+01 -3.21763e+02        00000 
 6.42195e+01 -3.21829e+02        00000 
 9.46709e+01 -3.22170e+02        00000 
 1.27661e+02 -3.23277e+02        00000 
-1.40746e+02 -3.98214e+02        00000 
-1.04573e+02 -3.95594e+02        00000 
-7.36389e+01 -3.92641e+02        00000 
-4.53984e+01 -3.90519e+02        00000 
-1.81992e+01 -3.89501e+02        00000 
 8.68154e+00 -3.89479e+02        00000 
 3.63811e+01 -3.90666e+02        00000 
 6.54079e+01 -3.92988e+02        00000 
 9.71932e+01 -3.96078e+02        00000 
 1.33311e+02 -3.98621e+02        00000 
-1.03117e+01 -7.79687e+00        00000 
-6.57664e+00 -4.38299e+00        00000 
-3.96105e+00 -2.67893e+00        00000 
-1.89406e+00 -1.71752e+00        00000 
 6.96253e-02 -1.38151e+00        00000 
 2.00555e+00 -1.50778e+00        00000 
 4.16673e+00 -2.22101e+00        00000 
 6.59405e+00 -3.84916e+00        00000 
 1.02058e+01 -7.20174e+00        00000 
-3.12231e+01 -2.50057e+01        00000 
-2.20480e+01 -2.10751e+01        00000 
-1.40983e+01 -1.81719e+01        00000 
-6.93770e+00 -1.63430e+01        00000 
-2.40257e-01 -1.56331e+01        00000 
 6.42196e+00 -1.59273e+01        00000 
 1.36761e+01 -1.73466e+01        00000 
 2.16335e+01 -1.99847e+01        00000 
 3.07374e+01 -2.37320e+01        00000 
-4.99244e+01 -4.93620e+01        00000 
-3.66936e+01 -4.57976e+01        00000 
-2.43313e+01 -4.32008e+01        00000 
-1.24244e+01 -4.16140e+01        00000 
-9.45130e-01 -4.10257e+01        00000 
 1.06041e+01 -4.14775e+01        00000 
 2.22776e+01 -4.29794e+01        00000 
 3.48023e+01 -4.52358e+01        00000 
 4.85710e+01 -4.84525e+01        00000 
-6.78302e+01 -8.26114e+01        00000 
-4.99426e+01 -7.91611e+01        00000 
-3.32976e+01 -7.67804e+01        00000 
-1.72049e+01 -7.54923e+01        00000 
-1.62135e+00 -7.50139e+01        00000 
 1.40261e+01 -7.53713e+01        00000 
 2.99447e+01 -7.67105e+01        00000 
 4.63781e+01 -7.89151e+01        00000 
 6.39373e+01 -8.18734e+01        00000 
-8.38173e+01 -1.24467e+02        00000 
-6.18970e+01 -1.21571e+02        00000 
-4.13200e+01 -1.19540e+02        00000 
-2.16078e+01 -1.18258e+02        00000 
-2.38097e+00 -1.17652e+02        00000 
 1.69839e+01 -1.17767e+02        00000 
 3.64905e+01 -1.18697e+02        00000 
 5.65484e+01 -1.20530e+02        00000 
 7.75778e+01 -1.23119e+02        00000 
-9.71396e+01 -1.73882e+02        00000 
-7.23918e+01 -1.71513e+02        00000 
-4.85179e+01 -1.69713e+02        00000 
-2.55165e+01 -1.68509e+02        00000 
-3.08694e+00 -1.67856e+02        00000 
 1.91830e+01 -1.67866e+02        00000 
 4.17204e+01 -1.68527e+02        00000 
 6.53056e+01 -1.69871e+02        00000 
 8.99732e+01 -1.72076e+02        00000 
-1.07927e+02 -2.29095e+02        00000 
-8.04777e+01 -2.27494e+02        00000 
-5.40543e+01 -2.26297e+02        00000 
-2.85709e+01 -2.25445e+02        00000 
-3.79062e+00 -2.24950e+02        00000 
 2.08274e+01 -2.24806e+02        00000 
 4.61228e+01 -2.25198e+02        00000 
 7.24624e+01 -2.26264e+02        00000 
 1.00339e+02 -2.27937e+02        00000 
-1.15868e+02 -2.90566e+02        00000 
-8.56569e+01 -2.89531e+02        00000 
-5.74235e+01 -2.88904e+02        00000 
-3.05368e+01 -2.88472e+02        00000 
-4.31479e+00 -2.88181e+02        00000 
 2.19091e+01 -2.88059e+02        00000 
 4.92138e+01 -2.88150e+02        00000 
 7.77599e+01 -2.88616e+02        00000 
 1.07979e+02 -2.89507e+02        00000 
-1.20464e+02 -3.58325e+02        00000 
-8.78748e+01 -3.57684e+02        00000 
-5.87113e+01 -3.56929e+02        00000 
-3.13758e+01 -3.56213e+02        00000 
-4.72798e+00 -3.55820e+02        00000 
 2.20829e+01 -3.55920e+02        00000 
 5.00441e+01 -3.56455e+02        00000 
 7.99646e+01 -3.57223e+02        00000 
 1.13060e+02 -3.58055e+02        00000 
-3.35939e-16 -7.39305e-16        00000 
-5.57130e+00 -4.16921e+00        00000 
-4.25706e+00 -2.84122e+00        00000 
 1.18507e-15  9.06050e-16        00000 
-3.41346e+00 -1.97845e+00        00000 
-2.75834e+00 -1.36859e+00        00000 
-9.99201e-16 -6.24500e-17        00000 
-2.16510e+00 -9.62320e-01        00000 
-1.56876e+00 -6.75549e-01        00000 
-1.65593e-16 -2.07917e-16        00000 
-1.12482e+00 -4.39535e-01        00000 
-6.28328e-01 -2.51558e-01        00000 
 7.02563e-17 -9.36751e-17        00000 
-1.50845e-01 -1.77418e-01        00000 
 2.73017e-01 -1.56832e-01        00000 
 7.16709e-17  1.06740e-16        00000 
 7.31127e-01 -2.01565e-01        00000 
 1.20880e+00 -2.88012e-01        00000 
 2.49800e-16 -3.74700e-16        00000 
 1.72586e+00 -4.46989e-01        00000 
 2.25043e+00 -7.39960e-01        00000 
-4.99600e-16        00000        00000 
 2.79318e+00 -1.13833e+00        00000 
 3.42231e+00 -1.69429e+00        00000 
-1.18120e-15 -1.88861e-16        00000 
 4.22954e+00 -2.53712e+00        00000 
 5.50411e+00 -3.84883e+00        00000 
-2.12922e+01 -1.56689e+01        00000 
-2.85145e+01 -2.13748e+01        00000 
-2.41759e+01 -1.90597e+01        00000 
-1.43100e+01 -1.17286e+01        00000 
-2.00718e+01 -1.70466e+01        00000 
-1.64552e+01 -1.53309e+01        00000 
-8.85596e+00 -9.06508e+00        00000 
-1.30426e+01 -1.38542e+01        00000 
-9.91421e+00 -1.27610e+01        00000 
-4.23118e+00 -7.53809e+00        00000 
-6.97421e+00 -1.19492e+01        00000 
-4.17188e+00 -1.13545e+01        00000 
-2.88608e-02 -6.90384e+00        00000 
-1.47963e+00 -1.09713e+01        00000 
 1.23609e+00 -1.08330e+01        00000 
 4.19006e+00 -7.07812e+00        00000 
 3.95329e+00 -1.09907e+01        00000 
 6.76268e+00 -1.13900e+01        00000 
 8.90322e+00 -8.33049e+00        00000 
 9.76173e+00 -1.20547e+01        00000 
 1.29054e+01 -1.29838e+01        00000 
 1.41883e+01 -1.07883e+01        00000 
 1.62376e+01 -1.43033e+01        00000 
 1.97960e+01 -1.59892e+01        00000 
 2.09452e+01 -1.46348e+01        00000 
 2.38099e+01 -1.79093e+01        00000 
 2.80701e+01 -2.01921e+01        00000 
-4.06182e+01 -3.61993e+01        00000 
-4.84329e+01 -4.37329e+01        00000 
-4.21378e+01 -4.15635e+01        00000 
-2.95577e+01 -3.25149e+01        00000 
-3.61260e+01 -3.96957e+01        00000 
-3.03338e+01 -3.81035e+01        00000 
-1.93978e+01 -2.97000e+01        00000 
-2.46656e+01 -3.67195e+01        00000 
-1.91589e+01 -3.56421e+01        00000 
-9.73783e+00 -2.79700e+01        00000 
-1.37754e+01 -3.48587e+01        00000 
-8.53220e+00 -3.42881e+01        00000 
-6.14798e-01 -2.72445e+01        00000 
-3.42380e+00 -3.39490e+01        00000 
 1.79524e+00 -3.38895e+01        00000 
 8.52708e+00 -2.76354e+01        00000 
 6.95478e+00 -3.41171e+01        00000 
 1.21811e+01 -3.46068e+01        00000 
 1.80886e+01 -2.90800e+01        00000 
 1.74867e+01 -3.53683e+01        00000 
 2.29510e+01 -3.62898e+01        00000 
 2.85044e+01 -3.13784e+01        00000 
 2.87249e+01 -3.73693e+01        00000 
 3.47524e+01 -3.87242e+01        00000 
 3.99298e+01 -3.46687e+01        00000 
 4.10799e+01 -4.03798e+01        00000 
 4.76938e+01 -4.23868e+01        00000 
-5.90489e+01 -6.46544e+01        00000 
-6.78361e+01 -7.44741e+01        00000 
-5.91467e+01 -7.24584e+01        00000 
-4.34369e+01 -6.12685e+01        00000 
-5.07966e+01 -7.06733e+01        00000 
-4.26848e+01 -6.91675e+01        00000 
-2.89917e+01 -5.89068e+01        00000 
-3.49500e+01 -6.79693e+01        00000 
-2.73510e+01 -6.70484e+01        00000 
-1.49015e+01 -5.74382e+01        00000 
-1.97975e+01 -6.63750e+01        00000 
-1.23824e+01 -6.59228e+01        00000 
-1.26904e+00 -5.68974e+01        00000 
-5.06073e+00 -6.56450e+01        00000 
 2.22340e+00 -6.56297e+01        00000 
 1.23257e+01 -5.72268e+01        00000 
 9.54654e+00 -6.58268e+01        00000 
 1.68649e+01 -6.62291e+01        00000 
 2.61657e+01 -5.86103e+01        00000 
 2.43547e+01 -6.68953e+01        00000 
 3.18645e+01 -6.78400e+01        00000 
 4.07391e+01 -6.09337e+01        00000 
 3.96366e+01 -6.89633e+01        00000 
 4.76589e+01 -7.03161e+01        00000 
 5.64716e+01 -6.39533e+01        00000 
 5.60421e+01 -7.18507e+01        00000 
 6.46319e+01 -7.35920e+01        00000 
-7.61849e+01 -1.02479e+02        00000 
-8.54579e+01 -1.14206e+02        00000 
-7.47807e+01 -1.12379e+02        00000 
-5.61932e+01 -9.92365e+01        00000 
-6.42130e+01 -1.10794e+02        00000 
-5.41255e+01 -1.09514e+02        00000 
-3.74085e+01 -9.70758e+01        00000 
-4.42417e+01 -1.08490e+02        00000 
-3.46025e+01 -1.07666e+02        00000 
-1.94629e+01 -9.57737e+01        00000 
-2.51796e+01 -1.07031e+02        00000 
-1.59753e+01 -1.06579e+02        00000 
-2.03791e+00 -9.53041e+01        00000 
-6.77780e+00 -1.06308e+02        00000 
 2.38190e+00 -1.06214e+02        00000 
 1.55669e+01 -9.56146e+01        00000 
 1.16591e+01 -1.06334e+02        00000 
 2.09961e+01 -1.06618e+02        00000 
 3.33247e+01 -9.67986e+01        00000 
 3.02764e+01 -1.07161e+02        00000 
 3.96951e+01 -1.07897e+02        00000 
 5.15991e+01 -9.88400e+01        00000 
 4.92423e+01 -1.08917e+02        00000 
 5.90794e+01 -1.10079e+02        00000 
 7.09775e+01 -1.01532e+02        00000 
 6.91939e+01 -1.11420e+02        00000 
 7.95075e+01 -1.12946e+02        00000 
-9.07833e+01 -1.48618e+02        00000 
-1.00191e+02 -1.61872e+02        00000 
-8.79263e+01 -1.60447e+02        00000 
-6.73809e+01 -1.45864e+02        00000 
-7.58895e+01 -1.59108e+02        00000 
-6.40930e+01 -1.57936e+02        00000 
-4.50493e+01 -1.43746e+02        00000 
-5.25226e+01 -1.56933e+02        00000 
-4.12066e+01 -1.56142e+02        00000 
-2.36148e+01 -1.42416e+02        00000 
-3.00833e+01 -1.55507e+02        00000 
-1.91255e+01 -1.55076e+02        00000 
-2.75171e+00 -1.41862e+02        00000 
-8.27666e+00 -1.54760e+02        00000 
 2.48589e+00 -1.54615e+02        00000 
 1.81229e+01 -1.41939e+02        00000 
 1.32857e+01 -1.54660e+02        00000 
 2.40777e+01 -1.54829e+02        00000 
 3.92314e+01 -1.42656e+02        00000 
 3.49559e+01 -1.55185e+02        00000 
 4.60984e+01 -1.55683e+02        00000 
 6.11584e+01 -1.44131e+02        00000 
 5.74858e+01 -1.56396e+02        00000 
 6.91063e+01 -1.57280e+02        00000 
 8.38943e+01 -1.46396e+02        00000 
 8.09065e+01 -1.58386e+02        00000 
 9.31513e+01 -1.59818e+02        00000 
-1.02913e+02 -2.00586e+02        00000 
-1.12402e+02 -2.15252e+02        00000 
-9.86735e+01 -2.14149e+02        00000 
-7.67532e+01 -1.98557e+02        00000 
-8.53085e+01 -2.13255e+02        00000 
-7.21153e+01 -2.12428e+02        00000 
-5.15323e+01 -1.97098e+02        00000 
-5.92068e+01 -2.11791e+02        00000 
-4.64975e+01 -2.11192e+02        00000 
-2.72389e+01 -1.96210e+02        00000 
-3.40224e+01 -2.10768e+02        00000 
-2.17870e+01 -2.10452e+02        00000 
-3.47951e+00 -1.95700e+02        00000 
-9.61844e+00 -2.10185e+02        00000 
 2.41051e+00 -2.10070e+02        00000 
 2.00826e+01 -1.95660e+02        00000 
 1.44381e+01 -2.09976e+02        00000 
 2.66100e+01 -2.10038e+02        00000 
 4.39898e+01 -1.96151e+02        00000 
 3.88920e+01 -2.10220e+02        00000 
 5.13790e+01 -2.10662e+02        00000 
 6.90389e+01 -1.97260e+02        00000 
 6.42444e+01 -2.11215e+02        00000 
 7.75075e+01 -2.11923e+02        00000 
 9.55089e+01 -1.99175e+02        00000 
 9.11247e+01 -2.12852e+02        00000 
 1.05062e+02 -2.13990e+02        00000 
-1.12224e+02 -2.59105e+02        00000 
-1.21807e+02 -2.75138e+02        00000 
-1.06595e+02 -2.74324e+02        00000 
-8.33248e+01 -2.57775e+02        00000 
-9.18132e+01 -2.73683e+02        00000 
-7.74673e+01 -2.73226e+02        00000 
-5.59567e+01 -2.56920e+02        00000 
-6.36135e+01 -2.72909e+02        00000 
-4.99993e+01 -2.72581e+02        00000 
-2.96941e+01 -2.56344e+02        00000 
-3.67166e+01 -2.72338e+02        00000 
-2.36448e+01 -2.72102e+02        00000 
-4.10797e+00 -2.55946e+02        00000 
-1.06815e+01 -2.71972e+02        00000 
 2.23020e+00 -2.71839e+02        00000 
 2.14852e+01 -2.55790e+02        00000 
 1.51988e+01 -2.71769e+02        00000 
 2.83807e+01 -2.71755e+02        00000 
 4.79697e+01 -2.55991e+02        00000 
 4.18412e+01 -2.71826e+02        00000 
 5.55951e+01 -2.72025e+02        00000 
 7.54312e+01 -2.56905e+02        00000 
 6.95606e+01 -2.72386e+02        00000 
 8.39421e+01 -2.72822e+02        00000 
 1.04413e+02 -2.58272e+02        00000 
 9.87406e+01 -2.73449e+02        00000 
 1.13924e+02 -2.74192e+02        00000 
-1.18674e+02 -3.23508e+02        00000 
-1.28271e+02 -3.40881e+02        00000 
-1.11295e+02 -3.40548e+02        00000 
-8.71762e+01 -3.22973e+02        00000 
-9.52714e+01 -3.40301e+02        00000 
-8.00806e+01 -3.40078e+02        00000 
-5.83058e+01 -3.22557e+02        00000 
-6.55799e+01 -3.39827e+02        00000 
-5.15753e+01 -3.39607e+02        00000 
-3.10147e+01 -3.22185e+02        00000 
-3.79276e+01 -3.39363e+02        00000 
-2.45413e+01 -3.39120e+02        00000 
-4.53374e+00 -3.21861e+02        00000 
-1.12802e+01 -3.38945e+02        00000 
 2.00653e+00 -3.38856e+02        00000 
 2.20978e+01 -3.21749e+02        00000 
 1.53169e+01 -3.38836e+02        00000 
 2.89408e+01 -3.38877e+02        00000 
 4.98354e+01 -3.21758e+02        00000 
 4.28170e+01 -3.38986e+02        00000 
 5.71894e+01 -3.39089e+02        00000 
 7.91893e+01 -3.21922e+02        00000 
 7.19611e+01 -3.39272e+02        00000 
 8.75173e+01 -3.39476e+02        00000 
 1.10905e+02 -3.22628e+02        00000 
 1.03677e+02 -3.39852e+02        00000 
 1.20774e+02 -3.40362e+02        00000 
-8.23869e+00 -5.78743e+00        00000 
-1.43359e+01 -1.05581e+01        00000 
-5.17942e+00 -3.40910e+00        00000 
-9.25068e+00 -7.06772e+00        00000 
-2.89876e+00 -2.09579e+00        00000 
-5.47561e+00 -5.03475e+00        00000 
-8.75744e-01 -1.49616e+00        00000 
-2.22550e+00 -3.98129e+00        00000 
 1.03491e+00 -1.40213e+00        00000 
 8.30683e-01 -3.64583e+00        00000 
 3.09075e+00 -1.75895e+00        00000 
 3.93150e+00 -4.01318e+00        00000 
 5.34170e+00 -2.90416e+00        00000 
 7.40045e+00 -5.26397e+00        00000 
 8.14085e+00 -5.23304e+00        00000 
 1.15385e+01 -7.80403e+00        00000 
 1.37361e+01 -1.00250e+01        00000 
 1.75507e+01 -1.22016e+01        00000 
-2.64721e+01 -2.29368e+01        00000 
-3.32872e+01 -2.94121e+01        00000 
-1.79990e+01 -1.94954e+01        00000 
-2.34909e+01 -2.58197e+01        00000 
-1.04679e+01 -1.70844e+01        00000 
-1.46233e+01 -2.31758e+01        00000 
-3.56203e+00 -1.58366e+01        00000 
-6.31741e+00 -2.16430e+01        00000 
 3.05131e+00 -1.56484e+01        00000 
 1.54219e+00 -2.11611e+01        00000 
 9.95792e+00 -1.64926e+01        00000 
 9.53026e+00 -2.18047e+01        00000 
 1.75742e+01 -1.84925e+01        00000 
 1.81454e+01 -2.34394e+01        00000 
 2.60072e+01 -2.17509e+01        00000 
 2.76049e+01 -2.62176e+01        00000 
 3.56259e+01 -2.59273e+01        00000 
 3.81611e+01 -3.01264e+01        00000 
-4.31981e+01 -4.74172e+01        00000 
-5.08237e+01 -5.58001e+01        00000 
-3.04489e+01 -4.43988e+01        00000 
-3.66856e+01 -5.25639e+01        00000 
-1.83498e+01 -4.22440e+01        00000 
-2.34100e+01 -5.03513e+01        00000 
-6.70858e+00 -4.11992e+01        00000 
-1.04900e+01 -4.90582e+01        00000 
 4.83301e+00 -4.11129e+01        00000 
 2.12418e+00 -4.87074e+01        00000 
 1.63767e+01 -4.20966e+01        00000 
 1.46903e+01 -4.93401e+01        00000 
 2.83795e+01 -4.39884e+01        00000 
 2.75412e+01 -5.09977e+01        00000 
 4.15370e+01 -4.66961e+01        00000 
 4.14157e+01 -5.35912e+01        00000 
 5.58897e+01 -5.03422e+01        00000 
 5.64308e+01 -5.69819e+01        00000 
-5.87453e+01 -8.07588e+01        00000 
-6.71796e+01 -9.14574e+01        00000 
-4.14779e+01 -7.78294e+01        00000 
-4.86532e+01 -8.83086e+01        00000 
-2.51894e+01 -7.60168e+01        00000 
-3.10936e+01 -8.63122e+01        00000 
-9.39614e+00 -7.51818e+01        00000 
-1.42181e+01 -8.52626e+01        00000 
 6.22710e+00 -7.50975e+01        00000 
 2.33439e+00 -8.49540e+01        00000 
 2.19129e+01 -7.59432e+01        00000 
 1.89525e+01 -8.55438e+01        00000 
 3.80128e+01 -7.77479e+01        00000 
 3.58864e+01 -8.70003e+01        00000 
 5.50212e+01 -8.03000e+01        00000 
 5.35501e+01 -8.93557e+01        00000 
 7.32669e+01 -8.36326e+01        00000 
 7.23385e+01 -9.24185e+01        00000 
-7.27549e+01 -1.22950e+02        00000 