<?xml version="1.0" encoding="utf-8"?>
<VTKFile byte_order="LittleEndian" type="UnstructuredGrid" version="0.1">
   <UnstructuredGrid>
      <Piece NumberOfCells="1296" NumberOfPoints="685">
         <Points>
            <DataArray Name="Points" NumberOfComponents="3" format="ascii" type="Float32">
0.0000 0.0000 0.0000
0.0000 0.1111 0.0000
0.0000 0.2222 0.0000
0.0000 0.3333 0.0000
0.0000 0.4444 0.0000
0.0000 0.5556 0.0000
0.0000 0.6667 0.0000
0.0000 0.7778 0.0000
0.0000 0.8889 0.0000
0.0000 1.0000 0.0000
0.2222 0.0000 0.0000
0.2222 0.1111 0.0000
0.2222 0.2222 0.0000
0.2222 0.3333 0.0000
0.2222 0.4444 0.0000
0.2222 0.5556 0.0000
0.2222 0.6667 0.0000
0.2222 0.7778 0.0000
0.2222 0.8889 0.0000
0.2222 1.0000 0.0000
0.4444 0.0000 0.0000
0.4444 0.1111 0.0000
0.4444 0.2222 0.0000
0.4444 0.3333 0.0000
0.4444 0.4444 0.0000
0.4444 0.5556 0.0000
0.4444 0.6667 0.0000
0.4444 0.7778 0.0000
0.4444 0.8889 0.0000
0.4444 1.0000 0.0000
0.6667 0.0000 0.0000
0.6667 0.1111 0.0000
0.6667 0.2222 0.0000
0.6667 0.3333 0.0000
0.6667 0.4444 0.0000
0.6667 0.5556 0.0000
0.6667 0.6667 0.0000
0.6667 0.7778 0.0000
0.6667 0.8889 0.0000
0.6667 1.0000 0.0000
0.8889 0.0000 0.0000
0.8889 0.1111 0.0000
0.8889 0.2222 0.0000
0.8889 0.3333 0.0000
0.8889 0.4444 0.0000
0.8889 0.5556 0.0000
0.8889 0.6667 0.0000
0.8889 0.7778 0.0000
0.8889 0.8889 0.0000
0.8889 1.0000 0.0000
1.1111 0.0000 0.0000
1.1111 0.1111 0.0000
1.1111 0.2222 0.0000
1.1111 0.3333 0.0000
1.1111 0.4444 0.0000
1.1111 0.5556 0.0000
1.1111 0.6667 0.0000
1.1111 0.7778 0.0000
1.1111 0.8889 0.0000
1.1111 1.0000 0.0000
1.3333 0.0000 0.0000
1.3333 0.1111 0.0000
1.3333 0.2222 0.0000
1.3333 0.3333 0.0000
1.3333 0.4444 0.0000
1.3333 0.5556 0.0000
1.3333 0.6667 0.0000
1.3333 0.7778 0.0000
1.3333 0.8889 0.0000
1.3333 1.0000 0.0000
1.5556 0.0000 0.0000
1.5556 0.1111 0.0000
1.5556 0.2222 0.0000
1.5556 0.3333 0.0000
1.5556 0.4444 0.0000
1.5556 0.5556 0.0000
1.5556 0.6667 0.0000
1.5556 0.7778 0.0000
1.5556 0.8889 0.0000
1.5556 1.0000 0.0000
1.7778 0.0000 0.0000
1.7778 0.1111 0.0000
1.7778 0.2222 0.0000
1.7778 0.3333 0.0000
1.7778 0.4444 0.0000
1.7778 0.5556 0.0000
1.7778 0.6667 0.0000
1.7778 0.7778 0.0000
1.7778 0.8889 0.0000
1.7778 1.0000 0.0000
2.0000 0.0000 0.0000
2.0000 0.1111 0.0000
2.0000 0.2222 0.0000
2.0000 0.3333 0.0000
2.0000 0.4444 0.0000
2.0000 0.5556 0.0000
2.0000 0.6667 0.0000
2.0000 0.7778 0.0000
2.0000 0.8889 0.0000
2.0000 1.0000 0.0000
0.1111 0.0556 0.0000
0.1111 0.1667 0.0000
0.1111 0.2778 0.0000
0.1111 0.3889 0.0000
0.1111 0.5000 0.0000
0.1111 0.6111 0.0000
0.1111 0.7222 0.0000
0.1111 0.8333 0.0000
0.1111 0.9444 0.0000
0.3333 0.0556 0.0000
0.3333 0.1667 0.0000
0.3333 0.2778 0.0000
0.3333 0.3889 0.0000
0.3333 0.5000 0.0000
0.3333 0.6111 0.0000
0.3333 0.7222 0.0000
0.3333 0.8333 0.0000
0.3333 0.9444 0.0000
0.5556 0.0556 0.0000
0.5556 0.1667 0.0000
0.5556 0.2778 0.0000
0.5556 0.3889 0.0000
0.5556 0.5000 0.0000
0.5556 0.6111 0.0000
0.5556 0.7222 0.0000
0.5556 0.8333 0.0000
0.5556 0.9444 0.0000
0.7778 0.0556 0.0000
0.7778 0.1667 0.0000
0.7778 0.2778 0.0000
0.7778 0.3889 0.0000
0.7778 0.5000 0.0000
0.7778 0.6111 0.0000
0.7778 0.7222 0.0000
0.7778 0.8333 0.0000
0.7778 0.9444 0.0000
1.0000 0.0556 0.0000
1.0000 0.1667 0.0000
1.0000 0.2778 0.0000
1.0000 0.3889 0.0000
1.0000 0.5000 0.0000
1.0000 0.6111 0.0000
1.0000 0.7222 0.0000
1.0000 0.8333 0.0000
1.0000 0.9444 0.0000
1.2222 0.0556 0.0000
1.2222 0.1667 0.0000
1.2222 0.2778 0.0000
1.2222 0.3889 0.0000
1.2222 0.5000 0.0000
1.2222 0.6111 0.0000
1.2222 0.7222 0.0000
1.2222 0.8333 0.0000
1.2222 0.9444 0.0000
1.4444 0.0556 0.0000
1.4444 0.1667 0.0000
1.4444 0.2778 0.0000
1.4444 0.3889 0.0000
1.4444 0.5000 0.0000
1.4444 0.6111 0.0000
1.4444 0.7222 0.0000
1.4444 0.8333 0.0000
1.4444 0.9444 0.0000
1.6667 0.0556 0.0000
1.6667 0.1667 0.0000
1.6667 0.2778 0.0000
1.6667 0.3889 0.0000
1.6667 0.5000 0.0000
1.6667 0.6111 0.0000
1.6667 0.7222 0.0000
1.6667 0.8333 0.0000
1.6667 0.9444 0.0000
1.8889 0.0556 0.0000
1.8889 0.1667 0.0000
1.8889 0.2778 0.0000
1.8889 0.3889 0.0000
1.8889 0.5000 0.0000
1.8889 0.6111 0.0000
1.8889 0.7222 0.0000
1.8889 0.8333 0.0000
1.8889 0.9444 0.0000
0.0000 0.0556 0.0000
0.0556 0.0278 0.0000
0.0556 0.0833 0.0000
0.0000 0.1667 0.0000
0.0556 0.1389 0.0000
0.0556 0.1944 0.0000
0.0000 0.2778 0.0000
0.0556 0.2500 0.0000
0.0556 0.3056 0.0000
0.0000 0.3889 0.0000
0.0556 0.3611 0.0000
0.0556 0.4167 0.0000
0.0000 0.5000 0.0000
0.0556 0.4722 0.0000
0.0556 0.5278 0.0000
0.0000 0.6111 0.0000
0.0556 0.5833 0.0000
0.0556 0.6389 0.0000
0.0000 0.7222 0.0000
0.0556 0.6944 0.0000
0.0556 0.7500 0.0000
0.0000 0.8333 0.0000
0.0556 0.8056 0.0000
0.0556 0.8611 0.0000
0.0000 0.9444 0.0000
0.0556 0.9167 0.0000
0.0556 0.9722 0.0000
0.2222 0.0556 0.0000
0.2778 0.0278 0.0000
0.2778 0.0833 0.0000
0.2222 0.1667 0.0000
0.2778 0.1389 0.0000
0.2778 0.1944 0.0000
0.2222 0.2778 0.0000
0.2778 0.2500 0.0000
0.2778 0.3056 0.0000
0.2222 0.3889 0.0000
0.2778 0.3611 0.0000
0.2778 0.4167 0.0000
0.2222 0.5000 0.0000
0.2778 0.4722 0.0000
0.2778 0.5278 0.0000
0.2222 0.6111 0.0000
0.2778 0.5833 0.0000
0.2778 0.6389 0.0000
0.2222 0.7222 0.0000
0.2778 0.6944 0.0000
0.2778 0.7500 0.0000
0.2222 0.8333 0.0000
0.2778 0.8056 0.0000
0.2778 0.8611 0.0000
0.2222 0.9444 0.0000
0.2778 0.9167 0.0000
0.2778 0.9722 0.0000
0.4444 0.0556 0.0000
0.5000 0.0278 0.0000
0.5000 0.0833 0.0000
0.4444 0.1667 0.0000
0.5000 0.1389 0.0000
0.5000 0.1944 0.0000
0.4444 0.2778 0.0000
0.5000 0.2500 0.0000
0.5000 0.3056 0.0000
0.4444 0.3889 0.0000
0.5000 0.3611 0.0000
0.5000 0.4167 0.0000
0.4444 0.5000 0.0000
0.5000 0.4722 0.0000
0.5000 0.5278 0.0000
0.4444 0.6111 0.0000
0.5000 0.5833 0.0000
0.5000 0.6389 0.0000
0.4444 0.7222 0.0000
0.5000 0.6944 0.0000
0.5000 0.7500 0.0000
0.4444 0.8333 0.0000
0.5000 0.8056 0.0000
0.5000 0.8611 0.0000
0.4444 0.9444 0.0000
0.5000 0.9167 0.0000
0.5000 0.9722 0.0000
0.6667 0.0556 0.0000
0.7222 0.0278 0.0000
0.7222 0.0833 0.0000
0.6667 0.1667 0.0000
0.7222 0.1389 0.0000
0.7222 0.1944 0.0000
0.6667 0.2778 0.0000
0.7222 0.2500 0.0000
0.7222 0.3056 0.0000
0.6667 0.3889 0.0000
0.7222 0.3611 0.0000
0.7222 0.4167 0.0000
0.6667 0.5000 0.0000
0.7222 0.4722 0.0000
0.7222 0.5278 0.0000
0.6667 0.6111 0.0000
0.7222 0.5833 0.0000
0.7222 0.6389 0.0000
0.6667 0.7222 0.0000
0.7222 0.6944 0.0000
0.7222 0.7500 0.0000
0.6667 0.8333 0.0000
0.7222 0.8056 0.0000
0.7222 0.8611 0.0000
0.6667 0.9444 0.0000
0.7222 0.9167 0.0000
0.7222 0.9722 0.0000
0.8889 0.0556 0.0000
0.9444 0.0278 0.0000
0.9444 0.0833 0.0000
0.8889 0.1667 0.0000
0.9444 0.1389 0.0000
0.9444 0.1944 0.0000
0.8889 0.2778 0.0000
0.9444 0.2500 0.0000
0.9444 0.3056 0.0000
0.8889 0.3889 0.0000
0.9444 0.3611 0.0000
0.9444 0.4167 0.0000
0.8889 0.5000 0.0000
0.9444 0.4722 0.0000
0.9444 0.5278 0.0000
0.8889 0.6111 0.0000
0.9444 0.5833 0.0000
0.9444 0.6389 0.0000
0.8889 0.7222 0.0000
0.9444 0.6944 0.0000
0.9444 0.7500 0.0000
0.8889 0.8333 0.0000
0.9444 0.8056 0.0000
0.9444 0.8611 0.0000
0.8889 0.9444 0.0000
0.9444 0.9167 0.0000
0.9444 0.9722 0.0000
1.1111 0.0556 0.0000
1.1667 0.0278 0.0000
1.1667 0.0833 0.0000
1.1111 0.1667 0.0000
1.1667 0.1389 0.0000
1.1667 0.1944 0.0000
1.1111 0.2778 0.0000
1.1667 0.2500 0.0000
1.1667 0.3056 0.0000
1.1111 0.3889 0.0000
1.1667 0.3611 0.0000
1.1667 0.4167 0.0000
1.1111 0.5000 0.0000
1.1667 0.4722 0.0000
1.1667 0.5278 0.0000
1.1111 0.6111 0.0000
1.1667 0.5833 0.0000
1.1667 0.6389 0.0000
1.1111 0.7222 0.0000
1.1667 0.6944 0.0000
1.1667 0.7500 0.0000
1.1111 0.8333 0.0000
1.1667 0.8056 0.0000
1.1667 0.8611 0.0000
1.1111 0.9444 0.0000
1.1667 0.9167 0.0000
1.1667 0.9722 0.0000
1.3333 0.0556 0.0000
1.3889 0.0278 0.0000
1.3889 0.0833 0.0000
1.3333 0.1667 0.0000
1.3889 0.1389 0.0000
1.3889 0.1944 0.0000
1.3333 0.2778 0.0000
1.3889 0.2500 0.0000
1.3889 0.3056 0.0000
1.3333 0.3889 0.0000
1.3889 0.3611 0.0000
1.3889 0.4167 0.0000
1.3333 0.5000 0.0000
1.3889 0.4722 0.0000
1.3889 0.5278 0.0000
1.3333 0.6111 0.0000
1.3889 0.5833 0.0000
1.3889 0.6389 0.0000
1.3333 0.7222 0.0000
1.3889 0.6944 0.0000
1.3889 0.7500 0.0000
1.3333 0.8333 0.0000
1.3889 0.8056 0.0000
1.3889 0.8611 0.0000
1.3333 0.9444 0.0000
1.3889 0.9167 0.0000
1.3889 0.9722 0.0000
1.5556 0.0556 0.0000
1.6111 0.0278 0.0000
1.6111 0.0833 0.0000
1.5556 0.1667 0.0000
1.6111 0.1389 0.0000
1.6111 0.1944 0.0000
1.5556 0.2778 0.0000
1.6111 0.2500 0.0000
1.6111 0.3056 0.0000
1.5556 0.3889 0.0000
1.6111 0.3611 0.0000
1.6111 0.4167 0.0000
1.5556 0.5000 0.0000
1.6111 0.4722 0.0000
1.6111 0.5278 0.0000
1.5556 0.6111 0.0000
1.6111 0.5833 0.0000
1.6111 0.6389 0.0000
1.5556 0.7222 0.0000
1.6111 0.6944 0.0000
1.6111 0.7500 0.0000
1.5556 0.8333 0.0000
1.6111 0.8056 0.0000
1.6111 0.8611 0.0000
1.5556 0.9444 0.0000
1.6111 0.9167 0.0000
1.6111 0.9722 0.0000
1.7778 0.0556 0.0000
1.8333 0.0278 0.0000
1.8333 0.0833 0.0000
1.7778 0.1667 0.0000
1.8333 0.1389 0.0000
1.8333 0.1944 0.0000
1.7778 0.2778 0.0000
1.8333 0.2500 0.0000
1.8333 0.3056 0.0000
1.7778 0.3889 0.0000
1.8333 0.3611 0.0000
1.8333 0.4167 0.0000
1.7778 0.5000 0.0000
1.8333 0.4722 0.0000
1.8333 0.5278 0.0000
1.7778 0.6111 0.0000
1.8333 0.5833 0.0000
1.8333 0.6389 0.0000
1.7778 0.7222 0.0000
1.8333 0.6944 0.0000
1.8333 0.7500 0.0000
1.7778 0.8333 0.0000
1.8333 0.8056 0.0000
1.8333 0.8611 0.0000
1.7778 0.9444 0.0000
1.8333 0.9167 0.0000
1.8333 0.9722 0.0000
0.1111 0.1111 0.0000
0.1667 0.0833 0.0000
0.1111 0.2222 0.0000
0.1667 0.1944 0.0000
0.1111 0.3333 0.0000
0.1667 0.3056 0.0000
0.1111 0.4444 0.0000
0.1667 0.4167 0.0000
0.1111 0.5556 0.0000
0.1667 0.5278 0.0000
0.1111 0.6667 0.0000
0.1667 0.6389 0.0000
0.1111 0.7778 0.0000
0.1667 0.7500 0.0000
0.1111 0.8889 0.0000
0.1667 0.8611 0.0000
0.1111 1.0000 0.0000
0.1667 0.9722 0.0000
0.3333 0.1111 0.0000
0.3889 0.0833 0.0000
0.3333 0.2222 0.0000
0.3889 0.1944 0.0000
0.3333 0.3333 0.0000
0.3889 0.3056 0.0000
0.3333 0.4444 0.0000
0.3889 0.4167 0.0000
0.3333 0.5556 0.0000
0.3889 0.5278 0.0000
0.3333 0.6667 0.0000
0.3889 0.6389 0.0000
0.3333 0.7778 0.0000
0.3889 0.7500 0.0000
0.3333 0.8889 0.0000
0.3889 0.8611 0.0000
0.3333 1.0000 0.0000
0.3889 0.9722 0.0000
0.5556 0.1111 0.0000
[...]
         <PointData>
            <DataArray Name="fValues" NumberOfComponents="3" format="ascii" type="Float64">
-8.54791e-25 -1.42465e-24        00000 
 1.54308e-24  9.62745e-25        00000 
-2.10760e-24  6.70034e-25        00000 
 4.16436e-24 -3.06203e-24        00000 
 1.10643e-23  2.24474e-24        00000 
       00000 -3.67443e-25        00000 
-2.80978e-25  1.42699e-24        00000 
-9.17777e-26 -7.34222e-25        00000 
 3.69045e-25 -4.92059e-25        00000 
 2.84930e-25        00000        00000 
-1.25672e-08  1.92284e-08        00000 
 1.17804e-08  2.81410e-08        00000 
 8.92348e-09 -1.09512e-08        00000 
 7.43652e-10 -6.64968e-09        00000 
 1.51264e-08 -1.72149e-08        00000 
 6.43318e-09  4.31278e-09        00000 
 1.98920e-08  7.03354e-09        00000 
 1.02199e-08 -1.02259e-09        00000 
-3.86027e-09 -4.67115e-09        00000 
 3.07430e-09  3.22438e-08        00000 
 4.85905e-09  2.89492e-08        00000 
 1.90415e-08  8.27228e-09        00000 
 1.69284e-09 -6.17774e-09        00000 
-1.57409e-08 -1.71153e-08        00000 
 5.00281e-09 -1.72559e-08        00000 
 1.70198e-08  2.52823e-09        00000 
 1.59065e-08  4.13219e-09        00000 
 2.01137e-08 -1.49259e-08        00000 
 1.87119e-08  5.60824e-09        00000 
 2.14527e-08  3.48768e-08        00000 
-6.06795e-10  1.54778e-08        00000 
-7.69822e-09  1.83517e-08        00000 
 4.92554e-09  5.83525e-09        00000 
-2.74096e-08 -1.04426e-08        00000 
 7.00102e-09 -1.26038e-08        00000 
 2.21047e-08  1.04113e-09        00000 
 6.74159e-09  1.56937e-08        00000 
-1.27463e-08 -5.60148e-09        00000 
-1.56530e-08 -2.03056e-09        00000 
-1.17002e-09  1.69050e-08        00000 
-1.96272e-08  9.60574e-09        00000 
 1.63885e-08  3.19924e-08        00000 
-1.04022e-08 -7.65468e-09        00000 
-4.56585e-09  1.73972e-08        00000 
 6.03353e-09  2.67543e-08        00000 
-1.32798e-08 -1.50435e-09        00000 
-2.26648e-08  2.23378e-08        00000 
-7.37697e-09  9.90506e-09        00000 
-3.54366e-08 -1.48608e-08        00000 
-1.56106e-08  2.66683e-08        00000 
 1.48859e-09 -3.96869e-08        00000 
-4.57010e-09 -1.90469e-08        00000 
-9.83087e-09  3.42209e-09        00000 
-8.16357e-09  1.07451e-08        00000 
-6.43652e-09  5.84843e-09        00000 
 2.78332e-09  1.25519e-08        00000 
 8.98879e-10  2.95181e-08        00000 
-2.02558e-08  5.38525e-09        00000 
-2.93636e-08 -6.26027e-09        00000 
-4.40267e-08  4.95502e-08        00000 
 1.96107e-08 -8.22916e-09        00000 
-1.94979e-08 -5.02242e-09        00000 
 3.27807e-09  6.71115e-10        00000 
 1.94596e-08  3.57296e-08        00000 
 1.71673e-08  2.97128e-10        00000 
 2.23505e-08  9.82345e-09        00000 
 7.12194e-09 -7.12674e-11        00000 
-6.70258e-09 -7.67157e-09        00000 
-2.74282e-08  8.49821e-09        00000 
-8.66791e-09  7.97230e-08        00000 
-1.35599e-08 -3.44606e-08        00000 
 2.37849e-08 -3.36217e-09        00000 
 2.09508e-08 -1.10458e-08        00000 
 2.05485e-08  3.78560e-09        00000 
 8.45188e-09  1.27854e-08        00000 
-1.33329e-08 -8.39704e-09        00000 
-6.92216e-09 -5.77937e-09        00000 
-1.82526e-08  4.23215e-09        00000 
 6.38082e-09 -1.35373e-08        00000 
-4.44661e-09 -1.51858e-08        00000 
 1.74965e-08 -4.46182e-08        00000 
 3.26258e-09 -1.03476e-08        00000 
 1.02399e-08  7.63040e-09        00000 
 8.29590e-09 -5.80076e-09        00000 
 6.93404e-09 -1.55033e-08        00000 
 8.93260e-09 -2.15681e-08        00000 
 4.67526e-09  8.17067e-09        00000 
-7.14550e-09  2.43773e-08        00000 
-4.27127e-08  3.25095e-08        00000 
 1.67537e-09  2.62813e-08        00000 
-2.41289e-08  1.57092e-09        00000 
 2.14759e-08  8.77706e-09        00000 
 1.54686e-08 -2.40330e-09        00000 
 7.50379e-09  1.10253e-09        00000 
 2.46722e-08 -2.70080e-09        00000 
 8.52026e-10  5.92854e-09        00000 
 5.60766e-09  2.78125e-08        00000 
 5.68406e-09  1.25927e-08        00000 
 1.14733e-08 -1.65383e-08        00000 
-3.40327e-08 -7.48457e-10        00000 
 1.91191e-09 -7.08869e-09        00000 
 5.31459e-10 -1.40516e-10        00000 
 1.53900e-08 -1.60507e-08        00000 
-1.22340e-08  1.00292e-08        00000 
-2.18283e-08  6.74262e-09        00000 
-1.41660e-08  1.75456e-08        00000 
-8.96872e-09  1.61859e-08        00000 
-1.17443e-08  1.15757e-08        00000 
-1.49761e-09 -4.29085e-09        00000 
-7.17704e-09 -5.65421e-09        00000 
 3.07223e-08  1.00682e-08        00000 
 1.65187e-08  4.68280e-10        00000 
 1.51674e-09  1.42068e-10        00000 
 3.20515e-09  1.81792e-09        00000 
-4.31735e-09  2.35567e-08        00000 
-1.16203e-09  1.46730e-08        00000 
-4.55215e-09 -2.57861e-09        00000 
 5.11708e-09 -1.32221e-08        00000 
 2.56489e-08  2.97000e-09        00000 
 7.01655e-09 -1.10226e-08        00000 
-3.19464e-09  5.47512e-09        00000 
-2.87976e-09 -8.39511e-09        00000 
-1.13751e-08 -6.50659e-09        00000 
 3.57589e-09 -1.36838e-09        00000 
 9.84678e-09 -2.10941e-08        00000 
-6.26518e-09 -3.76216e-09        00000 
-2.46295e-09 -7.34688e-09        00000 
 1.56538e-09 -1.92127e-08        00000 
 5.37737e-09 -1.52943e-09        00000 
-1.24363e-09  4.08085e-09        00000 
 2.73614e-08  7.79539e-09        00000 
-3.00297e-09  7.88809e-09        00000 
 1.48587e-08  8.85221e-09        00000 
 2.84514e-08  2.65338e-09        00000 
-1.57232e-08 -8.25720e-09        00000 
-1.10572e-08 -4.77464e-09        00000 
 1.47186e-08  2.44352e-08        00000 
 1.00052e-08  2.22665e-08        00000 
-1.11881e-08 -1.30281e-08        00000 
-5.40165e-09 -1.67570e-08        00000 
-1.85672e-09 -3.97306e-09        00000 
 2.43794e-08  1.89933e-08        00000 
-2.02736e-08  1.54040e-08        00000 
-8.19578e-09  1.24972e-08        00000 
 1.19545e-08  1.40078e-08        00000 
-1.13244e-08  2.44636e-08        00000 
-5.30952e-09  1.63870e-08        00000 
 1.18818e-08  1.41938e-08        00000 
 2.76625e-08  1.05956e-08        00000 
 2.76256e-08  2.77008e-08        00000 
 5.04662e-09  1.80023e-08        00000 
-8.87974e-09  2.86015e-08        00000 
 1.54418e-09  5.40069e-09        00000 
 1.89746e-09 -2.87596e-08        00000 
 3.45789e-09  3.48189e-09        00000 
-1.94778e-08  2.32878e-09        00000 
-2.14526e-08 -6.38209e-10        00000 
-2.85405e-09 -2.71579e-09        00000 
-1.05467e-08  3.61102e-09        00000 
-1.73366e-08  1.44453e-10        00000 
-7.76345e-09  1.81305e-08        00000 
-6.17376e-09  1.72420e-08        00000 
-9.98145e-09  3.36041e-09        00000 
-4.06617e-10  2.57821e-08        00000 
 2.20248e-08  1.90759e-09        00000 
 1.27784e-09  3.56216e-09        00000 
 1.39208e-08 -6.45069e-09        00000 
 2.96621e-08 -5.37476e-09        00000 
 2.00276e-08  2.65866e-08        00000 
 8.64088e-09  6.58048e-10        00000 
 1.17548e-08  6.09798e-09        00000 
-2.78652e-09  1.37308e-08        00000 
-9.38900e-09  4.96505e-09        00000 
 2.05233e-09  1.46883e-08        00000 
 8.23115e-09  1.21410e-08        00000 
 1.89498e-08  2.22874e-08        00000 
 7.06677e-10  2.19137e-08        00000 
-2.28733e-08  1.58421e-08        00000 
-7.79067e-09  2.21828e-08        00000 
-1.21474e-10  4.85770e-08        00000 
-7.43148e-09  3.86611e-09        00000 
 2.39232e-24  2.74083e-24        00000 
-1.70168e-09 -1.90747e-08        00000 
 2.14091e-08 -1.59109e-08        00000 
-5.79311e-25  2.21477e-24        00000 
 2.34726e-08 -1.18976e-08        00000 
 1.68894e-08  2.85790e-09        00000 
 3.48967e-24 -5.81611e-25        00000 
 3.35513e-09 -2.99561e-09        00000 
 2.31219e-08 -9.29831e-09        00000 
 1.41298e-24  1.37071e-24        00000 
 5.81669e-09 -1.68572e-09        00000 
 2.48858e-08  1.10869e-08        00000 
 3.72231e-24  1.16322e-25        00000 
 3.11907e-08  3.14103e-09        00000 
 6.31277e-09  1.71096e-09        00000 
-8.83748e-25 -3.54153e-25        00000 
 9.55275e-09  2.23253e-09        00000 
 4.20847e-09 -5.45759e-09        00000 
-2.61725e-25  2.79173e-24        00000 
 7.17716e-10  2.19200e-08        00000 
 4.35977e-09 -7.71933e-09        00000 
 5.81611e-25  4.65289e-25        00000 
 7.54998e-09  2.12579e-09        00000 
 2.37441e-09  8.29582e-09        00000 
 7.83364e-25  8.94653e-26        00000 
-1.91851e-09  3.68016e-09        00000 
 1.17645e-08 -1.03724e-08        00000 
-1.22572e-08 -7.45214e-09        00000 
 7.95471e-09 -3.18881e-08        00000 
-5.53314e-10  1.12058e-08        00000 
 6.97128e-09 -2.27770e-08        00000 
 5.96371e-09 -1.84116e-09        00000 
-9.90913e-09 -1.96171e-08        00000 
 4.79805e-09 -2.23526e-08        00000 
 1.80874e-08  1.77557e-08        00000 
 1.91477e-08  3.36316e-09        00000 
 1.60207e-08 -9.43275e-09        00000 
 2.42818e-08 -1.21641e-08        00000 
 2.15077e-09 -9.88772e-09        00000 
 1.10257e-09 -1.66817e-08        00000 
 1.31799e-08 -6.94123e-09        00000 
 1.52464e-08  1.19130e-08        00000 
 1.93918e-09 -3.79022e-09        00000 
 2.09184e-08  1.04135e-08        00000 
-2.48682e-09  6.89218e-11        00000 
 1.24976e-08 -2.01274e-08        00000 
 1.18231e-08  1.40560e-09        00000 
 1.05162e-08  1.86184e-08        00000 
-1.52427e-09  6.33757e-09        00000 
 1.62484e-08  7.37790e-09        00000 
 8.65149e-09 -2.66155e-08        00000 
 5.05847e-09  5.32002e-09        00000 
 1.59162e-08  2.04980e-08        00000 
-2.86403e-09 -4.03480e-08        00000 
 1.71622e-08 -2.51059e-08        00000 
 4.10009e-08 -4.74316e-08        00000 
 1.81599e-08  3.92085e-09        00000 
 2.13667e-08 -2.20462e-08        00000 
 8.64713e-09  2.25427e-10        00000 
 1.22847e-09 -7.08101e-09        00000 
-3.17849e-09  3.01028e-09        00000 
 2.71875e-10  1.35662e-08        00000 
 1.32597e-08  1.31408e-08        00000 
 2.88851e-08  9.52603e-09        00000 
 1.37831e-08 -1.92641e-08        00000 
-2.06031e-09 -5.69536e-09        00000 
 1.03386e-08 -1.48224e-08        00000 
-2.88707e-08 -9.79554e-09        00000 
 2.21053e-09  5.61377e-09        00000 
 9.92554e-10 -1.49782e-08        00000 
-1.52272e-08 -1.88382e-08        00000 
-1.39603e-08 -2.98215e-10        00000 
-3.06003e-09 -3.08933e-08        00000 
-4.08811e-09 -4.29452e-08        00000 
-2.60729e-08 -1.60023e-08        00000 
-3.72623e-10 -7.99025e-09        00000 
 7.68352e-10  7.79141e-09        00000 
-8.99754e-09 -3.54370e-09        00000 
-6.00740e-09  2.75682e-08        00000 
 1.72628e-08  1.66797e-08        00000 
 1.44539e-08 -1.68962e-08        00000 
 1.96031e-09  6.19131e-09        00000 
 9.63311e-09  1.99833e-09        00000 
 1.65435e-08 -7.61233e-10        00000 
-2.49352e-09 -9.11506e-09        00000 
 1.44613e-08  1.10396e-08        00000 
 1.45186e-08  1.42108e-08        00000 
-1.40788e-08  2.32461e-09        00000 
 7.03800e-09  1.47902e-08        00000 
 7.36884e-09  5.59592e-09        00000 
-5.38976e-09  1.94186e-08        00000 
 1.29996e-08  6.37842e-09        00000 
 6.68774e-09  2.05981e-09        00000 
-8.83812e-09  5.32486e-09        00000 
-2.14693e-09  1.98711e-08        00000 
-1.15758e-08  1.17653e-08        00000 
-1.54204e-08  5.32240e-09        00000 
-6.20062e-10 -1.92976e-08        00000 
-2.05267e-08  1.07915e-09        00000 
-3.36913e-08 -1.30982e-08        00000 
 1.64542e-09 -1.65265e-09        00000 
-2.71707e-08 -4.22293e-09        00000 
-2.78086e-08  3.37549e-09        00000 
-9.22152e-09  1.80985e-08        00000 
-5.71383e-09  4.20211e-09        00000 
-2.71458e-08  3.17607e-09        00000 
 3.65014e-08  1.48271e-09        00000 
 9.48324e-09 -1.21287e-08        00000 
-2.20878e-08 -1.68661e-08        00000 
 9.41202e-09 -1.54262e-08        00000 
-2.21777e-08  3.82694e-08        00000 
 2.52678e-08  1.65920e-08        00000 
 1.19726e-08  2.34253e-08        00000 
-1.60687e-08  5.36583e-09        00000 
 7.11400e-09  1.00170e-08        00000 
 3.64736e-10 -5.02308e-09        00000 
 3.58561e-09  1.18323e-09        00000 
 1.86564e-08  1.79392e-08        00000 
 8.59667e-09 -1.36747e-08        00000 
-1.53207e-08 -1.58721e-08        00000 
-2.90869e-08  8.48246e-09        00000 
 1.94238e-09 -1.74424e-08        00000 
-1.16362e-08 -9.63299e-09        00000 
-6.36345e-09 -1.51437e-09        00000 
 3.64263e-09 -2.83235e-08        00000 
 3.41429e-08 -1.95483e-09        00000 
-2.61505e-09  2.00333e-08        00000 
 1.45259e-08 -9.93457e-09        00000 
 4.33913e-09  7.63187e-09        00000 
-3.61249e-08  4.94296e-09        00000 
 3.33382e-09 -1.91403e-08        00000 
-2.92765e-09 -6.78454e-09        00000 
-1.45632e-08 -8.33886e-10        00000 
 5.24260e-09 -1.88572e-09        00000 
 5.13026e-10 -5.52319e-09        00000 
-1.01673e-08 -4.75760e-09        00000 
 4.54958e-09  1.66475e-08        00000 
 1.95483e-08 -1.29177e-08        00000 
 5.39427e-09 -9.57544e-09        00000 
 4.27707e-09  4.90785e-09        00000 
-5.99735e-09 -3.64670e-09        00000 
 1.12802e-08  2.86728e-08        00000 
 3.87749e-09  5.62767e-09        00000 
 4.76996e-09 -8.11783e-09        00000 
 3.08447e-10  2.49107e-08        00000 
 6.99487e-09 -9.66963e-09        00000 
-9.50226e-09 -1.97032e-08        00000 
-5.47398e-09  3.30365e-08        00000 
-2.96674e-09 -3.57154e-09        00000 
-1.23384e-08 -2.54575e-09        00000 
 3.28320e-09  1.96112e-08        00000 
 3.72168e-09 -3.00481e-09        00000 
-5.74713e-09  5.43276e-09        00000 
-6.24610e-10  2.18787e-08        00000 
-1.28661e-08  3.29002e-09        00000 
-9.64653e-09  1.06681e-08        00000 
-1.69978e-08  1.91868e-08        00000 
-1.91373e-08  1.94807e-08        00000 
 8.60405e-09 -1.48989e-08        00000 
-3.71391e-08  3.48159e-10        00000 
-2.26379e-08  2.11103e-08        00000 
 1.40773e-10 -6.85292e-08        00000 
-1.49103e-08  2.61044e-08        00000 
 2.72769e-09  4.86284e-08        00000 
-1.02748e-08  7.54233e-09        00000 
-2.14209e-08  3.32445e-08        00000 
 1.13616e-09 -1.13558e-08        00000 
 2.96646e-09  2.02029e-08        00000 
-1.92441e-08  1.08706e-08        00000 
-3.91194e-09  3.34637e-10        00000 
-1.28080e-08  4.32298e-09        00000 
-1.72404e-08 -2.12952e-08        00000 
-8.18690e-09 -6.45983e-10        00000 
-1.33681e-08  1.24390e-08        00000 
-6.90261e-09  7.35099e-10        00000 
 1.48155e-08  1.99065e-08        00000 
-7.52206e-09 -7.84750e-09        00000 
-1.53628e-08 -1.33087e-08        00000 
-1.07836e-08  4.34400e-08        00000 
 7.04193e-09  7.49003e-09        00000 
-2.84353e-08 -5.50557e-09        00000 
-1.68010e-08  4.38951e-08        00000 
-3.30840e-08  3.56970e-09        00000 
-3.82030e-08  5.83892e-09        00000 
-4.65451e-09  1.21763e-08        00000 
 1.03618e-08  9.05759e-09        00000 
-2.78110e-08 -2.89136e-08        00000 
 4.44976e-09  3.68512e-08        00000 
 2.78291e-09 -7.32210e-08        00000 
 1.29214e-09  3.56222e-09        00000 
 4.09858e-09  3.01895e-08        00000 
-8.64875e-09  1.35024e-08        00000 
 1.94593e-08  1.52326e-08        00000 
 2.45240e-09  6.46195e-09        00000 
-2.40936e-08  1.88636e-08        00000 
 3.41864e-08  1.16896e-08        00000 
-1.30588e-08 -1.66236e-09        00000 
-2.32296e-09  1.34425e-08        00000 
 1.33659e-08 -5.24773e-09        00000 
-7.96086e-09  2.71188e-08        00000 
-3.72195e-08  9.75990e-09        00000 
 3.97492e-09 -2.14085e-08        00000 
-1.46008e-08  1.52149e-08        00000 
-1.25054e-08  1.79273e-08        00000 
-2.44711e-10 -5.79904e-09        00000 
-5.25287e-09  3.67053e-08        00000 
-9.41029e-09  5.86502e-09        00000 
 9.33542e-09  1.29959e-08        00000 
 1.21524e-08  3.19407e-08        00000 
 1.39450e-08  8.38253e-09        00000 
-1.70117e-08 -3.98899e-11        00000 
-4.28972e-09  1.10872e-08        00000 
-2.65344e-08  2.22216e-08        00000 
-1.87514e-08 -6.78862e-09        00000 
 2.93889e-09 -6.53509e-09        00000 
 7.52877e-09  3.56301e-08        00000 
-1.04310e-08  1.23123e-08        00000 
 3.31253e-08  4.34305e-08        00000 
 2.39655e-08 -3.14746e-08        00000 
-4.58112e-09 -6.36487e-09        00000 
 6.18013e-09 -5.14893e-09        00000 
 3.42597e-08 -9.88464e-09        00000 
-5.59226e-10  1.31874e-08        00000 
 7.77146e-09  2.23367e-08        00000 
 3.34450e-09 -5.72756e-09        00000 
-4.92679e-09 -1.53902e-08        00000 
-1.08381e-08 -1.35041e-09        00000 
 3.34239e-10  7.01932e-09        00000 
 5.62858e-09 -7.76573e-09        00000 
-1.36011e-08  1.72092e-09        00000 
 4.04742e-09 -1.41566e-09        00000 
 3.61285e-09 -1.70956e-08        00000 
-1.11576e-08  4.07482e-10        00000 
 5.61243e-09 -6.15330e-09        00000 
 1.45884e-08  6.35771e-09        00000 
-1.75804e-08 -5.56982e-09        00000 
 3.29171e-08  1.96769e-08        00000 
-3.05135e-10  2.50877e-08        00000 
 1.83263e-09  5.97430e-09        00000 
 1.88801e-08  1.09310e-08        00000 
-2.14447e-09  5.17453e-09        00000 
-9.80987e-09  2.51723e-08        00000 
 4.63899e-10 -2.99286e-08        00000 
-2.05184e-08 -1.03117e-08        00000 
-1.53391e-08 -1.52848e-08        00000 
 1.71122e-08 -2.19231e-08        00000 
 8.67189e-09 -5.70958e-09        00000 
 6.65628e-09 -2.03077e-09        00000 
 1.64847e-09 -1.13987e-08        00000 
-9.19906e-09 -1.53098e-09        00000 
-1.80133e-09 -7.02298e-09        00000 
-1.35393e-09  5.29758e-09        00000 
 9.91714e-10 -8.44105e-10        00000 
 3.15721e-09  2.36277e-08        00000 
 3.60408e-09 -8.14454e-10        00000 
 5.65156e-09 -7.48653e-09        00000 
-4.04534e-09  3.80855e-09        00000 
-1.12996e-08  2.22480e-09        00000 
 1.26568e-08  5.54952e-09        00000 
 7.72155e-09  2.28757e-08        00000 
 7.44534e-09 -2.63812e-08        00000 
-1.80685e-09  1.19255e-08        00000 
 2.41096e-08 -3.32575e-09        00000 
 8.95508e-10  2.72273e-08        00000 
 1.50686e-08 -1.37596e-08        00000 
-1.16259e-08  1.95895e-08        00000 
 1.08965e-08 -2.30926e-09        00000 
-1.89059e-09  3.24547e-08        00000 
 1.98214e-08  7.94920e-10        00000 
-6.70112e-09  3.56490e-08        00000 
 6.56136e-09  1.37081e-09        00000 
-3.17761e-09  2.92077e-08        00000 
-3.85981e-09 -2.32822e-09        00000 
 1.18845e-08  1.07040e-08        00000 
-1.81314e-08  6.53525e-09        00000 
 3.05619e-09 -1.00314e-08        00000 
-1.57326e-08 -1.10685e-08        00000 
 6.41781e-09  3.42082e-08        00000 
 1.81585e-08 -3.52344e-08        00000 
 4.89306e-09  2.28180e-08        00000 
 2.19297e-09  1.28674e-08        00000 
 1.43530e-08  2.76352e-09        00000 
-1.83586e-08  1.59239e-08        00000 
-3.68862e-08  1.77978e-08        00000 
 1.31619e-08  4.65988e-10        00000 
-2.94354e-08  9.69262e-10        00000 
 1.27438e-08 -2.28869e-09        00000 
-3.34417e-09  2.50862e-08        00000 
 1.08141e-08  1.74039e-08        00000 
 5.46552e-09  4.76581e-09        00000 
 1.24606e-08  3.00267e-08        00000 
-2.05188e-09  2.50752e-09        00000 
-6.98136e-09  4.62461e-09        00000 
 1.82903e-08  1.73776e-08        00000 
-9.10424e-09 -8.63963e-10        00000 
 3.16930e-08  1.45104e-09        00000 
-2.25399e-09  2.96228e-08        00000 
-6.04203e-09  1.52698e-08        00000 
 4.57568e-09 -1.13972e-08        00000 
 1.54642e-08  1.42937e-08        00000 
-5.39219e-09  2.10375e-08        00000 
 1.01088e-08  1.92438e-08        00000 
-7.49728e-09  2.14150e-08        00000 
 7.95058e-09 -4.51712e-09        00000 
-2.38758e-09 -1.19290e-08        00000 
 7.50902e-09 -1.22614e-08        00000 
 4.87075e-09  2.31490e-08        00000 
 7.53968e-09  5.35599e-09        00000 
-1.84945e-08  2.10031e-08        00000 
 1.17496e-08 -2.63310e-08        00000 
-1.48529e-08  1.39781e-08        00000 
-1.58571e-08  1.99513e-08        00000 
-5.41121e-09 -1.37979e-08        00000 
 2.60209e-09  2.34716e-08        00000 
-1.48955e-08 -3.69987e-08        00000 
-3.91222e-09  1.73692e-08        00000 