<?xml version="1.0" encoding="utf-8"?>
<VTKFile byte_order="LittleEndian" type="UnstructuredGrid" version="0.1">
   <UnstructuredGrid>
      <Piece NumberOfCells="1296" NumberOfPoints="685">
         <Points>
            <DataArray Name="Points" NumberOfComponents="3" format="ascii" type="Float32">
0.0000 0.0000 0.0000
0.0000 0.1111 0.0000
0.0000 0.2222 0.0000
0.0000 0.3333 0.0000
0.0000 0.4444 0.0000
0.0000 0.5556 0.0000
0.0000 0.6667 0.0000
0.0000 0.7778 0.0000
0.0000 0.8889 0.0000
0.0000 1.0000 0.0000
0.2222 0.0000 0.0000
0.2222 0.1111 0.0000
0.2222 0.2222 0.0000
0.2222 0.3333 0.0000
0.2222 0.4444 0.0000
0.2222 0.5556 0.0000
0.2222 0.6667 0.0000
0.2222 0.7778 0.0000
0.2222 0.8889 0.0000
0.2222 1.0000 0.0000
0.4444 0.0000 0.0000
0.4444 0.1111 0.0000
0.4444 0.2222 0.0000
0.4444 0.3333 0.0000
0.4444 0.4444 0.0000
0.4444 0.5556 0.0000
0.4444 0.6667 0.0000
0.4444 0.7778 0.0000
0.4444 0.8889 0.0000
0.4444 1.0000 0.0000
0.6667 0.0000 0.0000
0.6667 0.1111 0.0000
0.6667 0.2222 0.0000
0.6667 0.3333 0.0000
0.6667 0.4444 0.0000
0.6667 0.5556 0.0000
0.6667 0.6667 0.0000
0.6667 0.7778 0.0000
0.6667 0.8889 0.0000
0.6667 1.0000 0.0000
0.8889 0.0000 0.0000
0.8889 0.1111 0.0000
0.8889 0.2222 0.0000
0.8889 0.3333 0.0000
0.8889 0.4444 0.0000
0.8889 0.5556 0.0000
0.8889 0.6667 0.0000
0.8889 0.7778 0.0000
0.8889 0.8889 0.0000
0.8889 1.0000 0.0000
1.1111 0.0000 0.0000
1.1111 0.1111 0.0000
1.1111 0.2222 0.0000
1.1111 0.3333 0.0000
1.1111 0.4444 0.0000
1.1111 0.5556 0.0000
1.1111 0.6667 0.0000
1.1111 0.7778 0.0000
1.1111 0.8889 0.0000
1.1111 1.0000 0.0000
1.3333 0.0000 0.0000
1.3333 0.1111 0.0000
1.3333 0.2222 0.0000
1.3333 0.3333 0.0000
1.3333 0.4444 0.0000
1.3333 0.5556 0.0000
1.3333 0.6667 0.0000
1.3333 0.7778 0.0000
1.3333 0.8889 0.0000
1.3333 1.0000 0.0000
1.5556 0.0000 0.0000
1.5556 0.1111 0.0000
1.5556 0.2222 0.0000
1.5556 0.3333 0.0000
1.5556 0.4444 0.0000
1.5556 0.5556 0.0000
1.5556 0.6667 0.0000
1.5556 0.7778 0.0000
1.5556 0.8889 0.0000
1.5556 1.0000 0.0000
1.7778 0.0000 0.0000
1.7778 0.1111 0.0000
1.7778 0.2222 0.0000
1.7778 0.3333 0.0000
1.7778 0.4444 0.0000
1.7778 0.5556 0.0000
1.7778 0.6667 0.0000
1.7778 0.7778 0.0000
1.7778 0.8889 0.0000
1.7778 1.0000 0.0000
2.0000 0.0000 0.0000
2.0000 0.1111 0.0000
2.0000 0.2222 0.0000
2.0000 0.3333 0.0000
2.0000 0.4444 0.0000
2.0000 0.5556 0.0000
2.0000 0.6667 0.0000
2.0000 0.7778 0.0000
2.0000 0.8889 0.0000
2.0000 1.0000 0.0000
0.1111 0.0556 0.0000
0.1111 0.1667 0.0000
0.1111 0.2778 0.0000
0.1111 0.3889 0.0000
0.1111 0.5000 0.0000
0.1111 0.6111 0.0000
0.1111 0.7222 0.0000
0.1111 0.8333 0.0000
0.1111 0.9444 0.0000
0.3333 0.0556 0.0000
0.3333 0.1667 0.0000
0.3333 0.2778 0.0000
0.3333 0.3889 0.0000
0.3333 0.5000 0.0000
0.3333 0.6111 0.0000
0.3333 0.7222 0.0000
0.3333 0.8333 0.0000
0.3333 0.9444 0.0000
0.5556 0.0556 0.0000
0.5556 0.1667 0.0000
0.5556 0.2778 0.0000
0.5556 0.3889 0.0000
0.5556 0.5000 0.0000
0.5556 0.6111 0.0000
0.5556 0.7222 0.0000
0.5556 0.8333 0.0000
0.5556 0.9444 0.0000
0.7778 0.0556 0.0000
0.7778 0.1667 0.0000
0.7778 0.2778 0.0000
0.7778 0.3889 0.0000
0.7778 0.5000 0.0000
0.7778 0.6111 0.0000
0.7778 0.7222 0.0000
0.7778 0.8333 0.0000
0.7778 0.9444 0.0000
1.0000 0.0556 0.0000
1.0000 0.1667 0.0000
1.0000 0.2778 0.0000
1.0000 0.3889 0.0000
1.0000 0.5000 0.0000
1.0000 0.6111 0.0000
1.0000 0.7222 0.0000
1.0000 0.8333 0.0000
1.0000 0.9444 0.0000
1.2222 0.0556 0.0000
1.2222 0.1667 0.0000
1.2222 0.2778 0.0000
1.2222 0.3889 0.0000
1.2222 0.5000 0.0000
1.2222 0.6111 0.0000
1.2222 0.7222 0.0000
1.2222 0.8333 0.0000
1.2222 0.9444 0.0000
1.4444 0.0556 0.0000
1.4444 0.1667 0.0000
1.4444 0.2778 0.0000
1.4444 0.3889 0.0000
1.4444 0.5000 0.0000
1.4444 0.6111 0.0000
1.4444 0.7222 0.0000
1.4444 0.8333 0.0000
1.4444 0.9444 0.0000
1.6667 0.0556 0.0000
1.6667 0.1667 0.0000
1.6667 0.2778 0.0000
1.6667 0.3889 0.0000
1.6667 0.5000 0.0000
1.6667 0.6111 0.0000
1.6667 0.7222 0.0000
1.6667 0.8333 0.0000
1.6667 0.9444 0.0000
1.8889 0.0556 0.0000
1.8889 0.1667 0.0000
1.8889 0.2778 0.0000
1.8889 0.3889 0.0000
1.8889 0.5000 0.0000
1.8889 0.6111 0.0000
1.8889 0.7222 0.0000
1.8889 0.8333 0.0000
1.8889 0.9444 0.0000
0.0000 0.0556 0.0000
0.0556 0.0278 0.0000
0.0556 0.0833 0.0000
0.0000 0.1667 0.0000
0.0556 0.1389 0.0000
0.0556 0.1944 0.0000
0.0000 0.2778 0.0000
0.0556 0.2500 0.0000
0.0556 0.3056 0.0000
0.0000 0.3889 0.0000
0.0556 0.3611 0.0000
0.0556 0.4167 0.0000
0.0000 0.5000 0.0000
0.0556 0.4722 0.0000
0.0556 0.5278 0.0000
0.0000 0.6111 0.0000
0.0556 0.5833 0.0000
0.0556 0.6389 0.0000
0.0000 0.7222 0.0000
0.0556 0.6944 0.0000
0.0556 0.7500 0.0000
0.0000 0.8333 0.0000
0.0556 0.8056 0.0000
0.0556 0.8611 0.0000
0.0000 0.9444 0.0000
0.0556 0.9167 0.0000
0.0556 0.9722 0.0000
0.2222 0.0556 0.0000
0.2778 0.0278 0.0000
0.2778 0.0833 0.0000
0.2222 0.1667 0.0000
0.2778 0.1389 0.0000
0.2778 0.1944 0.0000
0.2222 0.2778 0.0000
0.2778 0.2500 0.0000
0.2778 0.3056 0.0000
0.2222 0.3889 0.0000
0.2778 0.3611 0.0000
0.2778 0.4167 0.0000
0.2222 0.5000 0.0000
0.2778 0.4722 0.0000
0.2778 0.5278 0.0000
0.2222 0.6111 0.0000
0.2778 0.5833 0.0000
0.2778 0.6389 0.0000
0.2222 0.7222 0.0000
0.2778 0.6944 0.0000
0.2778 0.7500 0.0000
0.2222 0.8333 0.0000
0.2778 0.8056 0.0000
0.2778 0.8611 0.0000
0.2222 0.9444 0.0000
0.2778 0.9167 0.0000
0.2778 0.9722 0.0000
0.4444 0.0556 0.0000
0.5000 0.0278 0.0000
0.5000 0.0833 0.0000
0.4444 0.1667 0.0000
0.5000 0.1389 0.0000
0.5000 0.1944 0.0000
0.4444 0.2778 0.0000
0.5000 0.2500 0.0000
0.5000 0.3056 0.0000
0.4444 0.3889 0.0000
0.5000 0.3611 0.0000
0.5000 0.4167 0.0000
0.4444 0.5000 0.0000
0.5000 0.4722 0.0000
0.5000 0.5278 0.0000
0.4444 0.6111 0.0000
0.5000 0.5833 0.0000
0.5000 0.6389 0.0000
0.4444 0.7222 0.0000
0.5000 0.6944 0.0000
0.5000 0.7500 0.0000
0.4444 0.8333 0.0000
0.5000 0.8056 0.0000
0.5000 0.8611 0.0000
0.4444 0.9444 0.0000
0.5000 0.9167 0.0000
0.5000 0.9722 0.0000
0.6667 0.0556 0.0000
0.7222 0.0278 0.0000
0.7222 0.0833 0.0000
0.6667 0.1667 0.0000
0.7222 0.1389 0.0000
0.7222 0.1944 0.0000
0.6667 0.2778 0.0000
0.7222 0.2500 0.0000
0.7222 0.3056 0.0000
0.6667 0.3889 0.0000
0.7222 0.3611 0.0000
0.7222 0.4167 0.0000
0.6667 0.5000 0.0000
0.7222 0.4722 0.0000
0.7222 0.5278 0.0000
0.6667 0.6111 0.0000
0.7222 0.5833 0.0000
0.7222 0.6389 0.0000
0.6667 0.7222 0.0000
0.7222 0.6944 0.0000
0.7222 0.7500 0.0000
0.6667 0.8333 0.0000
0.7222 0.8056 0.0000
0.7222 0.8611 0.0000
0.6667 0.9444 0.0000
0.7222 0.9167 0.0000
0.7222 0.9722 0.0000
0.8889 0.0556 0.0000
0.9444 0.0278 0.0000
0.9444 0.0833 0.0000
0.8889 0.1667 0.0000
0.9444 0.1389 0.0000
0.9444 0.1944 0.0000
0.8889 0.2778 0.0000
0.9444 0.2500 0.0000
0.9444 0.3056 0.0000
0.8889 0.3889 0.0000
0.9444 0.3611 0.0000
0.9444 0.4167 0.0000
0.8889 0.5000 0.0000
0.9444 0.4722 0.0000
0.9444 0.5278 0.0000
0.8889 0.6111 0.0000
0.9444 0.5833 0.0000
0.9444 0.6389 0.0000
0.8889 0.7222 0.0000
0.9444 0.6944 0.0000
0.9444 0.7500 0.0000
0.8889 0.8333 0.0000
0.9444 0.8056 0.0000
0.9444 0.8611 0.0000
0.8889 0.9444 0.0000
0.9444 0.9167 0.0000
0.9444 0.9722 0.0000
1.1111 0.0556 0.0000
1.1667 0.0278 0.0000
1.1667 0.0833 0.0000
1.1111 0.1667 0.0000
1.1667 0.1389 0.0000
1.1667 0.1944 0.0000
1.1111 0.2778 0.0000
1.1667 0.2500 0.0000
1.1667 0.3056 0.0000
1.1111 0.3889 0.0000
1.1667 0.3611 0.0000
1.1667 0.4167 0.0000
1.1111 0.5000 0.0000
1.1667 0.4722 0.0000
1.1667 0.5278 0.0000
1.1111 0.6111 0.0000
1.1667 0.5833 0.0000
1.1667 0.6389 0.0000
1.1111 0.7222 0.0000
1.1667 0.6944 0.0000
1.1667 0.7500 0.0000
1.1111 0.8333 0.0000
1.1667 0.8056 0.0000
1.1667 0.8611 0.0000
1.1111 0.9444 0.0000
1.1667 0.9167 0.0000
1.1667 0.9722 0.0000
1.3333 0.0556 0.0000
1.3889 0.0278 0.0000
1.3889 0.0833 0.0000
1.3333 0.1667 0.0000
1.3889 0.1389 0.0000
1.3889 0.1944 0.0000
1.3333 0.2778 0.0000
1.3889 0.2500 0.0000
1.3889 0.3056 0.0000
1.3333 0.3889 0.0000
1.3889 0.3611 0.0000
1.3889 0.4167 0.0000
1.3333 0.5000 0.0000
1.3889 0.4722 0.0000
1.3889 0.5278 0.0000
1.3333 0.6111 0.0000
1.3889 0.5833 0.0000
1.3889 0.6389 0.0000
1.3333 0.7222 0.0000
1.3889 0.6944 0.0000
1.3889 0.7500 0.0000
1.3333 0.8333 0.0000
1.3889 0.8056 0.0000
1.3889 0.8611 0.0000
1.3333 0.9444 0.0000
1.3889 0.9167 0.0000
1.3889 0.9722 0.0000
1.5556 0.0556 0.0000
1.6111 0.0278 0.0000
1.6111 0.0833 0.0000
1.5556 0.1667 0.0000
1.6111 0.1389 0.0000
1.6111 0.1944 0.0000
1.5556 0.2778 0.0000
1.6111 0.2500 0.0000
1.6111 0.3056 0.0000
1.5556 0.3889 0.0000
1.6111 0.3611 0.0000
1.6111 0.4167 0.0000
1.5556 0.5000 0.0000
1.6111 0.4722 0.0000
1.6111 0.5278 0.0000
1.5556 0.6111 0.0000
1.6111 0.5833 0.0000
1.6111 0.6389 0.0000
1.5556 0.7222 0.0000
1.6111 0.6944 0.0000
1.6111 0.7500 0.0000
1.5556 0.8333 0.0000
1.6111 0.8056 0.0000
1.6111 0.8611 0.0000
1.5556 0.9444 0.0000
1.6111 0.9167 0.0000
1.6111 0.9722 0.0000
1.7778 0.0556 0.0000
1.8333 0.0278 0.0000
1.8333 0.0833 0.0000
1.7778 0.1667 0.0000
1.8333 0.1389 0.0000
1.8333 0.1944 0.0000
1.7778 0.2778 0.0000
1.8333 0.2500 0.0000
1.8333 0.3056 0.0000
1.7778 0.3889 0.0000
1.8333 0.3611 0.0000
1.8333 0.4167 0.0000
1.7778 0.5000 0.0000
1.8333 0.4722 0.0000
1.8333 0.5278 0.0000
1.7778 0.6111 0.0000
1.8333 0.5833 0.0000
1.8333 0.6389 0.0000
1.7778 0.7222 0.0000
1.8333 0.6944 0.0000
1.8333 0.7500 0.0000
1.7778 0.8333 0.0000
1.8333 0.8056 0.0000
1.8333 0.8611 0.0000
1.7778 0.9444 0.0000
1.8333 0.9167 0.0000
1.8333 0.9722 0.0000
0.1111 0.1111 0.0000
0.1667 0.0833 0.0000
0.1111 0.2222 0.0000
0.1667 0.1944 0.0000
0.1111 0.3333 0.0000
0.1667 0.3056 0.0000
0.1111 0.4444 0.0000
0.1667 0.4167 0.0000
0.1111 0.5556 0.0000
0.1667 0.5278 0.0000
0.1111 0.6667 0.0000
0.1667 0.6389 0.0000
0.1111 0.7778 0.0000
0.1667 0.7500 0.0000
0.1111 0.8889 0.0000
0.1667 0.8611 0.0000
0.1111 1.0000 0.0000
0.1667 0.9722 0.0000
0.3333 0.1111 0.0000
0.3889 0.0833 0.0000
0.3333 0.2222 0.0000
0.3889 0.1944 0.0000
0.3333 0.3333 0.0000
0.3889 0.3056 0.0000
0.3333 0.4444 0.0000
0.3889 0.4167 0.0000
0.3333 0.5556 0.0000
0.3889 0.5278 0.0000
0.3333 0.6667 0.0000
0.3889 0.6389 0.0000
0.3333 0.7778 0.0000
0.3889 0.7500 0.0000
0.3333 0.8889 0.0000
0.3889 0.8611 0.0000
0.3333 1.0000 0.0000
0.3889 0.9722 0.0000
0.5556 0.1111 0.0000
[...]
         <PointData>
            <DataArray Name="fValues" NumberOfComponents="3" format="ascii" type="Float64">
-1.06849e-25 -8.99311e-25        00000 
 1.20343e-25 -4.61195e-26        00000 
-7.01254e-26 -1.73392e-25        00000 
 4.28684e-25        00000        00000 
-2.96593e-25 -7.36080e-26        00000 
       00000 -4.89924e-25        00000 
 7.97306e-26  2.40152e-27        00000 
 2.47609e-25  3.05926e-26        00000 
       00000  6.15074e-26        00000 
-3.56163e-26  1.42465e-25        00000 
 9.11311e-11  3.68824e-09        00000 
 3.85434e-11  8.13804e-10        00000 
 4.03726e-10  1.51691e-09        00000 
-3.41252e-09 -1.89915e-09        00000 
-1.60850e-09 -4.55644e-10        00000 
-1.53734e-09  8.21714e-10        00000 
-7.57570e-10  4.17361e-10        00000 
-2.67799e-09  2.34897e-09        00000 
-1.18538e-09  5.01328e-10        00000 
-1.69254e-09 -9.68835e-09        00000 
 5.15831e-10  4.27760e-09        00000 
-8.75303e-10  2.16808e-09        00000 
 8.01620e-10 -2.10103e-09        00000 
 4.07965e-10 -2.89180e-09        00000 
-4.88100e-09 -3.38939e-09        00000 
 3.66835e-09  1.54571e-09        00000 
 1.21299e-09 -4.31257e-10        00000 
-1.13164e-09 -3.62620e-09        00000 
-5.42855e-11 -1.29084e-09        00000 
 4.05359e-10 -2.05947e-09        00000 
 5.92692e-10  6.22207e-09        00000 
 6.44597e-10  2.16711e-09        00000 
 1.26974e-09  1.07190e-09        00000 
-1.99222e-09 -3.61798e-10        00000 
-1.46029e-09 -3.07985e-11        00000 
 1.92019e-09  2.32772e-09        00000 
-9.74111e-10  1.19627e-10        00000 
-3.22070e-09 -2.12663e-09        00000 
-2.14460e-09 -1.23921e-09        00000 
-1.39137e-09  2.02647e-10        00000 
 6.70303e-10  3.90878e-09        00000 
-3.31454e-10  2.22202e-09        00000 
 2.97462e-10 -9.01842e-10        00000 
-7.67955e-10 -1.20484e-09        00000 
-4.28849e-09 -2.24253e-09        00000 
 5.12088e-10  1.93295e-09        00000 
 3.30346e-10  2.27930e-09        00000 
-7.57140e-10  3.77085e-11        00000 
 6.83684e-10  2.66090e-09        00000 
-1.62743e-09 -6.98890e-09        00000 
 3.71007e-09  1.51826e-09        00000 
 1.33275e-09  4.36813e-10        00000 
 1.01994e-09  1.68161e-09        00000 
-3.82968e-10  3.73959e-09        00000 
-4.41091e-10  3.51143e-10        00000 
 7.15488e-10  9.76407e-10        00000 
 1.14433e-09 -1.25349e-09        00000 
-5.55701e-10  7.67137e-10        00000 
-1.66970e-09 -4.42384e-11        00000 
-9.83082e-10 -1.92281e-09        00000 
-4.43094e-11 -1.57644e-09        00000 
 8.33211e-10 -1.71497e-09        00000 
 2.69284e-09 -1.06035e-09        00000 
-6.91841e-10  2.07718e-09        00000 
 8.80902e-10  1.80275e-09        00000 
-1.18700e-09  3.18082e-10        00000 
-3.51773e-09 -1.23625e-09        00000 
-2.67923e-09 -3.55679e-09        00000 
 9.67759e-10  1.25176e-10        00000 
 2.55785e-09 -1.50737e-09        00000 
 3.84830e-11 -3.47626e-09        00000 
 1.09850e-09 -2.01518e-09        00000 
 1.67478e-09  7.61844e-10        00000 
 1.73125e-09  1.34943e-09        00000 
 4.95731e-10  7.24597e-10        00000 
-1.25056e-11 -8.62954e-10        00000 
-1.19377e-09  2.46700e-11        00000 
 2.67514e-09 -6.18087e-10        00000 
 2.34576e-09 -1.42443e-09        00000 
 1.06564e-09 -3.95551e-09        00000 
-2.04693e-09  3.31522e-09        00000 
-3.40242e-09  4.42711e-09        00000 
-2.70637e-09  2.55241e-10        00000 
-2.94375e-09 -8.44793e-10        00000 
-3.19977e-09 -2.99946e-09        00000 
-1.34116e-09 -1.83488e-09        00000 
-1.57911e-10  5.64114e-10        00000 
-1.42302e-09  2.13123e-09        00000 
-1.54614e-11  1.62350e-09        00000 
-2.48624e-09  5.13069e-09        00000 
-1.08331e-09  9.04549e-10        00000 
 1.56649e-09  6.21270e-10        00000 
 1.12567e-09 -1.10064e-09        00000 
-4.39286e-10  1.63411e-10        00000 
-1.65096e-09  1.37679e-09        00000 
 1.45207e-09  4.99440e-10        00000 
-2.51646e-09  1.93712e-09        00000 
 2.31637e-09  3.11928e-11        00000 
-7.53630e-10  7.72289e-10        00000 
-1.04453e-09 -4.48665e-10        00000 
 2.12103e-09  1.61132e-09        00000 
 8.58709e-11  3.59521e-09        00000 
-4.28630e-10  3.36438e-09        00000 
 1.41151e-09  1.94803e-09        00000 
 3.59084e-09 -5.05711e-10        00000 
 2.18183e-09  1.76125e-09        00000 
 5.64334e-10 -8.72553e-10        00000 
-8.94507e-10 -1.42154e-09        00000 
-9.47225e-10 -4.27058e-11        00000 
-1.55402e-10  1.31384e-09        00000 
-3.59870e-09  1.64633e-09        00000 
-5.73490e-10  2.18497e-09        00000 
-2.10038e-09  2.61588e-09        00000 
-4.40000e-10  2.52890e-09        00000 
-1.33447e-10 -1.00677e-10        00000 
-4.18428e-10 -3.48521e-12        00000 
 1.89821e-10  6.63544e-10        00000 
-2.69261e-09  2.95410e-09        00000 
 2.04598e-09 -2.25754e-10        00000 
 9.06027e-10  2.49784e-09        00000 
 1.91874e-09  2.73602e-09        00000 
 1.78479e-09  3.65214e-09        00000 
 9.21958e-10  1.13470e-09        00000 
 1.98787e-09  2.10079e-09        00000 
 8.29509e-10  3.02784e-09        00000 
-2.31149e-09  1.11395e-09        00000 
-1.14134e-10 -6.45706e-10        00000 
 1.39781e-09 -2.02832e-09        00000 
-2.20017e-09 -2.55426e-10        00000 
-9.89758e-10 -1.81718e-10        00000 
-4.73953e-09 -2.93988e-09        00000 
 9.56817e-10 -1.85018e-10        00000 
-5.11335e-10  9.20103e-10        00000 
 4.78508e-10  1.09479e-09        00000 
-3.71776e-09 -2.93601e-09        00000 
-3.04696e-09 -3.13339e-09        00000 
-1.06610e-10 -1.06672e-09        00000 
-8.52353e-10 -2.87185e-09        00000 
 1.43091e-09 -2.39863e-09        00000 
-2.12457e-09 -7.13975e-10        00000 
-8.27640e-10 -2.74105e-09        00000 
 7.64004e-10 -2.51545e-09        00000 
 3.18508e-10 -5.47580e-10        00000 
-1.73959e-09 -2.58405e-09        00000 
 9.17311e-11  1.47200e-09        00000 
 7.87148e-10  7.20263e-10        00000 
 3.77358e-09  1.23185e-09        00000 
 3.81141e-09 -1.63254e-10        00000 
 3.41402e-09  1.49146e-09        00000 
 2.12754e-09  2.01114e-09        00000 
-3.28271e-11  1.03684e-09        00000 
 3.57815e-09  2.16384e-09        00000 
-9.07733e-10 -1.55578e-09        00000 
-3.32221e-10 -6.17270e-10        00000 
 6.04338e-10 -6.67342e-11        00000 
-2.01402e-09  2.08759e-09        00000 
-1.25067e-09  1.54435e-09        00000 
 1.55450e-09  3.38312e-09        00000 
 9.98284e-10  4.73520e-09        00000 
 6.36845e-10  3.93983e-09        00000 
-7.72218e-10  1.68910e-09        00000 
-1.95419e-09  2.07154e-09        00000 
-1.06706e-09  5.15143e-11        00000 
-2.33099e-09 -1.78579e-09        00000 
 7.11225e-10  7.82634e-10        00000 
 5.63375e-10 -7.33635e-10        00000 
-1.37504e-09  1.72832e-10        00000 
-1.46076e-09 -1.14596e-10        00000 
-3.69539e-10 -2.04729e-09        00000 
-3.31806e-09  3.40648e-10        00000 
-2.49099e-09  1.94474e-09        00000 
-1.58144e-09  2.31475e-09        00000 
 1.98009e-09  4.30782e-09        00000 
 1.82530e-09  1.60118e-09        00000 
-1.36657e-09  1.38296e-09        00000 
-5.74175e-10  9.80975e-11        00000 
-6.18456e-11 -1.54111e-09        00000 
-1.33286e-09 -1.47578e-09        00000 
-2.13174e-09 -5.36176e-11        00000 
 3.69198e-10 -2.12850e-09        00000 
-2.24134e-09 -4.11650e-09        00000 
-2.18806e-26  4.65889e-25        00000 
-2.47816e-09 -3.66755e-09        00000 
-2.53168e-09  2.94790e-10        00000 
-1.33715e-25 -1.89206e-25        00000 
 7.80838e-10 -1.89448e-11        00000 
 3.29382e-10  1.13521e-09        00000 
 2.90806e-25  1.30863e-25        00000 
-7.33900e-10  4.30789e-11        00000 
 1.61509e-09  9.10942e-10        00000 
-5.61260e-25  3.61235e-25        00000 
 6.91800e-10 -1.70539e-09        00000 
-1.88310e-09  1.43661e-09        00000 
-8.72417e-26 -1.74483e-25        00000 
-7.16942e-10 -1.53155e-09        00000 
-1.22187e-09 -1.59799e-09        00000 
 3.35678e-25  5.77609e-26        00000 
-8.37505e-10 -1.29360e-09        00000 
-2.07771e-09 -5.18781e-10        00000 
 7.27014e-27  5.81611e-26        00000 
-4.68616e-11  9.65783e-10        00000 
 1.13683e-09  7.32661e-11        00000 
-2.32645e-25 -5.81611e-26        00000 
 8.87841e-10  9.34099e-10        00000 
-1.24756e-09 -8.71061e-10        00000 
 1.67055e-25 -1.11832e-26        00000 
-1.33385e-09 -7.47693e-10        00000 
-6.61947e-10 -6.35133e-10        00000 
 2.86562e-11 -1.40288e-09        00000 
-2.57908e-09 -3.92208e-09        00000 
-1.03506e-09  2.46775e-10        00000 
-3.12041e-09 -3.20293e-09        00000 
-1.71433e-09  1.04318e-09        00000 
-5.27905e-10  6.57986e-10        00000 
 2.24201e-10  1.66837e-09        00000 
-1.68896e-10  1.22374e-09        00000 
 4.44743e-10  1.49031e-09        00000 
-8.56136e-10  3.96089e-09        00000 
 1.10364e-09  1.03573e-09        00000 
-8.97387e-10  7.23876e-10        00000 
-1.77946e-09  1.35498e-09        00000 
 1.02713e-09  5.41707e-10        00000 
-1.62761e-09  1.12839e-09        00000 
-2.85940e-09 -4.06972e-10        00000 
-1.93950e-10  1.33968e-09        00000 
-9.69784e-11 -1.23014e-09        00000 
-1.16357e-09  3.97080e-10        00000 
-7.56138e-10  1.30236e-09        00000 
-1.47553e-09 -1.79437e-09        00000 
-2.08591e-09 -1.56847e-09        00000 
-6.46228e-10  2.54007e-09        00000 
 1.19001e-09  7.51898e-10        00000 
-3.00149e-09  3.21208e-09        00000 
 8.87095e-10 -2.60063e-09        00000 
-7.80521e-10  8.94673e-09        00000 
-1.57127e-09 -1.18194e-09        00000 
-2.35018e-09 -1.87379e-09        00000 
-1.36017e-09  1.38180e-09        00000 
-5.36708e-09 -2.33535e-09        00000 
 2.04217e-10  1.20257e-09        00000 
 3.42532e-09  1.80288e-09        00000 
-1.44730e-09  2.15266e-10        00000 
-6.83876e-10  1.21398e-09        00000 
-1.36230e-09 -3.28500e-09        00000 
-3.50438e-09  7.76421e-10        00000 
-2.23210e-10  5.64125e-10        00000 
-2.08706e-09 -1.25281e-09        00000 
-1.62652e-09 -1.81706e-09        00000 
 2.52003e-09  2.10133e-09        00000 
 2.20297e-09 -2.84794e-10        00000 
-5.11516e-10 -1.71348e-09        00000 
 1.55320e-09 -6.64542e-10        00000 
-1.42694e-09  3.71241e-10        00000 
-4.85336e-11 -2.43303e-09        00000 
-2.56583e-09 -7.72230e-10        00000 
-2.26763e-09  1.23516e-09        00000 
-1.12215e-09 -3.76835e-10        00000 
 1.05216e-09  2.63304e-09        00000 
-7.47207e-11 -2.83030e-10        00000 
 3.02023e-10  3.10358e-10        00000 
-8.91596e-10  7.00101e-10        00000 
-2.08798e-09 -1.60509e-09        00000 
-1.79108e-09 -2.61246e-09        00000 
 9.59446e-10 -7.01709e-09        00000 
-2.41315e-09  1.80828e-09        00000 
-4.29672e-10 -1.17780e-09        00000 
 1.01089e-09  1.06365e-09        00000 
 1.06314e-09  1.84935e-09        00000 
 1.94732e-09  1.32217e-09        00000 
-7.94344e-10  1.80069e-10        00000 
-5.83128e-10 -1.68018e-09        00000 
-3.48671e-09 -5.43533e-10        00000 
 6.46580e-10 -1.39977e-09        00000 
-1.72321e-10 -2.21882e-09        00000 
 1.61558e-09 -2.73075e-09        00000 
-5.22306e-10  2.32653e-09        00000 
-2.76614e-10  2.78787e-09        00000 
 8.72802e-10 -1.57254e-09        00000 
-6.87692e-10 -1.11901e-09        00000 
-1.06262e-09  1.42378e-09        00000 
-1.41802e-09  6.25956e-10        00000 
-2.95844e-09  2.58764e-09        00000 
-4.23020e-09  9.54454e-10        00000 
-2.29485e-09 -1.12021e-09        00000 
-3.72040e-10  2.57443e-09        00000 
 4.43038e-10 -2.40700e-10        00000 
-2.20400e-09  1.54894e-09        00000 
-1.34924e-09  2.33047e-09        00000 
-9.86716e-10 -2.15712e-09        00000 
 2.38580e-09 -2.39762e-09        00000 
-4.67466e-10 -1.22742e-09        00000 
-8.58222e-10 -5.77870e-10        00000 
-9.20025e-10 -2.84116e-09        00000 
-4.69797e-10  1.09363e-09        00000 
 3.46020e-10  2.02204e-09        00000 
 2.14266e-09  2.07233e-10        00000 
-2.38191e-09 -2.29274e-09        00000 
-2.94223e-09 -9.52774e-10        00000 
-1.86705e-09 -6.49564e-10        00000 
-2.06580e-09  5.33539e-10        00000 
-8.90992e-10  1.29624e-10        00000 
-2.01469e-09 -9.77430e-10        00000 
-2.12739e-09  1.83504e-09        00000 
-2.63370e-09  2.56449e-09        00000 
-6.67086e-10 -1.42765e-09        00000 
-2.53638e-09 -1.72105e-09        00000 
-1.03284e-09  3.70316e-09        00000 
-7.50006e-10  9.49957e-10        00000 
-6.07756e-10 -9.98583e-10        00000 
-5.68789e-10  1.04231e-09        00000 
-4.87333e-10 -1.54077e-09        00000 
 1.94528e-09  1.95597e-09        00000 
 1.91622e-09  2.31796e-09        00000 
-1.47494e-09  1.82802e-09        00000 
-1.44894e-09 -3.83875e-09        00000 
-3.39625e-09  7.84399e-09        00000 
 5.67539e-10 -6.62581e-10        00000 
 1.03481e-09 -8.46683e-10        00000 
-2.83677e-10 -1.01577e-09        00000 
-1.42062e-09 -6.64109e-10        00000 
 4.36503e-09  9.92699e-10        00000 
 3.13076e-09  2.43428e-09        00000 
-1.20158e-09 -1.37185e-09        00000 
-1.75189e-09 -1.73086e-09        00000 
-2.44640e-09  4.21425e-09        00000 
 1.44443e-09  2.55248e-10        00000 
-3.65958e-10  2.35686e-09        00000 
-1.12493e-10  1.63573e-09        00000 
-3.30061e-10 -1.80920e-09        00000 
 5.97169e-10  3.09328e-09        00000 
 2.04807e-10  2.60457e-09        00000 
 5.15286e-10 -1.70978e-09        00000 
-6.73282e-10 -2.13805e-09        00000 
-1.02733e-09 -9.71525e-11        00000 
 6.06676e-10 -1.88589e-09        00000 
-6.48839e-10 -3.59800e-09        00000 
 2.70424e-09  3.61744e-10        00000 
-3.80219e-09 -3.51356e-10        00000 
 3.32639e-09 -1.53430e-09        00000 
 1.85395e-09  2.35281e-09        00000 
 1.15431e-09  3.07845e-09        00000 
 1.71457e-09 -1.50372e-10        00000 
 3.97273e-09  1.11345e-09        00000 
 2.74858e-09 -2.94087e-10        00000 
 4.05515e-09  3.98279e-09        00000 
 2.84126e-09  4.55231e-10        00000 
 1.78403e-09  7.86365e-10        00000 
 1.35725e-09  9.45960e-10        00000 
 9.57925e-10  7.27738e-10        00000 
 1.30899e-09 -2.23132e-10        00000 
 9.82482e-10  2.38434e-09        00000 
 1.70530e-09  6.76394e-10        00000 
 1.02750e-09 -1.66357e-09        00000 
 1.53085e-09  3.99680e-10        00000 
 1.04592e-09  8.94346e-10        00000 
 7.37060e-10 -1.83508e-09        00000 
 1.25425e-09  3.43533e-10        00000 
 8.37360e-10  5.01331e-10        00000 
-4.09756e-10  1.87739e-09        00000 
-6.23601e-10 -1.28622e-09        00000 
-1.99395e-09 -2.32390e-09        00000 
-2.29477e-09  1.34975e-09        00000 
 3.66299e-10 -1.51071e-09        00000 
 1.43748e-09 -9.48816e-10        00000 
 1.67114e-09  3.18974e-09        00000 
 2.76083e-09  1.10181e-09        00000 
 9.44510e-10  3.74428e-10        00000 
 2.29852e-09  8.90118e-10        00000 
-8.96364e-10 -2.67943e-09        00000 
 2.25495e-09  5.88500e-09        00000 
 1.65434e-09  3.13035e-09        00000 
 2.29056e-09  1.07241e-09        00000 
 1.46414e-09 -5.81537e-10        00000 
 1.35663e-09  2.40155e-09        00000 
 7.79096e-10 -2.53479e-10        00000 
 1.83311e-09  4.86992e-10        00000 
 9.80378e-10 -4.32422e-10        00000 
 1.68291e-09 -3.95104e-10        00000 
 2.95927e-10  1.46760e-09        00000 
-3.81135e-10 -1.30346e-09        00000 
-9.34307e-10 -2.16033e-10        00000 
 3.29607e-10 -6.28788e-10        00000 
-2.76432e-09  2.23082e-09        00000 
 2.38003e-09  2.77048e-09        00000 
 3.33111e-09  1.27797e-09        00000 
 5.05281e-10  1.34069e-09        00000 
 3.06019e-09 -5.21737e-10        00000 
 2.24242e-09 -2.23281e-10        00000 
-7.37714e-10 -4.96584e-10        00000 
 4.11842e-09  1.51246e-09        00000 
-1.82695e-10 -1.64314e-09        00000 
 2.53294e-09  8.22979e-10        00000 
 1.93575e-09 -9.04492e-10        00000 
 2.34908e-09  1.11919e-09        00000 
-2.79044e-10  2.51565e-09        00000 
 3.10209e-09 -3.42317e-09        00000 
 9.26832e-11  5.91547e-09        00000 
-7.98821e-10 -1.24788e-09        00000 
-1.55978e-09  3.58045e-09        00000 
 9.47239e-10  5.18824e-10        00000 
-1.56820e-09 -1.29258e-09        00000 
-8.66180e-10  1.77118e-09        00000 
 7.54881e-10  2.04338e-10        00000 
-5.37568e-10 -1.48303e-09        00000 
-1.16529e-10 -2.69750e-10        00000 
 1.62345e-09 -4.11390e-10        00000 
-1.82285e-09  2.29358e-09        00000 
 1.04257e-09 -8.96719e-10        00000 
-2.04676e-09 -3.27248e-10        00000 
-3.14020e-09  1.61975e-09        00000 
 1.93035e-09 -3.36541e-10        00000 
 1.47321e-09 -1.73300e-09        00000 
-8.59529e-10  1.79736e-09        00000 
 1.40039e-09 -7.25962e-10        00000 
-1.92188e-10 -1.09608e-10        00000 
-1.53233e-09 -9.48148e-11        00000 
-1.14449e-09  1.40179e-09        00000 
 5.54792e-10  1.97815e-11        00000 
-5.23073e-10 -1.53877e-09        00000 
-6.28575e-10  2.56176e-09        00000 
-1.14903e-09 -8.81514e-10        00000 
 3.13491e-10 -1.29710e-09        00000 
-1.86708e-09  4.46572e-09        00000 
-3.33660e-09 -7.60747e-09        00000 
-2.72375e-09 -5.54274e-10        00000 
-9.29713e-10 -1.38809e-09        00000 
-2.41748e-09 -3.48250e-09        00000 
-3.80055e-09 -2.89042e-09        00000 
-9.09496e-10 -2.11903e-09        00000 
-2.47317e-11 -1.07555e-09        00000 
 1.81792e-09 -3.19281e-09        00000 
-7.49897e-10 -6.58813e-10        00000 
 5.83951e-10 -1.59486e-09        00000 
 7.07315e-10  3.45706e-10        00000 
 1.82228e-11  2.04647e-09        00000 
 2.15395e-10 -1.70019e-09        00000 
 1.00739e-09 -8.03232e-10        00000 
-6.13259e-10 -1.22462e-09        00000 
-9.37765e-10 -7.19107e-10        00000 
-8.08252e-10 -1.36577e-10        00000 
 6.57524e-10 -3.02168e-09        00000 
-2.15401e-09  5.92444e-09        00000 
-1.86995e-09 -1.10534e-09        00000 
-7.78759e-10  1.42832e-09        00000 
-2.13979e-09 -1.46188e-09        00000 
 1.32745e-09 -1.26580e-09        00000 
-4.08985e-10 -8.19172e-10        00000 
 1.00202e-09 -1.78121e-09        00000 
-1.04204e-09 -1.25584e-09        00000 
 1.23420e-09 -1.87838e-09        00000 
 1.97409e-09  8.55746e-10        00000 
-1.08518e-10  8.80675e-10        00000 
-2.03275e-09 -1.23554e-10        00000 
-6.52916e-10 -3.09836e-09        00000 
 3.91307e-10 -3.35414e-09        00000 
-1.67047e-09 -2.59998e-09        00000 
-7.44613e-10 -9.90191e-10        00000 
-9.04108e-10  2.38742e-11        00000 
-1.10282e-09 -5.95411e-09        00000 
-1.75135e-09  3.49530e-09        00000 
-6.51909e-10  1.49663e-09        00000 
-1.34225e-09 -3.13651e-09        00000 
 2.94229e-10 -2.07407e-10        00000 
 9.88392e-11 -2.76171e-09        00000 
 8.76497e-10  1.51974e-09        00000 
 5.01494e-10 -1.15058e-09        00000 
-4.97955e-10  1.41488e-09        00000 
-1.19933e-09 -3.30283e-09        00000 
-3.18465e-11 -1.37255e-09        00000 
-2.46605e-09 -2.07383e-09        00000 
-3.14465e-10 -1.34872e-10        00000 
 3.80720e-10  1.87498e-10        00000 
-1.60494e-09 -1.21403e-10        00000 
-2.70532e-09 -3.26742e-09        00000 
-6.84722e-10  8.79758e-10        00000 
 1.12646e-09 -9.21517e-10        00000 
-1.34751e-09  3.55314e-09        00000 
 1.58447e-09 -2.72072e-09        00000 
-1.46017e-10  6.37222e-10        00000 
-1.01865e-09  8.87610e-10        00000 
-2.95925e-09 -7.54635e-10        00000 
-1.74065e-09  9.06567e-10        00000 
-1.83260e-09  4.30379e-09        00000 
 8.74183e-10  1.48350e-09        00000 
-1.01336e-09  2.44728e-09        00000 
 3.97376e-11  2.21291e-10        00000 
-1.23336e-10  3.49354e-09        00000 
-2.39246e-09  2.75426e-09        00000 
 6.44960e-10  4.58681e-09        00000 
 2.50723e-09  2.44833e-09        00000 
-3.24604e-10  2.14664e-09        00000 
-1.22607e-09  1.19965e-09        00000 
 7.05526e-10  2.35703e-09        00000 
 1.83225e-09  3.98140e-09        00000 
-4.79247e-10 -1.54955e-09        00000 
 4.94717e-09  6.04726e-09        00000 
 1.98884e-09  1.96861e-09        00000 