<?xml version="1.0" encoding="utf-8"?>
<VTKFile byte_order="LittleEndian" type="UnstructuredGrid" version="0.1">
   <UnstructuredGrid>
      <Piece NumberOfCells="1296" NumberOfPoints="685">
         <Points>
            <DataArray Name="Points" NumberOfComponents="3" format="ascii" type="Float32">
0.0000 0.0000 0.0000
0.0000 0.1111 0.0000
0.0000 0.2222 0.0000
0.0000 0.3333 0.0000
0.0000 0.4444 0.0000
0.0000 0.5556 0.0000
0.0000 0.6667 0.0000
0.0000 0.7778 0.0000
0.0000 0.8889 0.0000
0.0000 1.0000 0.0000
0.2222 0.0000 0.0000
0.2222 0.1111 0.0000
0.2222 0.2222 0.0000
0.2222 0.3333 0.0000
0.2222 0.4444 0.0000
0.2222 0.5556 0.0000
0.2222 0.6667 0.0000
0.2222 0.7778 0.0000
0.2222 0.8889 0.0000
0.2222 1.0000 0.0000
0.4444 0.0000 0.0000
0.4444 0.1111 0.0000
0.4444 0.2222 0.0000
0.4444 0.3333 0.0000
0.4444 0.4444 0.0000
0.4444 0.5556 0.0000
0.4444 0.6667 0.0000
0.4444 0.7778 0.0000
0.4444 0.8889 0.0000
0.4444 1.0000 0.0000
0.6667 0.0000 0.0000
0.6667 0.1111 0.0000
0.6667 0.2222 0.0000
0.6667 0.3333 0.0000
0.6667 0.4444 0.0000
0.6667 0.5556 0.0000
0.6667 0.6667 0.0000
0.6667 0.7778 0.0000
0.6667 0.8889 0.0000
0.6667 1.0000 0.0000
0.8889 0.0000 0.0000
0.8889 0.1111 0.0000
0.8889 0.2222 0.0000
0.8889 0.3333 0.0000
0.8889 0.4444 0.0000
0.8889 0.5556 0.0000
0.8889 0.6667 0.0000
0.8889 0.7778 0.0000
0.8889 0.8889 0.0000
0.8889 1.0000 0.0000
1.1111 0.0000 0.0000
1.1111 0.1111 0.0000
1.1111 0.2222 0.0000
1.1111 0.3333 0.0000
1.1111 0.4444 0.0000
1.1111 0.5556 0.0000
1.1111 0.6667 0.0000
1.1111 0.7778 0.0000
1.1111 0.8889 0.0000
1.1111 1.0000 0.0000
1.3333 0.0000 0.0000
1.3333 0.1111 0.0000
1.3333 0.2222 0.0000
1.3333 0.3333 0.0000
1.3333 0.4444 0.0000
1.3333 0.5556 0.0000
1.3333 0.6667 0.0000
1.3333 0.7778 0.0000
1.3333 0.8889 0.0000
1.3333 1.0000 0.0000
1.5556 0.0000 0.0000
1.5556 0.1111 0.0000
1.5556 0.2222 0.0000
1.5556 0.3333 0.0000
1.5556 0.4444 0.0000
1.5556 0.5556 0.0000
1.5556 0.6667 0.0000
1.5556 0.7778 0.0000
1.5556 0.8889 0.0000
1.5556 1.0000 0.0000
1.7778 0.0000 0.0000
1.7778 0.1111 0.0000
1.7778 0.2222 0.0000
1.7778 0.3333 0.0000
1.7778 0.4444 0.0000
1.7778 0.5556 0.0000
1.7778 0.6667 0.0000
1.7778 0.7778 0.0000
1.7778 0.8889 0.0000
1.7778 1.0000 0.0000
2.0000 0.0000 0.0000
2.0000 0.1111 0.0000
2.0000 0.2222 0.0000
2.0000 0.3333 0.0000
2.0000 0.4444 0.0000
2.0000 0.5556 0.0000
2.0000 0.6667 0.0000
2.0000 0.7778 0.0000
2.0000 0.8889 0.0000
2.0000 1.0000 0.0000
0.1111 0.0556 0.0000
0.1111 0.1667 0.0000
0.1111 0.2778 0.0000
0.1111 0.3889 0.0000
0.1111 0.5000 0.0000
0.1111 0.6111 0.0000
0.1111 0.7222 0.0000
0.1111 0.8333 0.0000
0.1111 0.9444 0.0000
0.3333 0.0556 0.0000
0.3333 0.1667 0.0000
0.3333 0.2778 0.0000
0.3333 0.3889 0.0000
0.3333 0.5000 0.0000
0.3333 0.6111 0.0000
0.3333 0.7222 0.0000
0.3333 0.8333 0.0000
0.3333 0.9444 0.0000
0.5556 0.0556 0.0000
0.5556 0.1667 0.0000
0.5556 0.2778 0.0000
0.5556 0.3889 0.0000
0.5556 0.5000 0.0000
0.5556 0.6111 0.0000
0.5556 0.7222 0.0000
0.5556 0.8333 0.0000
0.5556 0.9444 0.0000
0.7778 0.0556 0.0000
0.7778 0.1667 0.0000
0.7778 0.2778 0.0000
0.7778 0.3889 0.0000
0.7778 0.5000 0.0000
0.7778 0.6111 0.0000
0.7778 0.7222 0.0000
0.7778 0.8333 0.0000
0.7778 0.9444 0.0000
1.0000 0.0556 0.0000
1.0000 0.1667 0.0000
1.0000 0.2778 0.0000
1.0000 0.3889 0.0000
1.0000 0.5000 0.0000
1.0000 0.6111 0.0000
1.0000 0.7222 0.0000
1.0000 0.8333 0.0000
1.0000 0.9444 0.0000
1.2222 0.0556 0.0000
1.2222 0.1667 0.0000
1.2222 0.2778 0.0000
1.2222 0.3889 0.0000
1.2222 0.5000 0.0000
1.2222 0.6111 0.0000
1.2222 0.7222 0.0000
1.2222 0.8333 0.0000
1.2222 0.9444 0.0000
1.4444 0.0556 0.0000
1.4444 0.1667 0.0000
1.4444 0.2778 0.0000
1.4444 0.3889 0.0000
1.4444 0.5000 0.0000
1.4444 0.6111 0.0000
1.4444 0.7222 0.0000
1.4444 0.8333 0.0000
1.4444 0.9444 0.0000
1.6667 0.0556 0.0000
1.6667 0.1667 0.0000
1.6667 0.2778 0.0000
1.6667 0.3889 0.0000
1.6667 0.5000 0.0000
1.6667 0.6111 0.0000
1.6667 0.7222 0.0000
1.6667 0.8333 0.0000
1.6667 0.9444 0.0000
1.8889 0.0556 0.0000
1.8889 0.1667 0.0000
1.8889 0.2778 0.0000
1.8889 0.3889 0.0000
1.8889 0.5000 0.0000
1.8889 0.6111 0.0000
1.8889 0.7222 0.0000
1.8889 0.8333 0.0000
1.8889 0.9444 0.0000
0.0000 0.0556 0.0000
0.0556 0.0278 0.0000
0.0556 0.0833 0.0000
0.0000 0.1667 0.0000
0.0556 0.1389 0.0000
0.0556 0.1944 0.0000
0.0000 0.2778 0.0000
0.0556 0.2500 0.0000
0.0556 0.3056 0.0000
0.0000 0.3889 0.0000
0.0556 0.3611 0.0000
0.0556 0.4167 0.0000
0.0000 0.5000 0.0000
0.0556 0.4722 0.0000
0.0556 0.5278 0.0000
0.0000 0.6111 0.0000
0.0556 0.5833 0.0000
0.0556 0.6389 0.0000
0.0000 0.7222 0.0000
0.0556 0.6944 0.0000
0.0556 0.7500 0.0000
0.0000 0.8333 0.0000
0.0556 0.8056 0.0000
0.0556 0.8611 0.0000
0.0000 0.9444 0.0000
0.0556 0.9167 0.0000
0.0556 0.9722 0.0000
0.2222 0.0556 0.0000
0.2778 0.0278 0.0000
0.2778 0.0833 0.0000
0.2222 0.1667 0.0000
0.2778 0.1389 0.0000
0.2778 0.1944 0.0000
0.2222 0.2778 0.0000
0.2778 0.2500 0.0000
0.2778 0.3056 0.0000
0.2222 0.3889 0.0000
0.2778 0.3611 0.0000
0.2778 0.4167 0.0000
0.2222 0.5000 0.0000
0.2778 0.4722 0.0000
0.2778 0.5278 0.0000
0.2222 0.6111 0.0000
0.2778 0.5833 0.0000
0.2778 0.6389 0.0000
0.2222 0.7222 0.0000
0.2778 0.6944 0.0000
0.2778 0.7500 0.0000
0.2222 0.8333 0.0000
0.2778 0.8056 0.0000
0.2778 0.8611 0.0000
0.2222 0.9444 0.0000
0.2778 0.9167 0.0000
0.2778 0.9722 0.0000
0.4444 0.0556 0.0000
0.5000 0.0278 0.0000
0.5000 0.0833 0.0000
0.4444 0.1667 0.0000
0.5000 0.1389 0.0000
0.5000 0.1944 0.0000
0.4444 0.2778 0.0000
0.5000 0.2500 0.0000
0.5000 0.3056 0.0000
0.4444 0.3889 0.0000
0.5000 0.3611 0.0000
0.5000 0.4167 0.0000
0.4444 0.5000 0.0000
0.5000 0.4722 0.0000
0.5000 0.5278 0.0000
0.4444 0.6111 0.0000
0.5000 0.5833 0.0000
0.5000 0.6389 0.0000
0.4444 0.7222 0.0000
0.5000 0.6944 0.0000
0.5000 0.7500 0.0000
0.4444 0.8333 0.0000
0.5000 0.8056 0.0000
0.5000 0.8611 0.0000
0.4444 0.9444 0.0000
0.5000 0.9167 0.0000
0.5000 0.9722 0.0000
0.6667 0.0556 0.0000
0.7222 0.0278 0.0000
0.7222 0.0833 0.0000
0.6667 0.1667 0.0000
0.7222 0.1389 0.0000
0.7222 0.1944 0.0000
0.6667 0.2778 0.0000
0.7222 0.2500 0.0000
0.7222 0.3056 0.0000
0.6667 0.3889 0.0000
0.7222 0.3611 0.0000
0.7222 0.4167 0.0000
0.6667 0.5000 0.0000
0.7222 0.4722 0.0000
0.7222 0.5278 0.0000
0.6667 0.6111 0.0000
0.7222 0.5833 0.0000
0.7222 0.6389 0.0000
0.6667 0.7222 0.0000
0.7222 0.6944 0.0000
0.7222 0.7500 0.0000
0.6667 0.8333 0.0000
0.7222 0.8056 0.0000
0.7222 0.8611 0.0000
0.6667 0.9444 0.0000
0.7222 0.9167 0.0000
0.7222 0.9722 0.0000
0.8889 0.0556 0.0000
0.9444 0.0278 0.0000
0.9444 0.0833 0.0000
0.8889 0.1667 0.0000
0.9444 0.1389 0.0000
0.9444 0.1944 0.0000
0.8889 0.2778 0.0000
0.9444 0.2500 0.0000
0.9444 0.3056 0.0000
0.8889 0.3889 0.0000
0.9444 0.3611 0.0000
0.9444 0.4167 0.0000
0.8889 0.5000 0.0000
0.9444 0.4722 0.0000
0.9444 0.5278 0.0000
0.8889 0.6111 0.0000
0.9444 0.5833 0.0000
0.9444 0.6389 0.0000
0.8889 0.7222 0.0000
0.9444 0.6944 0.0000
0.9444 0.7500 0.0000
0.8889 0.8333 0.0000
0.9444 0.8056 0.0000
0.9444 0.8611 0.0000
0.8889 0.9444 0.0000
0.9444 0.9167 0.0000
0.9444 0.9722 0.0000
1.1111 0.0556 0.0000
1.1667 0.0278 0.0000
1.1667 0.0833 0.0000
1.1111 0.1667 0.0000
1.1667 0.1389 0.0000
1.1667 0.1944 0.0000
1.1111 0.2778 0.0000
1.1667 0.2500 0.0000
1.1667 0.3056 0.0000
1.1111 0.3889 0.0000
1.1667 0.3611 0.0000
1.1667 0.4167 0.0000
1.1111 0.5000 0.0000
1.1667 0.4722 0.0000
1.1667 0.5278 0.0000
1.1111 0.6111 0.0000
1.1667 0.5833 0.0000
1.1667 0.6389 0.0000
1.1111 0.7222 0.0000
1.1667 0.6944 0.0000
1.1667 0.7500 0.0000
1.1111 0.8333 0.0000
1.1667 0.8056 0.0000
1.1667 0.8611 0.0000
1.1111 0.9444 0.0000
1.1667 0.9167 0.0000
1.1667 0.9722 0.0000
1.3333 0.0556 0.0000
1.3889 0.0278 0.0000
1.3889 0.0833 0.0000
1.3333 0.1667 0.0000
1.3889 0.1389 0.0000
1.3889 0.1944 0.0000
1.3333 0.2778 0.0000
1.3889 0.2500 0.0000
1.3889 0.3056 0.0000
1.3333 0.3889 0.0000
1.3889 0.3611 0.0000
1.3889 0.4167 0.0000
1.3333 0.5000 0.0000
1.3889 0.4722 0.0000
1.3889 0.5278 0.0000
1.3333 0.6111 0.0000
1.3889 0.5833 0.0000
1.3889 0.6389 0.0000
1.3333 0.7222 0.0000
1.3889 0.6944 0.0000
1.3889 0.7500 0.0000
1.3333 0.8333 0.0000
1.3889 0.8056 0.0000
1.3889 0.8611 0.0000
1.3333 0.9444 0.0000
1.3889 0.9167 0.0000
1.3889 0.9722 0.0000
1.5556 0.0556 0.0000
1.6111 0.0278 0.0000
1.6111 0.0833 0.0000
1.5556 0.1667 0.0000
1.6111 0.1389 0.0000
1.6111 0.1944 0.0000
1.5556 0.2778 0.0000
1.6111 0.2500 0.0000
1.6111 0.3056 0.0000
1.5556 0.3889 0.0000
1.6111 0.3611 0.0000
1.6111 0.4167 0.0000
1.5556 0.5000 0.0000
1.6111 0.4722 0.0000
1.6111 0.5278 0.0000
1.5556 0.6111 0.0000
1.6111 0.5833 0.0000
1.6111 0.6389 0.0000
1.5556 0.7222 0.0000
1.6111 0.6944 0.0000
1.6111 0.7500 0.0000
1.5556 0.8333 0.0000
1.6111 0.8056 0.0000
1.6111 0.8611 0.0000
1.5556 0.9444 0.0000
1.6111 0.9167 0.0000
1.6111 0.9722 0.0000
1.7778 0.0556 0.0000
1.8333 0.0278 0.0000
1.8333 0.0833 0.0000
1.7778 0.1667 0.0000
1.8333 0.1389 0.0000
1.8333 0.1944 0.0000
1.7778 0.2778 0.0000
1.8333 0.2500 0.0000
1.8333 0.3056 0.0000
1.7778 0.3889 0.0000
1.8333 0.3611 0.0000
1.8333 0.4167 0.0000
1.7778 0.5000 0.0000
1.8333 0.4722 0.0000
1.8333 0.5278 0.0000
1.7778 0.6111 0.0000
1.8333 0.5833 0.0000
1.8333 0.6389 0.0000
1.7778 0.7222 0.0000
1.8333 0.6944 0.0000
1.8333 0.7500 0.0000
1.7778 0.8333 0.0000
1.8333 0.8056 0.0000
1.8333 0.8611 0.0000
1.7778 0.9444 0.0000
1.8333 0.9167 0.0000
1.8333 0.9722 0.0000
0.1111 0.1111 0.0000
0.1667 0.0833 0.0000
0.1111 0.2222 0.0000
0.1667 0.1944 0.0000
0.1111 0.3333 0.0000
0.1667 0.3056 0.0000
0.1111 0.4444 0.0000
0.1667 0.4167 0.0000
0.1111 0.5556 0.0000
0.1667 0.5278 0.0000
0.1111 0.6667 0.0000
0.1667 0.6389 0.0000
0.1111 0.7778 0.0000
0.1667 0.7500 0.0000
0.1111 0.8889 0.0000
0.1667 0.8611 0.0000
0.1111 1.0000 0.0000
0.1667 0.9722 0.0000
0.3333 0.1111 0.0000
0.3889 0.0833 0.0000
0.3333 0.2222 0.0000
0.3889 0.1944 0.0000
0.3333 0.3333 0.0000
0.3889 0.3056 0.0000
0.3333 0.4444 0.0000
0.3889 0.4167 0.0000
0.3333 0.5556 0.0000
0.3889 0.5278 0.0000
0.3333 0.6667 0.0000
0.3889 0.6389 0.0000
0.3333 0.7778 0.0000
0.3889 0.7500 0.0000
0.3333 0.8889 0.0000
0.3889 0.8611 0.0000
0.3333 1.0000 0.0000
0.3889 0.9722 0.0000
0.5556 0.1111 0.0000
[...]
         <PointData>
            <DataArray Name="fValues" NumberOfComponents="3" format="ascii" type="Float64">
       00000 -7.00244e-21        00000 
 2.51874e-22 -1.25937e-20        00000 
-9.98235e-21 -1.60536e-21        00000 
-1.00337e-21 -1.60538e-20        00000 
-1.50739e-20 -3.76533e-20        00000 
 4.01346e-21        00000        00000 
 1.36926e-21  1.17095e-20        00000 
-4.00983e-21 -3.00737e-21        00000 
-3.22476e-20 -6.04643e-21        00000 
-1.16707e-21  7.00244e-21        00000 
-2.59288e-05  1.06832e-04        00000 
 1.19007e-05  6.63665e-05        00000 
 1.48465e-05  3.63996e-05        00000 
-6.26961e-07 -6.84183e-05        00000 
-6.90508e-05 -1.91934e-05        00000 
-4.85018e-05 -3.45862e-05        00000 
-3.10658e-06  1.63917e-05        00000 
-1.26759e-04 -2.77818e-05        00000 
-6.94429e-05 -7.04908e-05        00000 
-2.43326e-06 -7.38767e-05        00000 
-3.50169e-05  5.10383e-05        00000 
-1.23649e-05  8.74016e-05        00000 
 6.96398e-05 -1.52881e-05        00000 
-1.00288e-05  7.53489e-06        00000 
-6.09177e-05 -3.66607e-05        00000 
 3.23727e-05  2.09336e-05        00000 
 6.44024e-05 -2.35505e-05        00000 
 7.34182e-06 -1.01012e-04        00000 
-4.92782e-05 -2.83886e-05        00000 
-1.33436e-05  7.71234e-06        00000 
 4.00496e-06  2.54841e-04        00000 
-2.87522e-05  2.05781e-05        00000 
 3.86905e-05 -5.10755e-06        00000 
 3.44690e-05  1.18435e-05        00000 
-4.57551e-05 -1.84764e-05        00000 
 1.73762e-04  1.41266e-04        00000 
 4.97209e-05  1.52683e-05        00000 
-5.68234e-05  7.36968e-06        00000 
 1.12514e-04  3.82943e-05        00000 
 2.45472e-05 -1.07394e-04        00000 
-3.91963e-05  2.15206e-04        00000 
 1.43145e-05  7.29016e-05        00000 
 9.23884e-05 -4.21825e-05        00000 
 1.12239e-04 -6.42366e-05        00000 
-2.18590e-05 -8.17370e-05        00000 
 1.23231e-04  1.04215e-04        00000 
 4.29730e-05  4.69901e-05        00000 
 2.09670e-05  1.92064e-05        00000 
 3.57372e-05  5.21148e-05        00000 
 4.87298e-05 -2.05333e-04        00000 
 9.11507e-05  6.29896e-05        00000 
 5.34604e-05  5.76297e-05        00000 
 2.14271e-05  4.82443e-05        00000 
 5.47117e-05  5.00829e-05        00000 
-7.26401e-05 -2.21739e-05        00000 
 6.03161e-05  1.19045e-04        00000 
 1.02814e-04  9.24989e-06        00000 
 5.38448e-05  5.77915e-05        00000 
 8.12564e-06 -2.30198e-05        00000 
 3.38676e-06 -7.78002e-05        00000 
 4.19513e-06 -1.54718e-04        00000 
-7.09710e-06  4.26580e-05        00000 
 1.02096e-04  1.04857e-05        00000 
-5.55665e-05  7.28703e-05        00000 
 4.74034e-05  5.12140e-05        00000 
 6.06698e-05  1.10730e-04        00000 
 4.75710e-05  1.33509e-04        00000 
 9.19696e-05  3.07281e-05        00000 
 1.51352e-04  1.48029e-04        00000 
 1.02988e-04  1.04491e-04        00000 
-4.06539e-05  4.06177e-05        00000 
 4.59267e-05  5.74751e-05        00000 
 5.12287e-05  9.45792e-07        00000 
 7.13373e-05  3.67452e-05        00000 
 6.95525e-06  5.27204e-05        00000 
-3.96345e-05  3.47673e-05        00000 
-5.78706e-05 -7.31451e-05        00000 
 5.88881e-05 -8.91527e-05        00000 
 6.18819e-05 -5.44191e-05        00000 
-7.93304e-05 -3.04838e-05        00000 
-3.23178e-05  2.37423e-05        00000 
-6.80799e-05  1.57023e-04        00000 
-9.59566e-05  4.45764e-05        00000 
-1.32967e-04  6.16064e-05        00000 
-8.06769e-05  5.58344e-05        00000 
-1.61767e-05 -6.46515e-06        00000 
 7.27907e-05  2.85096e-05        00000 
-1.58848e-05 -6.13907e-06        00000 
 9.24152e-06  8.83447e-05        00000 
-1.09476e-04  1.27717e-04        00000 
-4.33672e-05  3.74002e-05        00000 
-2.09409e-05  7.93616e-05        00000 
-3.73783e-05  1.93738e-05        00000 
-6.44237e-05  4.67359e-05        00000 
-6.24585e-05 -9.79257e-06        00000 
-4.12336e-05  1.96915e-05        00000 
 4.00794e-05  8.07629e-05        00000 
 3.18659e-05  4.20359e-05        00000 
 7.90480e-07  3.73783e-05        00000 
-3.23507e-05  4.80228e-06        00000 
 3.93116e-05 -5.54701e-08        00000 
-8.07936e-05  6.88054e-05        00000 
-7.82573e-07  3.73442e-05        00000 
-2.02260e-05 -8.51061e-05        00000 
 7.81710e-05 -3.84287e-05        00000 
 1.26443e-04  2.51040e-05        00000 
-2.41750e-05 -6.61730e-05        00000 
-2.78960e-05  4.32873e-06        00000 
 3.07890e-05 -3.39238e-05        00000 
 2.49296e-05  4.36892e-05        00000 
-7.47888e-05  3.81516e-05        00000 
-6.05151e-05  1.89448e-05        00000 
-5.51288e-05  5.14210e-05        00000 
-1.63405e-05  2.93681e-05        00000 
 7.26865e-05 -1.96017e-05        00000 
 3.08221e-05  8.03661e-05        00000 
-1.45407e-05  1.78246e-05        00000 
-9.83180e-05  1.62598e-05        00000 
 3.66414e-05 -4.50429e-05        00000 
-1.62170e-05  4.13570e-05        00000 
-5.80633e-05  4.59249e-05        00000 
 3.38093e-05  7.37350e-05        00000 
-2.58759e-05  5.56127e-05        00000 
 1.69007e-05 -1.28948e-05        00000 
 1.19136e-04  3.77463e-05        00000 
-9.86442e-05 -1.10311e-05        00000 
 2.98974e-05  1.06971e-05        00000 
 3.58549e-05 -1.03365e-04        00000 
-2.22411e-05  4.59055e-05        00000 
 1.16038e-05  5.79166e-05        00000 
-5.30141e-05  8.93765e-05        00000 
 4.50184e-05  1.45456e-05        00000 
 1.31890e-04  1.13319e-04        00000 
 1.43164e-04  1.16319e-04        00000 
-1.24593e-07 -3.33850e-05        00000 
-2.80686e-05  9.88675e-05        00000 
 1.11152e-04  3.47421e-05        00000 
 8.01743e-05  2.79146e-05        00000 
 7.08954e-06  2.47677e-05        00000 
-5.11949e-05  1.18490e-04        00000 
-1.21434e-05  6.43768e-05        00000 
-1.65684e-05  5.84890e-05        00000 
-3.91331e-05  5.94299e-05        00000 
-5.05089e-05 -9.35308e-06        00000 
-1.43595e-05  6.69859e-05        00000 
 7.57868e-05  6.78330e-05        00000 
 3.73170e-05  7.45040e-05        00000 
 1.20679e-04  3.02021e-06        00000 
 2.46181e-05  6.97303e-05        00000 
-1.39913e-04 -4.07356e-05        00000 
 4.59222e-05 -4.02591e-05        00000 
 9.54534e-05  3.40543e-05        00000 
 3.46466e-05 -7.18802e-06        00000 
-8.58673e-05  7.71801e-05        00000 
 3.73846e-05  1.49472e-04        00000 
 6.56380e-05  9.06567e-05        00000 
 6.19811e-05 -5.19886e-06        00000 
 1.73972e-05 -4.21154e-05        00000 
 9.96479e-05  1.27208e-05        00000 
 2.97153e-05  2.65274e-05        00000 
 1.27662e-04  7.47211e-05        00000 
 3.32989e-05 -1.37449e-05        00000 
-9.94894e-06 -1.51103e-05        00000 
-3.03684e-05  2.34428e-06        00000 
 3.52203e-05 -5.16234e-05        00000 
 2.73278e-05 -7.01790e-05        00000 
-4.24353e-05  1.19135e-05        00000 
-3.96227e-05  1.19643e-06        00000 
-7.59866e-05 -4.77677e-05        00000 
-7.33801e-05 -1.34711e-05        00000 
-9.60344e-05  3.16444e-05        00000 
-7.79602e-05  5.97959e-05        00000 
 1.93629e-05  1.15020e-04        00000 
 5.15078e-05  4.65006e-05        00000 
-8.26109e-06  1.23211e-05        00000 
 3.48187e-05 -6.25089e-05        00000 
 7.71817e-05 -2.32736e-05        00000 
 1.06479e-04  1.28815e-04        00000 
 1.21817e-04  1.41864e-04        00000 
 7.16054e-05  5.43198e-05        00000 
 5.97997e-06  5.09663e-05        00000 
 4.51847e-22  7.76383e-21        00000 
-2.09647e-05 -5.60390e-05        00000 
-1.23019e-05 -1.36723e-05        00000 
 1.30987e-20  2.17338e-21        00000 
 6.89934e-05  3.28726e-05        00000 
 4.01960e-07 -6.26699e-05        00000 
-1.52466e-20 -7.62330e-21        00000 
-8.98167e-05 -5.14060e-05        00000 
-6.11773e-06 -2.56001e-05        00000 
 3.94169e-21  1.00872e-20        00000 
-1.08305e-05 -7.31931e-05        00000 
 9.99975e-07  7.84987e-06        00000 
-1.52466e-20 -4.19281e-20        00000 
-6.43356e-05 -9.45508e-05        00000 
-3.26495e-05 -3.48291e-05        00000 
-7.85151e-21 -9.57489e-21        00000 
-8.77705e-05 -1.22264e-04        00000 
-1.21938e-04  7.04926e-06        00000 
       00000  1.14349e-20        00000 
-5.68150e-05 -5.93496e-05        00000 
-2.08935e-05 -1.87566e-05        00000 
-1.90582e-20 -1.90582e-21        00000 
-6.98956e-05  1.55775e-05        00000 
-9.30129e-05 -4.33383e-05        00000 
 2.42760e-20  6.01708e-22        00000 
-6.14639e-05  5.06879e-05        00000 
 1.21195e-05 -9.32368e-05        00000 
 2.89570e-05 -4.62400e-05        00000 
-7.57562e-05  1.27434e-05        00000 
-5.37561e-05 -1.28075e-06        00000 
-2.31387e-05 -5.96053e-05        00000 
-1.04023e-04  6.27220e-05        00000 
-4.26542e-05  1.55909e-05        00000 
 6.55899e-05 -4.59940e-07        00000 
-2.06061e-05 -3.99811e-05        00000 
 1.98747e-05 -1.43531e-05        00000 
 4.14875e-05  5.17247e-05        00000 
 4.19058e-05 -4.18931e-05        00000 
-1.35423e-05 -6.23366e-05        00000 
-8.37512e-05 -3.45591e-06        00000 
-6.14999e-05 -9.14136e-05        00000 
-4.73093e-05 -2.44357e-05        00000 
-2.14777e-05 -2.40890e-05        00000 
-4.43561e-05 -5.39172e-05        00000 
 5.01752e-05 -4.98506e-05        00000 
 1.00462e-05 -3.33824e-05        00000 
-4.93210e-05 -1.22371e-05        00000 
-2.96518e-05 -3.27153e-05        00000 
-6.02529e-05 -1.97882e-05        00000 
-1.05955e-04  6.48385e-05        00000 
-1.62845e-05 -7.42540e-05        00000 
-3.68077e-05  1.28881e-05        00000 
-2.61885e-05 -6.58073e-05        00000 
-4.87662e-05 -1.29996e-05        00000 
-6.84113e-05 -5.47218e-05        00000 
-8.09914e-05 -3.34080e-05        00000 
-4.20438e-05  8.52783e-07        00000 
-2.50104e-05 -6.09887e-05        00000 
-5.96827e-05  2.22587e-05        00000 
 3.85414e-05  1.34558e-05        00000 
-9.63453e-06  2.68797e-05        00000 
-7.78362e-05  8.55429e-06        00000 
-1.29501e-04 -5.47669e-05        00000 
-3.41806e-05  1.31989e-04        00000 
-7.07824e-05  2.71586e-05        00000 
-3.31492e-05  2.54315e-05        00000 
 1.83034e-05 -2.90688e-05        00000 
 6.33338e-05  3.88690e-05        00000 
 2.56369e-06 -4.99121e-05        00000 
-7.09374e-05 -2.72646e-05        00000 
-5.91897e-05 -4.56846e-05        00000 
-9.36264e-05 -4.35595e-05        00000 
 5.46144e-05 -2.60157e-05        00000 
-1.01308e-04 -5.12781e-05        00000 
-6.89993e-05 -6.18257e-05        00000 
-3.51181e-05 -7.31743e-05        00000 
-4.06975e-06  7.23438e-06        00000 
 1.80388e-05 -4.01636e-05        00000 
-3.61277e-05  3.78671e-05        00000 
-3.59519e-05  1.77529e-05        00000 
-3.42866e-05  3.34577e-05        00000 
-1.97728e-05 -9.67508e-05        00000 
-4.52023e-06 -3.72313e-04        00000 
-4.17224e-05  6.97430e-05        00000 
-4.11954e-05 -8.54129e-05        00000 
 6.18699e-06 -5.06547e-05        00000 
 1.48470e-05  9.96780e-05        00000 
 1.92712e-05  3.51969e-05        00000 
 9.76879e-06 -3.09308e-05        00000 
-2.01282e-05 -4.07065e-05        00000 
 4.67074e-07  1.67841e-05        00000 
 1.11059e-05 -8.32852e-05        00000 
 6.62575e-05 -9.15119e-05        00000 
 6.33629e-05 -2.59848e-05        00000 
 3.76485e-05  6.32386e-05        00000 
 6.97456e-05  5.04638e-05        00000 
 9.84646e-05  6.64836e-07        00000 
 1.65441e-05 -8.16467e-05        00000 
 3.61173e-05  1.44780e-05        00000 
 1.21238e-04  7.81412e-05        00000 
 3.00005e-05  5.31424e-05        00000 
 2.09621e-05 -6.22066e-05        00000 
 7.34235e-06  3.37028e-05        00000 
 9.64078e-05  1.23173e-04        00000 
 9.40247e-05  2.82764e-06        00000 
-1.13981e-05  1.35551e-04        00000 
 3.90475e-05 -1.03353e-04        00000 
 4.76757e-05  2.10307e-04        00000 
 7.63369e-05 -1.19137e-04        00000 
-1.01742e-04 -1.33567e-04        00000 
 7.61183e-05  5.50368e-05        00000 
-3.71014e-05 -3.87095e-05        00000 
-6.62144e-06  2.90768e-06        00000 
 8.16526e-05  6.96969e-07        00000 
 3.40878e-05  5.28982e-05        00000 
 6.58973e-05 -7.02795e-05        00000 
-3.92390e-06 -7.79138e-05        00000 
-5.27996e-05  8.60614e-05        00000 
 2.86596e-05 -3.98364e-05        00000 
 1.12271e-05 -1.08996e-04        00000 
 2.91817e-05 -5.50985e-05        00000 
 6.14442e-05  2.07643e-05        00000 
-5.53124e-05  3.33496e-05        00000 
 1.94251e-05 -1.30361e-04        00000 
-1.29424e-04 -1.11984e-04        00000 
 9.92702e-06  1.35969e-06        00000 
-3.17079e-05 -5.85951e-06        00000 
 2.96355e-05 -2.66965e-07        00000 
-5.75671e-07 -7.02142e-05        00000 
 9.23118e-05  9.73942e-06        00000 
 1.16023e-04  7.42990e-05        00000 
 2.76274e-05  2.13510e-05        00000 
-6.86141e-05  1.76261e-04        00000 
-5.51798e-06 -9.51308e-05        00000 
-7.71294e-05  2.42406e-04        00000 
 1.61671e-05 -5.14142e-05        00000 
-9.64832e-06  1.02565e-06        00000 
 5.91329e-05 -1.21787e-05        00000 
-4.83395e-05 -2.20147e-05        00000 
 8.07646e-05 -1.03314e-05        00000 
 8.82018e-05  6.94791e-05        00000 
-6.05081e-05 -1.32887e-05        00000 
-2.23186e-05 -1.10529e-04        00000 
-6.06895e-05  1.07406e-04        00000 
 2.74002e-06  5.06311e-05        00000 
-8.25314e-05 -2.22340e-05        00000 
-7.75791e-05 -1.40485e-04        00000 
-1.23015e-04 -2.64738e-05        00000 
 1.44442e-05  1.17928e-04        00000 
-4.58257e-05 -2.04001e-05        00000 
-1.21965e-05 -3.84495e-05        00000 
-2.42856e-05 -5.17811e-05        00000 
-6.48886e-05 -3.06620e-05        00000 
 4.09157e-05 -1.07091e-04        00000 
-6.08724e-07  2.10643e-05        00000 
 8.60746e-05 -2.01587e-05        00000 
-2.26431e-05 -5.65964e-05        00000 
 1.31708e-04  3.83063e-05        00000 
 1.11933e-04 -5.04383e-05        00000 
-5.80249e-05 -1.16419e-04        00000 
 7.22964e-05  4.67815e-05        00000 
 6.81835e-05 -9.86117e-05        00000 
 6.47649e-05 -1.41520e-05        00000 
 6.16392e-05  2.52352e-04        00000 
 8.56262e-05  6.71875e-06        00000 
 1.22808e-06  8.86289e-05        00000 
 4.83391e-05  2.42135e-05        00000 
 3.18384e-05  3.15044e-06        00000 
 5.94945e-06  1.47769e-06        00000 
 4.86223e-05 -6.15915e-05        00000 
 3.76104e-05 -3.72258e-05        00000 
-5.26670e-05 -2.58269e-05        00000 
 1.13905e-05 -1.01000e-04        00000 
-2.31151e-05 -3.46883e-05        00000 
-1.25020e-05 -9.79479e-05        00000 
-5.85736e-05 -1.01516e-04        00000 
-4.23143e-05  2.65246e-05        00000 
 1.74972e-06  4.08958e-05        00000 
-1.02350e-04 -7.77310e-06        00000 
-5.89559e-05 -3.34497e-05        00000 
 2.04459e-05 -7.41815e-07        00000 
-5.92844e-05  3.33108e-05        00000 
 5.83645e-05  5.30088e-05        00000 
 1.12200e-04  3.12390e-05        00000 
 1.07997e-04 -1.25688e-05        00000 
 2.25773e-05  7.88898e-06        00000 
 7.90070e-05 -6.58456e-05        00000 
-4.48744e-05 -6.85358e-05        00000 
 8.35845e-05  1.37593e-05        00000 
-1.49966e-05  2.68411e-05        00000 
-7.36267e-05 -7.57543e-05        00000 
-5.53638e-05  6.74185e-05        00000 
 6.59434e-05 -8.10870e-05        00000 
-4.16372e-05  4.00481e-05        00000 
 4.07260e-05  1.09260e-05        00000 
 9.36155e-05 -5.00111e-05        00000 
 2.51008e-05 -5.39253e-06        00000 
-1.08735e-04 -4.24926e-05        00000 
-7.01138e-05 -9.95404e-05        00000 
-7.61806e-05  9.80414e-05        00000 
-8.29751e-05 -1.21340e-05        00000 
-5.93085e-05  6.09183e-05        00000 
-7.60421e-05  1.18084e-05        00000 
-8.93187e-05  4.46747e-05        00000 
-1.22530e-04  8.64044e-06        00000 
-5.17853e-05 -7.24723e-06        00000 
-5.66015e-06  3.98154e-05        00000 
-2.64247e-05  7.76699e-05        00000 
 9.40204e-05  3.62999e-06        00000 
-7.47916e-05 -6.70641e-05        00000 
 7.72448e-05  3.25143e-05        00000 
 1.09533e-05 -1.04473e-05        00000 
-5.93451e-05 -2.62846e-06        00000 
-4.19230e-05  5.34272e-05        00000 
 2.33749e-05 -3.19626e-06        00000 
 2.44373e-05  5.48269e-05        00000 
-1.98727e-05  3.60883e-05        00000 
-5.14047e-05  1.69094e-04        00000 
-5.28968e-06  4.96697e-05        00000 
-1.57782e-05  1.29520e-05        00000 
-7.27290e-05  5.17197e-05        00000 
-1.47274e-05  8.46453e-05        00000 
 2.13352e-05 -1.05129e-05        00000 
-9.39136e-05  5.74991e-06        00000 
-2.19240e-05  2.03434e-05        00000 
-1.00043e-05  9.37534e-05        00000 
-9.99777e-05 -1.13552e-05        00000 
-8.06963e-05  7.43851e-05        00000 
-4.46719e-05  7.61632e-05        00000 
-3.36876e-05 -5.66511e-05        00000 
-9.95275e-06  4.43842e-05        00000 
-3.87288e-05  5.54159e-05        00000 
-3.13383e-05 -1.57999e-05        00000 
-1.52204e-05  6.61918e-05        00000 
 2.66878e-05 -4.73000e-05        00000 
-1.60553e-04 -9.56250e-05        00000 
 1.32546e-05  7.46801e-05        00000 
 2.28921e-05  4.95405e-05        00000 
-9.62218e-06  2.68148e-05        00000 
-5.47975e-05  1.63536e-05        00000 
-1.38035e-05  5.98897e-05        00000 
-5.77052e-05  1.00896e-04        00000 
-5.45644e-05  2.87512e-07        00000 
-1.63338e-05  7.39679e-06        00000 
-5.89914e-05  2.08794e-05        00000 
-3.44150e-05 -5.31743e-05        00000 
-3.75513e-05  6.72863e-05        00000 
 5.18005e-05  2.11218e-05        00000 
 2.85999e-05  7.80796e-05        00000 
 1.38118e-05 -1.28502e-05        00000 
-2.41908e-05  3.98923e-05        00000 
-1.77042e-05 -3.27667e-05        00000 
-2.05385e-05  8.86099e-05        00000 
 1.40602e-05  3.73884e-05        00000 
 3.02431e-05  3.96174e-05        00000 
 2.20599e-06 -6.62489e-05        00000 
-1.77091e-05  3.05267e-05        00000 
 2.22740e-05  1.11100e-05        00000 
-4.08294e-05  4.65537e-05        00000 
 3.47658e-05  4.50090e-05        00000 
-8.59916e-06  7.66310e-06        00000 
-1.69866e-05  6.37120e-05        00000 
 1.30024e-06  5.31578e-05        00000 
-3.02633e-05  2.21099e-05        00000 
 3.10208e-06  9.86551e-05        00000 
-1.20086e-06  1.03373e-04        00000 
 3.56553e-05  2.00555e-04        00000 
-2.87925e-05  3.47899e-05        00000 
 7.91101e-05  1.73950e-04        00000 
 8.43220e-05 -2.25109e-05        00000 
-5.48948e-05  1.62808e-04        00000 
 4.54293e-07  4.10372e-05        00000 
-2.97241e-05 -1.29179e-05        00000 
 4.04992e-05 -4.20331e-05        00000 
-6.40695e-05  4.92893e-05        00000 
-5.14764e-05  4.05675e-05        00000 
-5.82343e-05  5.80017e-05        00000 
-9.84704e-05  1.84401e-06        00000 
-2.34799e-05  3.73642e-05        00000 
 5.08492e-05  3.02320e-05        00000 
-3.52397e-05  4.46431e-05        00000 
-9.31065e-05 -6.68018e-05        00000 
-1.41325e-05 -2.40332e-05        00000 
-1.93155e-05 -5.97581e-06        00000 
-3.60702e-05 -2.96331e-05        00000 
 2.75870e-05 -3.45637e-05        00000 
 3.81990e-06  9.01332e-06        00000 
-5.53588e-05 -6.47123e-05        00000 
-8.14889e-05  4.00432e-05        00000 
-2.37703e-05 -7.01346e-05        00000 
 6.08721e-05  1.41789e-05        00000 
-1.79059e-05 -3.63623e-05        00000 
-3.39689e-05 -2.99816e-05        00000 
-9.19604e-05  3.84411e-05        00000 
 7.71715e-05  1.92503e-05        00000 
 5.77891e-05  3.46907e-05        00000 
 1.28941e-04  6.60593e-05        00000 
-4.81980e-05 -6.33988e-05        00000 
-8.57294e-05 -1.52054e-05        00000 
-4.74665e-05 -6.97564e-05        00000 
-1.53252e-05 -6.66261e-05        00000 
-2.75464e-05 -9.25726e-06        00000 
 5.95247e-05 -8.46470e-05        00000 
 5.80299e-06 -1.37525e-04        00000 
 1.82111e-05 -2.99450e-05        00000 
 4.23758e-05 -8.29123e-05        00000 
-1.84767e-04 -3.10413e-05        00000 
 8.61165e-05 -3.20028e-05        00000 
 5.23723e-05 -2.03196e-05        00000 
 3.69508e-05 -4.45810e-05        00000 
-5.14303e-05  5.58536e-06        00000 
 3.81540e-07 -2.13486e-05        00000 
 4.49946e-05  7.79137e-05        00000 
 5.85227e-05 -1.06134e-04        00000 
 1.00675e-04  2.89149e-04        00000 
 6.74045e-05 -7.32361e-05        00000 