<?xml version="1.0" encoding="utf-8"?>
<VTKFile byte_order="LittleEndian" type="UnstructuredGrid" version="0.1">
   <UnstructuredGrid>
      <Piece NumberOfCells="1296" NumberOfPoints="685">
         <Points>
            <DataArray Name="Points" NumberOfComponents="3" format="ascii" type="Float32">
0.0000 0.0000 0.0000
0.0000 0.1111 0.0000
0.0000 0.2222 0.0000
0.0000 0.3333 0.0000
0.0000 0.4444 0.0000
0.0000 0.5556 0.0000
0.0000 0.6667 0.0000
0.0000 0.7778 0.0000
0.0000 0.8889 0.0000
0.0000 1.0000 0.0000
0.2222 0.0000 0.0000
0.2222 0.1111 0.0000
0.2222 0.2222 0.0000
0.2222 0.3333 0.0000
0.2222 0.4444 0.0000
0.2222 0.5556 0.0000
0.2222 0.6667 0.0000
0.2222 0.7778 0.0000
0.2222 0.8889 0.0000
0.2222 1.0000 0.0000
0.4444 0.0000 0.0000
0.4444 0.1111 0.0000
0.4444 0.2222 0.0000
0.4444 0.3333 0.0000
0.4444 0.4444 0.0000
0.4444 0.5556 0.0000
0.4444 0.6667 0.0000
0.4444 0.7778 0.0000
0.4444 0.8889 0.0000
0.4444 1.0000 0.0000
0.6667 0.0000 0.0000
0.6667 0.1111 0.0000
0.6667 0.2222 0.0000
0.6667 0.3333 0.0000
0.6667 0.4444 0.0000
0.6667 0.5556 0.0000
0.6667 0.6667 0.0000
0.6667 0.7778 0.0000
0.6667 0.8889 0.0000
0.6667 1.0000 0.0000
0.8889 0.0000 0.0000
0.8889 0.1111 0.0000
0.8889 0.2222 0.0000
0.8889 0.3333 0.0000
0.8889 0.4444 0.0000
0.8889 0.5556 0.0000
0.8889 0.6667 0.0000
0.8889 0.7778 0.0000
0.8889 0.8889 0.0000
0.8889 1.0000 0.0000
1.1111 0.0000 0.0000
1.1111 0.1111 0.0000
1.1111 0.2222 0.0000
1.1111 0.3333 0.0000
1.1111 0.4444 0.0000
1.1111 0.5556 0.0000
1.1111 0.6667 0.0000
1.1111 0.7778 0.0000
1.1111 0.8889 0.0000
1.1111 1.0000 0.0000
1.3333 0.0000 0.0000
1.3333 0.1111 0.0000
1.3333 0.2222 0.0000
1.3333 0.3333 0.0000
1.3333 0.4444 0.0000
1.3333 0.5556 0.0000
1.3333 0.6667 0.0000
1.3333 0.7778 0.0000
1.3333 0.8889 0.0000
1.3333 1.0000 0.0000
1.5556 0.0000 0.0000
1.5556 0.1111 0.0000
1.5556 0.2222 0.0000
1.5556 0.3333 0.0000
1.5556 0.4444 0.0000
1.5556 0.5556 0.0000
1.5556 0.6667 0.0000
1.5556 0.7778 0.0000
1.5556 0.8889 0.0000
1.5556 1.0000 0.0000
1.7778 0.0000 0.0000
1.7778 0.1111 0.0000
1.7778 0.2222 0.0000
1.7778 0.3333 0.0000
1.7778 0.4444 0.0000
1.7778 0.5556 0.0000
1.7778 0.6667 0.0000
1.7778 0.7778 0.0000
1.7778 0.8889 0.0000
1.7778 1.0000 0.0000
2.0000 0.0000 0.0000
2.0000 0.1111 0.0000
2.0000 0.2222 0.0000
2.0000 0.3333 0.0000
2.0000 0.4444 0.0000
2.0000 0.5556 0.0000
2.0000 0.6667 0.0000
2.0000 0.7778 0.0000
2.0000 0.8889 0.0000
2.0000 1.0000 0.0000
0.1111 0.0556 0.0000
0.1111 0.1667 0.0000
0.1111 0.2778 0.0000
0.1111 0.3889 0.0000
0.1111 0.5000 0.0000
0.1111 0.6111 0.0000
0.1111 0.7222 0.0000
0.1111 0.8333 0.0000
0.1111 0.9444 0.0000
0.3333 0.0556 0.0000
0.3333 0.1667 0.0000
0.3333 0.2778 0.0000
0.3333 0.3889 0.0000
0.3333 0.5000 0.0000
0.3333 0.6111 0.0000
0.3333 0.7222 0.0000
0.3333 0.8333 0.0000
0.3333 0.9444 0.0000
0.5556 0.0556 0.0000
0.5556 0.1667 0.0000
0.5556 0.2778 0.0000
0.5556 0.3889 0.0000
0.5556 0.5000 0.0000
0.5556 0.6111 0.0000
0.5556 0.7222 0.0000
0.5556 0.8333 0.0000
0.5556 0.9444 0.0000
0.7778 0.0556 0.0000
0.7778 0.1667 0.0000
0.7778 0.2778 0.0000
0.7778 0.3889 0.0000
0.7778 0.5000 0.0000
0.7778 0.6111 0.0000
0.7778 0.7222 0.0000
0.7778 0.8333 0.0000
0.7778 0.9444 0.0000
1.0000 0.0556 0.0000
1.0000 0.1667 0.0000
1.0000 0.2778 0.0000
1.0000 0.3889 0.0000
1.0000 0.5000 0.0000
1.0000 0.6111 0.0000
1.0000 0.7222 0.0000
1.0000 0.8333 0.0000
1.0000 0.9444 0.0000
1.2222 0.0556 0.0000
1.2222 0.1667 0.0000
1.2222 0.2778 0.0000
1.2222 0.3889 0.0000
1.2222 0.5000 0.0000
1.2222 0.6111 0.0000
1.2222 0.7222 0.0000
1.2222 0.8333 0.0000
1.2222 0.9444 0.0000
1.4444 0.0556 0.0000
1.4444 0.1667 0.0000
1.4444 0.2778 0.0000
1.4444 0.3889 0.0000
1.4444 0.5000 0.0000
1.4444 0.6111 0.0000
1.4444 0.7222 0.0000
1.4444 0.8333 0.0000
1.4444 0.9444 0.0000
1.6667 0.0556 0.0000
1.6667 0.1667 0.0000
1.6667 0.2778 0.0000
1.6667 0.3889 0.0000
1.6667 0.5000 0.0000
1.6667 0.6111 0.0000
1.6667 0.7222 0.0000
1.6667 0.8333 0.0000
1.6667 0.9444 0.0000
1.8889 0.0556 0.0000
1.8889 0.1667 0.0000
1.8889 0.2778 0.0000
1.8889 0.3889 0.0000
1.8889 0.5000 0.0000
1.8889 0.6111 0.0000
1.8889 0.7222 0.0000
1.8889 0.8333 0.0000
1.8889 0.9444 0.0000
0.0000 0.0556 0.0000
0.0556 0.0278 0.0000
0.0556 0.0833 0.0000
0.0000 0.1667 0.0000
0.0556 0.1389 0.0000
0.0556 0.1944 0.0000
0.0000 0.2778 0.0000
0.0556 0.2500 0.0000
0.0556 0.3056 0.0000
0.0000 0.3889 0.0000
0.0556 0.3611 0.0000
0.0556 0.4167 0.0000
0.0000 0.5000 0.0000
0.0556 0.4722 0.0000
0.0556 0.5278 0.0000
0.0000 0.6111 0.0000
0.0556 0.5833 0.0000
0.0556 0.6389 0.0000
0.0000 0.7222 0.0000
0.0556 0.6944 0.0000
0.0556 0.7500 0.0000
0.0000 0.8333 0.0000
0.0556 0.8056 0.0000
0.0556 0.8611 0.0000
0.0000 0.9444 0.0000
0.0556 0.9167 0.0000
0.0556 0.9722 0.0000
0.2222 0.0556 0.0000
0.2778 0.0278 0.0000
0.2778 0.0833 0.0000
0.2222 0.1667 0.0000
0.2778 0.1389 0.0000
0.2778 0.1944 0.0000
0.2222 0.2778 0.0000
0.2778 0.2500 0.0000
0.2778 0.3056 0.0000
0.2222 0.3889 0.0000
0.2778 0.3611 0.0000
0.2778 0.4167 0.0000
0.2222 0.5000 0.0000
0.2778 0.4722 0.0000
0.2778 0.5278 0.0000
0.2222 0.6111 0.0000
0.2778 0.5833 0.0000
0.2778 0.6389 0.0000
0.2222 0.7222 0.0000
0.2778 0.6944 0.0000
0.2778 0.7500 0.0000
0.2222 0.8333 0.0000
0.2778 0.8056 0.0000
0.2778 0.8611 0.0000
0.2222 0.9444 0.0000
0.2778 0.9167 0.0000
0.2778 0.9722 0.0000
0.4444 0.0556 0.0000
0.5000 0.0278 0.0000
0.5000 0.0833 0.0000
0.4444 0.1667 0.0000
0.5000 0.1389 0.0000
0.5000 0.1944 0.0000
0.4444 0.2778 0.0000
0.5000 0.2500 0.0000
0.5000 0.3056 0.0000
0.4444 0.3889 0.0000
0.5000 0.3611 0.0000
0.5000 0.4167 0.0000
0.4444 0.5000 0.0000
0.5000 0.4722 0.0000
0.5000 0.5278 0.0000
0.4444 0.6111 0.0000
0.5000 0.5833 0.0000
0.5000 0.6389 0.0000
0.4444 0.7222 0.0000
0.5000 0.6944 0.0000
0.5000 0.7500 0.0000
0.4444 0.8333 0.0000
0.5000 0.8056 0.0000
0.5000 0.8611 0.0000
0.4444 0.9444 0.0000
0.5000 0.9167 0.0000
0.5000 0.9722 0.0000
0.6667 0.0556 0.0000
0.7222 0.0278 0.0000
0.7222 0.0833 0.0000
0.6667 0.1667 0.0000
0.7222 0.1389 0.0000
0.7222 0.1944 0.0000
0.6667 0.2778 0.0000
0.7222 0.2500 0.0000
0.7222 0.3056 0.0000
0.6667 0.3889 0.0000
0.7222 0.3611 0.0000
0.7222 0.4167 0.0000
0.6667 0.5000 0.0000
0.7222 0.4722 0.0000
0.7222 0.5278 0.0000
0.6667 0.6111 0.0000
0.7222 0.5833 0.0000
0.7222 0.6389 0.0000
0.6667 0.7222 0.0000
0.7222 0.6944 0.0000
0.7222 0.7500 0.0000
0.6667 0.8333 0.0000
0.7222 0.8056 0.0000
0.7222 0.8611 0.0000
0.6667 0.9444 0.0000
0.7222 0.9167 0.0000
0.7222 0.9722 0.0000
0.8889 0.0556 0.0000
0.9444 0.0278 0.0000
0.9444 0.0833 0.0000
0.8889 0.1667 0.0000
0.9444 0.1389 0.0000
0.9444 0.1944 0.0000
0.8889 0.2778 0.0000
0.9444 0.2500 0.0000
0.9444 0.3056 0.0000
0.8889 0.3889 0.0000
0.9444 0.3611 0.0000
0.9444 0.4167 0.0000
0.8889 0.5000 0.0000
0.9444 0.4722 0.0000
0.9444 0.5278 0.0000
0.8889 0.6111 0.0000
0.9444 0.5833 0.0000
0.9444 0.6389 0.0000
0.8889 0.7222 0.0000
0.9444 0.6944 0.0000
0.9444 0.7500 0.0000
0.8889 0.8333 0.0000
0.9444 0.8056 0.0000
0.9444 0.8611 0.0000
0.8889 0.9444 0.0000
0.9444 0.9167 0.0000
0.9444 0.9722 0.0000
1.1111 0.0556 0.0000
1.1667 0.0278 0.0000
1.1667 0.0833 0.0000
1.1111 0.1667 0.0000
1.1667 0.1389 0.0000
1.1667 0.1944 0.0000
1.1111 0.2778 0.0000
1.1667 0.2500 0.0000
1.1667 0.3056 0.0000
1.1111 0.3889 0.0000
1.1667 0.3611 0.0000
1.1667 0.4167 0.0000
1.1111 0.5000 0.0000
1.1667 0.4722 0.0000
1.1667 0.5278 0.0000
1.1111 0.6111 0.0000
1.1667 0.5833 0.0000
1.1667 0.6389 0.0000
1.1111 0.7222 0.0000
1.1667 0.6944 0.0000
1.1667 0.7500 0.0000
1.1111 0.8333 0.0000
1.1667 0.8056 0.0000
1.1667 0.8611 0.0000
1.1111 0.9444 0.0000
1.1667 0.9167 0.0000
1.1667 0.9722 0.0000
1.3333 0.0556 0.0000
1.3889 0.0278 0.0000
1.3889 0.0833 0.0000
1.3333 0.1667 0.0000
1.3889 0.1389 0.0000
1.3889 0.1944 0.0000
1.3333 0.2778 0.0000
1.3889 0.2500 0.0000
1.3889 0.3056 0.0000
1.3333 0.3889 0.0000
1.3889 0.3611 0.0000
1.3889 0.4167 0.0000
1.3333 0.5000 0.0000
1.3889 0.4722 0.0000
1.3889 0.5278 0.0000
1.3333 0.6111 0.0000
1.3889 0.5833 0.0000
1.3889 0.6389 0.0000
1.3333 0.7222 0.0000
1.3889 0.6944 0.0000
1.3889 0.7500 0.0000
1.3333 0.8333 0.0000
1.3889 0.8056 0.0000
1.3889 0.8611 0.0000
1.3333 0.9444 0.0000
1.3889 0.9167 0.0000
1.3889 0.9722 0.0000
1.5556 0.0556 0.0000
1.6111 0.0278 0.0000
1.6111 0.0833 0.0000
1.5556 0.1667 0.0000
1.6111 0.1389 0.0000
1.6111 0.1944 0.0000
1.5556 0.2778 0.0000
1.6111 0.2500 0.0000
1.6111 0.3056 0.0000
1.5556 0.3889 0.0000
1.6111 0.3611 0.0000
1.6111 0.4167 0.0000
1.5556 0.5000 0.0000
1.6111 0.4722 0.0000
1.6111 0.5278 0.0000
1.5556 0.6111 0.0000
1.6111 0.5833 0.0000
1.6111 0.6389 0.0000
1.5556 0.7222 0.0000
1.6111 0.6944 0.0000
1.6111 0.7500 0.0000
1.5556 0.8333 0.0000
1.6111 0.8056 0.0000
1.6111 0.8611 0.0000
1.5556 0.9444 0.0000
1.6111 0.9167 0.0000
1.6111 0.9722 0.0000
1.7778 0.0556 0.0000
1.8333 0.0278 0.0000
1.8333 0.0833 0.0000
1.7778 0.1667 0.0000
1.8333 0.1389 0.0000
1.8333 0.1944 0.0000
1.7778 0.2778 0.0000
1.8333 0.2500 0.0000
1.8333 0.3056 0.0000
1.7778 0.3889 0.0000
1.8333 0.3611 0.0000
1.8333 0.4167 0.0000
1.7778 0.5000 0.0000
1.8333 0.4722 0.0000
1.8333 0.5278 0.0000
1.7778 0.6111 0.0000
1.8333 0.5833 0.0000
1.8333 0.6389 0.0000
1.7778 0.7222 0.0000
1.8333 0.6944 0.0000
1.8333 0.7500 0.0000
1.7778 0.8333 0.0000
1.8333 0.8056 0.0000
1.8333 0.8611 0.0000
1.7778 0.9444 0.0000
1.8333 0.9167 0.0000
1.8333 0.9722 0.0000
0.1111 0.1111 0.0000
0.1667 0.0833 0.0000
0.1111 0.2222 0.0000
0.1667 0.1944 0.0000
0.1111 0.3333 0.0000
0.1667 0.3056 0.0000
0.1111 0.4444 0.0000
0.1667 0.4167 0.0000
0.1111 0.5556 0.0000
0.1667 0.5278 0.0000
0.1111 0.6667 0.0000
0.1667 0.6389 0.0000
0.1111 0.7778 0.0000
0.1667 0.7500 0.0000
0.1111 0.8889 0.0000
0.1667 0.8611 0.0000
0.1111 1.0000 0.0000
0.1667 0.9722 0.0000
0.3333 0.1111 0.0000
0.3889 0.0833 0.0000
0.3333 0.2222 0.0000
0.3889 0.1944 0.0000
0.3333 0.3333 0.0000
0.3889 0.3056 0.0000
0.3333 0.4444 0.0000
0.3889 0.4167 0.0000
0.3333 0.5556 0.0000
0.3889 0.5278 0.0000
0.3333 0.6667 0.0000
0.3889 0.6389 0.0000
0.3333 0.7778 0.0000
0.3889 0.7500 0.0000
0.3333 0.8889 0.0000
0.3889 0.8611 0.0000
0.3333 1.0000 0.0000
0.3889 0.9722 0.0000
0.5556 0.1111 0.0000
[...]
         <PointData>
            <DataArray Name="fValues" NumberOfComponents="3" format="ascii" type="Float64">
-5.56504e-27 -1.94777e-27        00000 
 9.60824e-28 -6.96597e-27        00000 
-1.61880e-26  5.27967e-27        00000 
-7.65507e-27 -2.87065e-26        00000 
-7.67188e-27  3.68490e-27        00000 
 3.82753e-27  5.74130e-27        00000 
 5.04320e-27  6.93440e-27        00000 
-2.39004e-28 -9.56018e-28        00000 
       00000  9.61054e-28        00000 
-8.90407e-27 -6.67805e-27        00000 
-8.49774e-11  9.37206e-11        00000 
 3.89573e-11  1.06054e-10        00000 
 7.39737e-11 -2.91052e-11        00000 
-7.14637e-11 -3.68403e-11        00000 
-1.55573e-11 -9.60914e-11        00000 
-2.73452e-11  3.28861e-11        00000 
-1.10569e-11 -1.44142e-11        00000 
 4.75717e-11  6.34071e-11        00000 
-1.88560e-11 -1.47895e-11        00000 
-2.82432e-11  5.98988e-11        00000 
-2.93543e-11  3.53140e-12        00000 
 1.19130e-10  4.23075e-11        00000 
 8.53326e-11 -3.69607e-11        00000 
-7.98721e-11 -1.36264e-10        00000 
 7.27240e-11 -4.76135e-11        00000 
 1.25418e-10  4.53078e-11        00000 
 1.30367e-10  8.50413e-11        00000 
 4.80291e-11 -9.04539e-11        00000 
 3.76303e-11 -1.85505e-11        00000 
 2.35092e-11 -3.10720e-11        00000 
 4.93827e-11  2.97007e-11        00000 
 7.71649e-12  9.53122e-11        00000 
 3.63229e-11  4.85443e-11        00000 
-1.29475e-10 -4.74927e-11        00000 
-4.22062e-12 -7.14202e-11        00000 
 1.46144e-10  2.05915e-11        00000 
 1.72307e-11  8.46967e-11        00000 
-2.52243e-11  6.07869e-12        00000 
-2.10392e-11 -4.36771e-11        00000 
-8.72067e-11  2.56378e-10        00000 
-9.33138e-11 -2.60627e-11        00000 
-9.67759e-12  2.10804e-10        00000 
-2.71001e-11 -6.82512e-11        00000 
 1.19940e-11  2.21831e-11        00000 
-3.08518e-11  7.56479e-11        00000 
-8.40856e-11  1.27187e-12        00000 
-2.34763e-11  1.41522e-10        00000 
 3.77014e-11  2.23750e-11        00000 
-1.32047e-10 -6.42757e-11        00000 
-5.19975e-11 -1.03455e-11        00000 
 6.01617e-11 -1.86276e-10        00000 
-5.96856e-11 -3.44471e-11        00000 
-4.30731e-11  1.04386e-10        00000 
-3.51434e-11  1.75291e-11        00000 
-5.71845e-11 -2.35048e-11        00000 
 4.20215e-11  5.59339e-11        00000 
 4.03020e-11  1.72747e-10        00000 
-2.82085e-11  3.20881e-11        00000 
-1.30044e-10 -1.20615e-10        00000 
-2.00878e-10  2.12879e-11        00000 
-3.71259e-12  5.30349e-11        00000 
 8.98126e-12  6.00195e-11        00000 
-2.84217e-14  2.69793e-11        00000 
 6.96616e-11  1.32331e-10        00000 
-1.70814e-11 -1.42180e-11        00000 
 4.92832e-11 -2.75762e-11        00000 
 3.89946e-11 -9.49996e-12        00000 
-4.63274e-12 -3.60032e-11        00000 
-6.83826e-11  7.07203e-11        00000 
 5.92379e-11  1.57399e-10        00000 
-2.53593e-11 -8.23093e-11        00000 
-9.46443e-12  7.04858e-12        00000 
 1.55893e-10 -1.00613e-11        00000 
 1.12237e-10  7.73923e-11        00000 
 1.83604e-11  7.42517e-11        00000 
-6.87237e-11 -6.83684e-11        00000 
 9.60654e-12 -6.66631e-11        00000 
-7.25322e-11  1.18661e-10        00000 
 1.05729e-11 -6.70042e-11        00000 
-6.96581e-11 -1.07832e-10        00000 
 8.53930e-11 -3.22359e-10        00000 
 3.50724e-11 -6.21299e-11        00000 
 4.45084e-11 -2.23537e-11        00000 
 7.82734e-11  4.68958e-13        00000 
 8.70273e-11  1.31166e-11        00000 
 6.23572e-11  5.31770e-11        00000 
 2.48406e-11  1.47054e-10        00000 
 1.60867e-11  6.75300e-11        00000 
-1.62743e-10  1.22270e-10        00000 
-2.07976e-11  3.88241e-10        00000 
 5.80656e-11 -4.05294e-11        00000 
 1.18973e-10  5.96856e-12        00000 
 1.63709e-11 -2.84643e-11        00000 
 4.90559e-11 -8.55493e-12        00000 
 1.70076e-10 -9.83391e-11        00000 
 3.67208e-11 -3.77298e-11        00000 
-1.48361e-11  1.02716e-10        00000 
-3.04112e-11  1.18249e-10        00000 
-1.84741e-11  5.86340e-11        00000 
-1.73159e-11 -5.91172e-12        00000 
-4.31857e-11  1.39728e-11        00000 
 6.25011e-11 -7.70273e-12        00000 
 8.17497e-11 -3.51803e-11        00000 
 1.12372e-11  5.15901e-11        00000 
-6.34550e-11  2.19560e-11        00000 
-3.01474e-11 -1.69644e-11        00000 
-2.16263e-11  6.15596e-12        00000 
-1.05702e-11  1.45945e-11        00000 
-3.16493e-11 -3.08407e-11        00000 
 1.40066e-12 -4.23626e-11        00000 
 8.78764e-11  7.35056e-11        00000 
 1.41608e-10 -2.20446e-12        00000 
 1.83640e-11 -1.28253e-12        00000 
-3.06954e-11  5.19051e-12        00000 
 3.30402e-12  8.47749e-11        00000 
-6.93490e-12  5.14149e-11        00000 
 2.84501e-11 -8.45368e-12        00000 
 4.76668e-11  5.14611e-12        00000 
 5.39304e-11 -5.20117e-12        00000 
 3.00204e-11 -3.22906e-11        00000 
 2.37392e-11 -5.80478e-11        00000 
 7.19780e-12 -8.48033e-12        00000 
-1.28253e-11 -5.95826e-11        00000 
 6.10854e-11  5.37064e-11        00000 
-2.17355e-11 -1.25731e-11        00000 
 6.09646e-11  2.44817e-11        00000 
 8.60112e-11 -6.29008e-11        00000 
-2.00091e-11 -4.43094e-11        00000 
 1.28182e-11  2.39240e-11        00000 
-3.44613e-11  4.08562e-12        00000 
 1.30498e-10  1.23848e-11        00000 
 2.71569e-11 -7.39746e-11        00000 
 8.18545e-12 -3.56692e-12        00000 
 1.63851e-11 -8.37090e-11        00000 
-6.25846e-11 -4.59330e-11        00000 
-1.28153e-10 -1.91633e-11        00000 
-2.10489e-11  1.07150e-10        00000 
 7.35270e-11  8.79439e-11        00000 
-1.49498e-11  5.11449e-11        00000 
 1.86589e-11 -1.07732e-10        00000 
 1.10845e-11 -5.21823e-11        00000 
 3.52429e-12 -3.44471e-11        00000 
-1.31195e-10 -3.81277e-11        00000 
-1.07633e-10  1.80336e-11        00000 
-2.15294e-11  7.52465e-12        00000 
-7.60851e-11  9.43601e-12        00000 
-7.24185e-11  1.28608e-12        00000 
-8.62599e-11 -1.22711e-11        00000 
 4.05294e-11 -2.44853e-11        00000 
 4.10409e-11  7.46283e-11        00000 
-2.89901e-11  3.02762e-11        00000 
-2.14300e-11  1.07867e-10        00000 
 2.21121e-11 -2.06768e-12        00000 
-1.20252e-10 -4.42100e-11        00000 
 1.52713e-11  4.28599e-11        00000 
 1.37561e-11  2.54516e-11        00000 
-8.40714e-11  5.23102e-11        00000 
 2.92175e-11 -5.18696e-12        00000 
-1.64192e-10 -4.46931e-11        00000 
-1.33440e-10 -3.25144e-11        00000 
-1.48361e-11  2.21974e-11        00000 
-6.45457e-11  6.26983e-11        00000 
-4.65548e-11  8.04476e-11        00000 
 4.80677e-11  2.01453e-10        00000 
 5.79803e-11  1.29319e-11        00000 
 8.71410e-11 -2.43858e-11        00000 
 6.08225e-12 -6.51141e-11        00000 
 2.48406e-11 -2.84075e-11        00000 
 1.15278e-10  1.05658e-10        00000 
 1.76556e-10  5.93161e-11        00000 
 1.34321e-10 -3.46176e-11        00000 
 7.44649e-12  6.85105e-11        00000 
-3.98712e-11  6.49152e-11        00000 
 3.12639e-11  7.25038e-11        00000 
-7.90124e-12  2.47695e-11        00000 
 7.75913e-11  6.59384e-12        00000 
 6.94627e-11  8.64020e-11        00000 
-2.29079e-11  7.53886e-11        00000 
-1.54614e-11  1.14369e-10        00000 
 5.59339e-11  1.98540e-10        00000 
-2.12026e-11 -3.03260e-11        00000 
 8.96113e-27 -1.13101e-26        00000 
 1.50546e-11 -4.01670e-11        00000 
 4.74847e-11 -7.99343e-11        00000 
-1.84584e-27  2.75513e-27        00000 
-1.86997e-11 -4.31069e-11        00000 
 8.79030e-12 -4.30755e-11        00000 
 3.63507e-27  2.72630e-27        00000 
-7.85345e-11 -2.08058e-11        00000 
 1.66502e-11 -1.05488e-10        00000 
 8.54879e-27 -2.43169e-27        00000 
-7.87415e-11 -4.88196e-11        00000 
 7.78995e-11 -1.49679e-11        00000 
 3.63507e-27 -9.08768e-28        00000 
 4.24869e-11  1.65484e-11        00000 
 5.17137e-11 -1.41541e-11        00000 
-3.79403e-27 -4.79080e-27        00000 
 5.64215e-12 -6.09700e-11        00000 
-3.10387e-11 -6.44116e-11        00000 
 4.54384e-27  1.45403e-26        00000 
-1.73142e-11  7.70857e-11        00000 
 2.81397e-11 -5.26410e-11        00000 
-5.45261e-27 -2.72630e-27        00000 
-3.69558e-11  3.54201e-11        00000 
-2.99982e-11 -1.11822e-11        00000 
-9.49177e-28 -5.86980e-27        00000 
-4.65068e-11  1.49862e-11        00000 
-3.74278e-11 -6.77609e-11        00000 
-5.99627e-11 -5.06040e-11        00000 
-2.76827e-11 -1.25311e-10        00000 
 2.98002e-11  9.41505e-11        00000 
 1.57510e-11 -4.92362e-11        00000 
 1.13509e-11  9.07328e-11        00000 
-9.55289e-11 -1.35536e-11        00000 
-7.18137e-11 -8.97376e-11        00000 
-3.49587e-11  3.03615e-11        00000 
 2.82760e-11 -7.96803e-11        00000 
-1.01306e-11  7.96696e-13        00000 
 7.30651e-11 -5.44098e-11        00000 
-6.81801e-11 -8.73914e-11        00000 
-1.01429e-10 -2.85463e-11        00000 
-3.89804e-11  4.82583e-11        00000 
-2.94627e-11  1.02854e-10        00000 
-4.26326e-11 -6.73261e-11        00000 
 5.32907e-12 -1.21654e-11        00000 
-5.45306e-11  2.51177e-11        00000 
 2.03926e-12 -1.74305e-10        00000 
-6.45102e-11  2.68647e-11        00000 
-5.73976e-11  3.87823e-11        00000 
-3.35492e-11  4.43618e-11        00000 
 1.44098e-11  5.82823e-12        00000 
-4.08562e-11 -2.23821e-11        00000 
-6.61782e-11  8.99161e-11        00000 
-2.73488e-11 -1.07647e-11        00000 
-6.89511e-11  9.62075e-11        00000 
 4.94609e-11 -3.96057e-11        00000 
 9.92699e-11 -6.36646e-11        00000 
 5.62039e-11 -3.64473e-11        00000 
 7.38751e-11 -6.42011e-11        00000 
 2.64677e-11 -2.71285e-11        00000 
-2.22968e-11 -6.79172e-11        00000 
-7.61879e-11 -5.81437e-11        00000 
 5.61613e-11  8.13571e-13        00000 
 7.18003e-11 -4.00746e-12        00000 
 6.57927e-11 -6.60627e-12        00000 
 2.22542e-11 -3.68487e-11        00000 
-5.93303e-12 -7.60583e-11        00000 
 1.20970e-10 -4.49241e-12        00000 
-1.79611e-10  6.07514e-13        00000 
 1.65414e-11 -3.12923e-11        00000 
 7.86855e-11  4.66898e-11        00000 
-5.10880e-11  1.77725e-11        00000 
-1.20579e-10  1.10738e-11        00000 
 1.03988e-11 -7.97069e-11        00000 
-8.42348e-11 -1.16939e-10        00000 
-1.16941e-10  3.91083e-11        00000 
 3.29798e-11 -7.11715e-11        00000 
-9.31166e-11  2.18847e-11        00000 
-1.31450e-11 -2.32703e-11        00000 
-1.01679e-11  1.64215e-10        00000 
 9.40759e-11 -4.62528e-11        00000 
 4.57590e-11 -1.23038e-10        00000 
-1.83107e-11  4.57980e-11        00000 
 9.64064e-11  2.31353e-11        00000 
 2.16716e-11  3.05498e-11        00000 
 4.52829e-11 -6.23395e-11        00000 
-2.95728e-11  3.40172e-11        00000 
-6.57678e-11 -7.32037e-11        00000 
-4.29310e-11 -4.23377e-11        00000 
 1.40972e-11  3.15445e-11        00000 
 3.70193e-11  2.71214e-11        00000 
-5.63745e-11  1.95399e-11        00000 
 2.06200e-11 -7.64757e-11        00000 
 1.57030e-11 -7.42659e-11        00000 
-8.98126e-11 -8.24478e-11        00000 
-2.92601e-11  3.73177e-11        00000 
 2.94165e-11 -4.95248e-12        00000 
-4.83666e-11 -2.78355e-11        00000 
 1.05302e-11 -7.39782e-11        00000 
-1.25056e-11 -4.10481e-11        00000 
-1.22093e-10 -1.13715e-10        00000 
-1.45377e-11 -8.93152e-12        00000 
-1.78176e-10 -7.42695e-11        00000 
-3.76232e-11 -7.11609e-12        00000 
-3.70619e-11  6.50786e-11        00000 
 3.01554e-11 -3.49090e-11        00000 
-1.44524e-10  2.36824e-11        00000 
 1.46002e-10  1.39842e-10        00000 
 2.77822e-11 -1.38698e-10        00000 
-4.65690e-11  2.38671e-11        00000 
 2.02931e-11  8.23093e-11        00000 
-4.53468e-11  2.76117e-11        00000 
 1.71497e-10  7.95382e-11        00000 
 6.24567e-11  8.43343e-11        00000 
-5.27649e-11 -1.26974e-11        00000 
 5.64313e-11  5.64491e-11        00000 
 1.56462e-11  1.13289e-10        00000 
 1.68683e-11  7.05995e-11        00000 
 1.28821e-10  1.24530e-10        00000 
 1.05743e-10 -6.69331e-11        00000 
-3.85540e-11 -4.43166e-11        00000 
-6.04246e-11  4.39222e-11        00000 
-5.56071e-11 -5.99201e-11        00000 
 4.64695e-12 -3.38147e-11        00000 
-7.79323e-11  9.36495e-12        00000 
-8.18545e-12 -8.19327e-11        00000 
 8.72546e-12 -4.22844e-11        00000 
-3.19602e-11  6.76934e-11        00000 
 3.25429e-12 -4.13181e-11        00000 
 1.46230e-11  8.27285e-11        00000 
-1.96437e-10  8.39968e-11        00000 
 4.77627e-11 -5.51807e-11        00000 
-1.58451e-11 -8.21103e-11        00000 
-6.49436e-11  8.15703e-11        00000 
 1.16898e-10  1.12266e-12        00000 
 2.20552e-11  1.85310e-11        00000 
-3.04539e-11  3.38289e-11        00000 
 2.75406e-11  1.60412e-10        00000 
 4.09273e-11 -6.59099e-11        00000 
 2.78533e-11 -9.52554e-11        00000 
-3.47598e-11  9.88152e-11        00000 
 1.43814e-11 -3.34808e-11        00000 
 4.94822e-11  9.28395e-11        00000 
-4.83737e-11  5.22675e-11        00000 
 1.34150e-11  2.61480e-12        00000 
 3.42624e-11  1.07974e-10        00000 
 3.91083e-11 -1.36282e-11        00000 
-1.03171e-11  8.11440e-12        00000 
-2.36895e-11  1.11825e-10        00000 
-6.35509e-11  4.27747e-12        00000 
-9.59517e-11 -1.36424e-11        00000 
-8.45546e-12  1.00172e-10        00000 
 2.54374e-11 -8.74536e-11        00000 
-1.95826e-11  3.45466e-11        00000 
 1.58025e-11  1.54088e-10        00000 
-1.03455e-11 -7.17648e-12        00000 
-5.45128e-11 -2.47908e-11        00000 
-1.13332e-10  1.06077e-10        00000 
-7.53744e-11  1.12976e-11        00000 
 4.14389e-11 -6.74873e-11        00000 
-1.84286e-10  2.82796e-11        00000 
-6.76721e-11  2.21547e-11        00000 
-5.39444e-11 -1.47622e-10        00000 
-6.20446e-11  1.63993e-11        00000 
-1.52056e-11  5.88898e-11        00000 
-7.89271e-11  9.25127e-11        00000 
-7.81597e-12  1.56021e-10        00000 
 1.58025e-11 -6.05240e-11        00000 
 2.33911e-11  6.42331e-11        00000 
-1.09196e-10  1.21794e-10        00000 
 2.62048e-11 -1.50635e-12        00000 
-1.78488e-11  7.54596e-12        00000 
-5.34897e-11 -3.47455e-11        00000 
-3.87104e-11 -4.05436e-11        00000 
-4.45368e-11 -1.74509e-11        00000 
-6.00551e-11  4.05080e-11        00000 
 8.18545e-11 -3.26850e-11        00000 
-1.04933e-10 -3.20597e-11        00000 
-3.63514e-11  2.43006e-12        00000 
-1.22100e-10  1.55751e-11        00000 
 1.38414e-11  2.30074e-11        00000 
-1.78488e-11 -2.40874e-11        00000 
-5.84919e-11  8.06608e-11        00000 
-1.21133e-10 -8.96705e-12        00000 
-1.59901e-10 -1.34435e-11        00000 
-1.26477e-11  4.01030e-11        00000 
-6.31815e-11  1.20679e-10        00000 
-7.91829e-11 -4.33005e-11        00000 
 6.85532e-11  1.19684e-10        00000 
-2.84217e-12 -3.41061e-12        00000 
 3.28555e-11  4.44516e-11        00000 
-2.31637e-11  2.19870e-10        00000 
 3.23155e-11  4.49347e-11        00000 
 7.00027e-11  6.70042e-11        00000 
 4.75495e-11  1.21105e-10        00000 
-5.08180e-11  5.14433e-12        00000 
 1.55751e-10  9.07363e-11        00000 
 3.85683e-11 -1.58025e-11        00000 
 7.38964e-11 -2.34763e-11        00000 
 7.09406e-11  6.94911e-11        00000 
 7.40954e-11  9.98028e-11        00000 
-2.29477e-10 -4.42100e-11        00000 
-3.75735e-11 -7.23333e-12        00000 
-4.92832e-11  8.49099e-11        00000 
-1.26732e-10  4.43379e-11        00000 
 2.30216e-12  3.15481e-12        00000 
-4.45937e-11  8.55920e-11        00000 
-8.16840e-11 -3.29408e-11        00000 
 2.47837e-11  1.09992e-11        00000 
 4.91696e-12  1.27130e-10        00000 
-5.93161e-11  2.91038e-11        00000 
-7.87566e-11 -3.88098e-11        00000 
-1.77920e-11  7.98650e-12        00000 
-1.00698e-10  7.70370e-11        00000 
 7.12248e-11  3.15197e-11        00000 
 7.10543e-13  9.40759e-12        00000 
-4.26326e-13  2.16460e-10        00000 
-1.70530e-13  1.88862e-11        00000 
 7.66818e-11  2.88537e-10        00000 
 4.44516e-11 -1.38385e-10        00000 
 6.25278e-12 -2.61906e-11        00000 
-3.26850e-11  2.23821e-11        00000 
 2.07478e-11 -6.60378e-11        00000 
 7.21911e-11  8.36451e-11        00000 
 1.90994e-11  1.36453e-10        00000 
-4.32010e-11  1.96394e-11        00000 
-3.92220e-12  1.53619e-11        00000 
-7.16227e-11  8.73257e-11        00000 
 1.37561e-11  8.79368e-11        00000 
 2.85354e-11  9.50422e-11        00000 
 8.07177e-12  1.00471e-10        00000 
-1.97815e-11  6.83826e-11        00000 
-4.09273e-11 -6.20730e-11        00000 
 1.59730e-11  3.58114e-12        00000 
 2.67733e-11  1.31450e-11        00000 
 3.14344e-11 -1.97105e-11        00000 
-8.55493e-11 -3.84262e-11        00000 
 8.16840e-11  4.10267e-11        00000 
 3.80851e-12  7.81881e-11        00000 
-1.90425e-11  3.19744e-11        00000 
 1.07548e-10 -1.42720e-10        00000 
 2.62617e-11 -5.60476e-11        00000 
-1.04876e-10  2.29832e-10        00000 
 2.27374e-12 -3.71529e-10        00000 
-6.14140e-11 -7.33102e-12        00000 
-4.81625e-11 -7.98117e-11        00000 
 7.68186e-11 -1.06262e-10        00000 
 6.95426e-11  5.38627e-11        00000 
 4.67004e-12  1.03713e-11        00000 
 2.91173e-11  1.91065e-11        00000 
-4.41958e-12 -4.75333e-11        00000 
-2.20229e-11 -4.61355e-11        00000 
-8.11973e-12 -1.73443e-11        00000 
-4.15166e-11  5.41487e-11        00000 
-2.00586e-11  8.50346e-11        00000 
-1.73034e-11  2.14353e-11        00000 
 5.80354e-11 -3.57243e-11        00000 
-7.16199e-11 -3.04610e-11        00000 
-3.51790e-11 -1.13700e-11        00000 
 9.70655e-11  5.11449e-11        00000 
-7.36726e-11  5.36531e-11        00000 
-1.71182e-11  5.95684e-11        00000 
 3.04112e-11 -3.55129e-11        00000 
 9.10112e-11 -4.71232e-11        00000 
 6.29043e-11 -1.84883e-11        00000 
 8.36970e-11 -5.39231e-11        00000 
 1.47438e-12  1.98526e-11        00000 
 2.32534e-12 -2.00586e-11        00000 
-3.87672e-11  1.10827e-11        00000 
 4.43453e-11 -2.46914e-11        00000 
-4.35882e-11  3.68239e-11        00000 
-1.80998e-11  1.97105e-11        00000 
-7.01235e-11 -2.02185e-11        00000 
-3.76661e-11  9.66338e-13        00000 
-1.57030e-11  2.00728e-11        00000 
-2.96450e-11  2.54374e-12        00000 
-5.80975e-11 -1.11724e-10        00000 
 2.08136e-11 -1.06581e-12        00000 
-1.81863e-11 -8.89742e-11        00000 
 1.10410e-10  1.06127e-10        00000 
-8.78231e-12  3.55271e-11        00000 
-7.59757e-12 -3.96767e-11        00000 
 6.78284e-11 -3.40350e-11        00000 
-4.11233e-11  4.80043e-11        00000 
-4.85159e-11  5.50635e-11        00000 
 1.18818e-10  3.48308e-11        00000 
-3.42126e-11 -1.92522e-11        00000 
 4.20121e-11 -8.17550e-11        00000 
-1.24061e-11  9.47864e-12        00000 
 6.83613e-11  3.28129e-11        00000 
-3.38005e-11  3.57119e-11        00000 
 2.89918e-11  7.54028e-11        00000 
 1.13118e-11  4.49702e-11        00000 
-1.07203e-11  6.66205e-11        00000 
 5.84706e-11  5.74261e-11        00000 
 3.17335e-11 -2.48406e-11        00000 
 3.81775e-11  5.88045e-11        00000 
 7.30749e-12 -3.83693e-11        00000 
-5.42713e-11  1.81807e-10        00000 
 1.71098e-11 -6.35794e-11        00000 
 8.85336e-12  5.00116e-11        00000 
-4.21119e-11  1.30484e-10        00000 
-7.16085e-11  5.58522e-11        00000 
-1.64535e-13  7.41807e-11        00000 
 2.75122e-11 -1.22569e-12        00000 
 3.74412e-11  2.82228e-11        00000 
 7.12106e-11  3.32179e-12        00000 
 5.98102e-11  9.64064e-11        00000 
 2.17284e-11  1.03835e-10        00000 
-1.36554e-10  1.08429e-10        00000 
-1.45093e-11 -6.01688e-11        00000 
-1.54734e-11  9.50706e-11        00000 
-8.52793e-11  6.71818e-11        00000 
-4.47242e-12  1.93268e-12        00000 
-1.50351e-11  1.42791e-10        00000 
-8.19619e-11 -9.29390e-11        00000 
-7.61133e-11  1.18845e-10        00000 