<?xml version="1.0" encoding="utf-8"?>
<VTKFile byte_order="LittleEndian" type="UnstructuredGrid" version="0.1">
   <UnstructuredGrid>
      <Piece NumberOfCells="1296" NumberOfPoints="685">
         <Points>
            <DataArray Name="Points" NumberOfComponents="3" format="ascii" type="Float32">
0.0000 0.0000 0.0000
0.0000 0.1111 0.0000
0.0000 0.2222 0.0000
0.0000 0.3333 0.0000
0.0000 0.4444 0.0000
0.0000 0.5556 0.0000
0.0000 0.6667 0.0000
0.0000 0.7778 0.0000
0.0000 0.8889 0.0000
0.0000 1.0000 0.0000
0.2222 0.0000 0.0000
0.2222 0.1111 0.0000
0.2222 0.2222 0.0000
0.2222 0.3333 0.0000
0.2222 0.4444 0.0000
0.2222 0.5556 0.0000
0.2222 0.6667 0.0000
0.2222 0.7778 0.0000
0.2222 0.8889 0.0000
0.2222 1.0000 0.0000
0.4444 0.0000 0.0000
0.4444 0.1111 0.0000
0.4444 0.2222 0.0000
0.4444 0.3333 0.0000
0.4444 0.4444 0.0000
0.4444 0.5556 0.0000
0.4444 0.6667 0.0000
0.4444 0.7778 0.0000
0.4444 0.8889 0.0000
0.4444 1.0000 0.0000
0.6667 0.0000 0.0000
0.6667 0.1111 0.0000
0.6667 0.2222 0.0000
0.6667 0.3333 0.0000
0.6667 0.4444 0.0000
0.6667 0.5556 0.0000
0.6667 0.6667 0.0000
0.6667 0.7778 0.0000
0.6667 0.8889 0.0000
0.6667 1.0000 0.0000
0.8889 0.0000 0.0000
0.8889 0.1111 0.0000
0.8889 0.2222 0.0000
0.8889 0.3333 0.0000
0.8889 0.4444 0.0000
0.8889 0.5556 0.0000
0.8889 0.6667 0.0000
0.8889 0.7778 0.0000
0.8889 0.8889 0.0000
0.8889 1.0000 0.0000
1.1111 0.0000 0.0000
1.1111 0.1111 0.0000
1.1111 0.2222 0.0000
1.1111 0.3333 0.0000
1.1111 0.4444 0.0000
1.1111 0.5556 0.0000
1.1111 0.6667 0.0000
1.1111 0.7778 0.0000
1.1111 0.8889 0.0000
1.1111 1.0000 0.0000
1.3333 0.0000 0.0000
1.3333 0.1111 0.0000
1.3333 0.2222 0.0000
1.3333 0.3333 0.0000
1.3333 0.4444 0.0000
1.3333 0.5556 0.0000
1.3333 0.6667 0.0000
1.3333 0.7778 0.0000
1.3333 0.8889 0.0000
1.3333 1.0000 0.0000
1.5556 0.0000 0.0000
1.5556 0.1111 0.0000
1.5556 0.2222 0.0000
1.5556 0.3333 0.0000
1.5556 0.4444 0.0000
1.5556 0.5556 0.0000
1.5556 0.6667 0.0000
1.5556 0.7778 0.0000
1.5556 0.8889 0.0000
1.5556 1.0000 0.0000
1.7778 0.0000 0.0000
1.7778 0.1111 0.0000
1.7778 0.2222 0.0000
1.7778 0.3333 0.0000
1.7778 0.4444 0.0000
1.7778 0.5556 0.0000
1.7778 0.6667 0.0000
1.7778 0.7778 0.0000
1.7778 0.8889 0.0000
1.7778 1.0000 0.0000
2.0000 0.0000 0.0000
2.0000 0.1111 0.0000
2.0000 0.2222 0.0000
2.0000 0.3333 0.0000
2.0000 0.4444 0.0000
2.0000 0.5556 0.0000
2.0000 0.6667 0.0000
2.0000 0.7778 0.0000
2.0000 0.8889 0.0000
2.0000 1.0000 0.0000
0.1111 0.0556 0.0000
0.1111 0.1667 0.0000
0.1111 0.2778 0.0000
0.1111 0.3889 0.0000
0.1111 0.5000 0.0000
0.1111 0.6111 0.0000
0.1111 0.7222 0.0000
0.1111 0.8333 0.0000
0.1111 0.9444 0.0000
0.3333 0.0556 0.0000
0.3333 0.1667 0.0000
0.3333 0.2778 0.0000
0.3333 0.3889 0.0000
0.3333 0.5000 0.0000
0.3333 0.6111 0.0000
0.3333 0.7222 0.0000
0.3333 0.8333 0.0000
0.3333 0.9444 0.0000
0.5556 0.0556 0.0000
0.5556 0.1667 0.0000
0.5556 0.2778 0.0000
0.5556 0.3889 0.0000
0.5556 0.5000 0.0000
0.5556 0.6111 0.0000
0.5556 0.7222 0.0000
0.5556 0.8333 0.0000
0.5556 0.9444 0.0000
0.7778 0.0556 0.0000
0.7778 0.1667 0.0000
0.7778 0.2778 0.0000
0.7778 0.3889 0.0000
0.7778 0.5000 0.0000
0.7778 0.6111 0.0000
0.7778 0.7222 0.0000
0.7778 0.8333 0.0000
0.7778 0.9444 0.0000
1.0000 0.0556 0.0000
1.0000 0.1667 0.0000
1.0000 0.2778 0.0000
1.0000 0.3889 0.0000
1.0000 0.5000 0.0000
1.0000 0.6111 0.0000
1.0000 0.7222 0.0000
1.0000 0.8333 0.0000
1.0000 0.9444 0.0000
1.2222 0.0556 0.0000
1.2222 0.1667 0.0000
1.2222 0.2778 0.0000
1.2222 0.3889 0.0000
1.2222 0.5000 0.0000
1.2222 0.6111 0.0000
1.2222 0.7222 0.0000
1.2222 0.8333 0.0000
1.2222 0.9444 0.0000
1.4444 0.0556 0.0000
1.4444 0.1667 0.0000
1.4444 0.2778 0.0000
1.4444 0.3889 0.0000
1.4444 0.5000 0.0000
1.4444 0.6111 0.0000
1.4444 0.7222 0.0000
1.4444 0.8333 0.0000
1.4444 0.9444 0.0000
1.6667 0.0556 0.0000
1.6667 0.1667 0.0000
1.6667 0.2778 0.0000
1.6667 0.3889 0.0000
1.6667 0.5000 0.0000
1.6667 0.6111 0.0000
1.6667 0.7222 0.0000
1.6667 0.8333 0.0000
1.6667 0.9444 0.0000
1.8889 0.0556 0.0000
1.8889 0.1667 0.0000
1.8889 0.2778 0.0000
1.8889 0.3889 0.0000
1.8889 0.5000 0.0000
1.8889 0.6111 0.0000
1.8889 0.7222 0.0000
1.8889 0.8333 0.0000
1.8889 0.9444 0.0000
0.0000 0.0556 0.0000
0.0556 0.0278 0.0000
0.0556 0.0833 0.0000
0.0000 0.1667 0.0000
0.0556 0.1389 0.0000
0.0556 0.1944 0.0000
0.0000 0.2778 0.0000
0.0556 0.2500 0.0000
0.0556 0.3056 0.0000
0.0000 0.3889 0.0000
0.0556 0.3611 0.0000
0.0556 0.4167 0.0000
0.0000 0.5000 0.0000
0.0556 0.4722 0.0000
0.0556 0.5278 0.0000
0.0000 0.6111 0.0000
0.0556 0.5833 0.0000
0.0556 0.6389 0.0000
0.0000 0.7222 0.0000
0.0556 0.6944 0.0000
0.0556 0.7500 0.0000
0.0000 0.8333 0.0000
0.0556 0.8056 0.0000
0.0556 0.8611 0.0000
0.0000 0.9444 0.0000
0.0556 0.9167 0.0000
0.0556 0.9722 0.0000
0.2222 0.0556 0.0000
0.2778 0.0278 0.0000
0.2778 0.0833 0.0000
0.2222 0.1667 0.0000
0.2778 0.1389 0.0000
0.2778 0.1944 0.0000
0.2222 0.2778 0.0000
0.2778 0.2500 0.0000
0.2778 0.3056 0.0000
0.2222 0.3889 0.0000
0.2778 0.3611 0.0000
0.2778 0.4167 0.0000
0.2222 0.5000 0.0000
0.2778 0.4722 0.0000
0.2778 0.5278 0.0000
0.2222 0.6111 0.0000
0.2778 0.5833 0.0000
0.2778 0.6389 0.0000
0.2222 0.7222 0.0000
0.2778 0.6944 0.0000
0.2778 0.7500 0.0000
0.2222 0.8333 0.0000
0.2778 0.8056 0.0000
0.2778 0.8611 0.0000
0.2222 0.9444 0.0000
0.2778 0.9167 0.0000
0.2778 0.9722 0.0000
0.4444 0.0556 0.0000
0.5000 0.0278 0.0000
0.5000 0.0833 0.0000
0.4444 0.1667 0.0000
0.5000 0.1389 0.0000
0.5000 0.1944 0.0000
0.4444 0.2778 0.0000
0.5000 0.2500 0.0000
0.5000 0.3056 0.0000
0.4444 0.3889 0.0000
0.5000 0.3611 0.0000
0.5000 0.4167 0.0000
0.4444 0.5000 0.0000
0.5000 0.4722 0.0000
0.5000 0.5278 0.0000
0.4444 0.6111 0.0000
0.5000 0.5833 0.0000
0.5000 0.6389 0.0000
0.4444 0.7222 0.0000
0.5000 0.6944 0.0000
0.5000 0.7500 0.0000
0.4444 0.8333 0.0000
0.5000 0.8056 0.0000
0.5000 0.8611 0.0000
0.4444 0.9444 0.0000
0.5000 0.9167 0.0000
0.5000 0.9722 0.0000
0.6667 0.0556 0.0000
0.7222 0.0278 0.0000
0.7222 0.0833 0.0000
0.6667 0.1667 0.0000
0.7222 0.1389 0.0000
0.7222 0.1944 0.0000
0.6667 0.2778 0.0000
0.7222 0.2500 0.0000
0.7222 0.3056 0.0000
0.6667 0.3889 0.0000
0.7222 0.3611 0.0000
0.7222 0.4167 0.0000
0.6667 0.5000 0.0000
0.7222 0.4722 0.0000
0.7222 0.5278 0.0000
0.6667 0.6111 0.0000
0.7222 0.5833 0.0000
0.7222 0.6389 0.0000
0.6667 0.7222 0.0000
0.7222 0.6944 0.0000
0.7222 0.7500 0.0000
0.6667 0.8333 0.0000
0.7222 0.8056 0.0000
0.7222 0.8611 0.0000
0.6667 0.9444 0.0000
0.7222 0.9167 0.0000
0.7222 0.9722 0.0000
0.8889 0.0556 0.0000
0.9444 0.0278 0.0000
0.9444 0.0833 0.0000
0.8889 0.1667 0.0000
0.9444 0.1389 0.0000
0.9444 0.1944 0.0000
0.8889 0.2778 0.0000
0.9444 0.2500 0.0000
0.9444 0.3056 0.0000
0.8889 0.3889 0.0000
0.9444 0.3611 0.0000
0.9444 0.4167 0.0000
0.8889 0.5000 0.0000
0.9444 0.4722 0.0000
0.9444 0.5278 0.0000
0.8889 0.6111 0.0000
0.9444 0.5833 0.0000
0.9444 0.6389 0.0000
0.8889 0.7222 0.0000
0.9444 0.6944 0.0000
0.9444 0.7500 0.0000
0.8889 0.8333 0.0000
0.9444 0.8056 0.0000
0.9444 0.8611 0.0000
0.8889 0.9444 0.0000
0.9444 0.9167 0.0000
0.9444 0.9722 0.0000
1.1111 0.0556 0.0000
1.1667 0.0278 0.0000
1.1667 0.0833 0.0000
1.1111 0.1667 0.0000
1.1667 0.1389 0.0000
1.1667 0.1944 0.0000
1.1111 0.2778 0.0000
1.1667 0.2500 0.0000
1.1667 0.3056 0.0000
1.1111 0.3889 0.0000
1.1667 0.3611 0.0000
1.1667 0.4167 0.0000
1.1111 0.5000 0.0000
1.1667 0.4722 0.0000
1.1667 0.5278 0.0000
1.1111 0.6111 0.0000
1.1667 0.5833 0.0000
1.1667 0.6389 0.0000
1.1111 0.7222 0.0000
1.1667 0.6944 0.0000
1.1667 0.7500 0.0000
1.1111 0.8333 0.0000
1.1667 0.8056 0.0000
1.1667 0.8611 0.0000
1.1111 0.9444 0.0000
1.1667 0.9167 0.0000
1.1667 0.9722 0.0000
1.3333 0.0556 0.0000
1.3889 0.0278 0.0000
1.3889 0.0833 0.0000
1.3333 0.1667 0.0000
1.3889 0.1389 0.0000
1.3889 0.1944 0.0000
1.3333 0.2778 0.0000
1.3889 0.2500 0.0000
1.3889 0.3056 0.0000
1.3333 0.3889 0.0000
1.3889 0.3611 0.0000
1.3889 0.4167 0.0000
1.3333 0.5000 0.0000
1.3889 0.4722 0.0000
1.3889 0.5278 0.0000
1.3333 0.6111 0.0000
1.3889 0.5833 0.0000
1.3889 0.6389 0.0000
1.3333 0.7222 0.0000
1.3889 0.6944 0.0000
1.3889 0.7500 0.0000
1.3333 0.8333 0.0000
1.3889 0.8056 0.0000
1.3889 0.8611 0.0000
1.3333 0.9444 0.0000
1.3889 0.9167 0.0000
1.3889 0.9722 0.0000
1.5556 0.0556 0.0000
1.6111 0.0278 0.0000
1.6111 0.0833 0.0000
1.5556 0.1667 0.0000
1.6111 0.1389 0.0000
1.6111 0.1944 0.0000
1.5556 0.2778 0.0000
1.6111 0.2500 0.0000
1.6111 0.3056 0.0000
1.5556 0.3889 0.0000
1.6111 0.3611 0.0000
1.6111 0.4167 0.0000
1.5556 0.5000 0.0000
1.6111 0.4722 0.0000
1.6111 0.5278 0.0000
1.5556 0.6111 0.0000
1.6111 0.5833 0.0000
1.6111 0.6389 0.0000
1.5556 0.7222 0.0000
1.6111 0.6944 0.0000
1.6111 0.7500 0.0000
1.5556 0.8333 0.0000
1.6111 0.8056 0.0000
1.6111 0.8611 0.0000
1.5556 0.9444 0.0000
1.6111 0.9167 0.0000
1.6111 0.9722 0.0000
1.7778 0.0556 0.0000
1.8333 0.0278 0.0000
1.8333 0.0833 0.0000
1.7778 0.1667 0.0000
1.8333 0.1389 0.0000
1.8333 0.1944 0.0000
1.7778 0.2778 0.0000
1.8333 0.2500 0.0000
1.8333 0.3056 0.0000
1.7778 0.3889 0.0000
1.8333 0.3611 0.0000
1.8333 0.4167 0.0000
1.7778 0.5000 0.0000
1.8333 0.4722 0.0000
1.8333 0.5278 0.0000
1.7778 0.6111 0.0000
1.8333 0.5833 0.0000
1.8333 0.6389 0.0000
1.7778 0.7222 0.0000
1.8333 0.6944 0.0000
1.8333 0.7500 0.0000
1.7778 0.8333 0.0000
1.8333 0.8056 0.0000
1.8333 0.8611 0.0000
1.7778 0.9444 0.0000
1.8333 0.9167 0.0000
1.8333 0.9722 0.0000
0.1111 0.1111 0.0000
0.1667 0.0833 0.0000
0.1111 0.2222 0.0000
0.1667 0.1944 0.0000
0.1111 0.3333 0.0000
0.1667 0.3056 0.0000
0.1111 0.4444 0.0000
0.1667 0.4167 0.0000
0.1111 0.5556 0.0000
0.1667 0.5278 0.0000
0.1111 0.6667 0.0000
0.1667 0.6389 0.0000
0.1111 0.7778 0.0000
0.1667 0.7500 0.0000
0.1111 0.8889 0.0000
0.1667 0.8611 0.0000
0.1111 1.0000 0.0000
0.1667 0.9722 0.0000
0.3333 0.1111 0.0000
0.3889 0.0833 0.0000
0.3333 0.2222 0.0000
0.3889 0.1944 0.0000
0.3333 0.3333 0.0000
0.3889 0.3056 0.0000
0.3333 0.4444 0.0000
0.3889 0.4167 0.0000
0.3333 0.5556 0.0000
0.3889 0.5278 0.0000
0.3333 0.6667 0.0000
0.3889 0.6389 0.0000
0.3333 0.7778 0.0000
0.3889 0.7500 0.0000
0.3333 0.8889 0.0000
0.3889 0.8611 0.0000
0.3333 1.0000 0.0000
0.3889 0.9722 0.0000
0.5556 0.1111 0.0000
[...]
         <PointData>
            <DataArray Name="fValues" NumberOfComponents="3" format="ascii" type="Float64">
 8.75306e-22  5.33389e-22        00000 
-9.72077e-22 -3.77811e-22        00000 
 1.65012e-22 -3.54124e-22        00000 
 1.00337e-21 -7.52524e-22        00000 
 1.49520e-22 -3.44288e-23        00000 
-6.27103e-22        00000        00000 
-5.83313e-22 -4.38222e-22        00000 
 1.34705e-21  2.50614e-22        00000 
-1.25967e-21        00000        00000 
-2.91769e-22 -5.83537e-22        00000 
-2.08115e-07  1.46547e-05        00000 
 9.34424e-07  3.11956e-06        00000 
 1.72784e-06  6.03421e-06        00000 
-1.08751e-05 -7.25818e-06        00000 
-6.45340e-06 -1.60249e-06        00000 
-4.81840e-06  3.41178e-06        00000 
-1.61799e-06  1.93146e-06        00000 
-8.03206e-06  8.42352e-06        00000 
-3.33058e-06  6.86353e-07        00000 
-5.43209e-06 -3.63081e-05        00000 
 1.12966e-06  1.69696e-05        00000 
-3.45660e-06  9.09021e-06        00000 
 2.41940e-06 -5.87707e-06        00000 
 1.01141e-06 -1.01857e-05        00000 
-1.82933e-05 -1.09715e-05        00000 
 1.29766e-05  5.12129e-06        00000 
 4.61189e-06 -1.52836e-06        00000 
-2.96214e-06 -1.17283e-05        00000 
 5.65800e-07 -3.75951e-06        00000 
 2.17121e-07 -6.51298e-06        00000 
 1.46684e-06  1.62677e-05        00000 
 1.13261e-06  7.39531e-06        00000 
 3.76097e-06  3.72508e-06        00000 
-7.78529e-06 -2.19011e-06        00000 
-4.65403e-06 -8.84072e-07        00000 
 7.34719e-06  7.31852e-06        00000 
-2.24083e-06  1.10570e-07        00000 
-1.00547e-05 -7.09799e-06        00000 
-6.27836e-06 -4.43880e-06        00000 
-5.27809e-06 -9.85894e-07        00000 
 2.49993e-06  1.46815e-05        00000 
-1.14018e-06  7.02476e-06        00000 
 1.44858e-06 -3.50534e-06        00000 
-2.56334e-06 -5.09880e-06        00000 
-1.42308e-05 -6.83568e-06        00000 
 3.22194e-06  6.35130e-06        00000 
 6.48591e-07  6.28672e-06        00000 
-2.25885e-06 -4.90606e-07        00000 
 3.44268e-06  8.44836e-06        00000 
-4.85320e-06 -2.41653e-05        00000 
 1.25012e-05  6.88317e-06        00000 
 4.10185e-06  1.05966e-06        00000 
 2.55693e-06  4.65183e-06        00000 
-1.72578e-06  1.12761e-05        00000 
-1.96416e-06  1.87434e-07        00000 
 2.79524e-06  2.59738e-06        00000 
 3.69782e-06 -5.19026e-06        00000 
-6.65613e-07  1.52155e-06        00000 
-5.58634e-06 -4.11777e-07        00000 
-3.31188e-06 -5.51089e-06        00000 
-4.88353e-07 -8.40406e-06        00000 
 3.86923e-06 -5.41983e-06        00000 
 9.88025e-06 -3.20445e-06        00000 
-2.74756e-06  6.58378e-06        00000 
 3.20473e-06  6.25919e-06        00000 
-3.80706e-06  1.80303e-06        00000 
-1.13271e-05 -4.50429e-06        00000 
-8.91083e-06 -1.22389e-05        00000 
 4.41457e-06  7.45190e-08        00000 
 9.24844e-06 -4.59000e-06        00000 
 1.71749e-07 -1.18636e-05        00000 
 4.60287e-06 -6.04852e-06        00000 
 5.85887e-06  2.35011e-06        00000 
 5.98900e-06  4.03526e-06        00000 
 2.30353e-06  2.83409e-06        00000 
 8.34370e-07 -3.76258e-06        00000 
-3.58741e-06  2.75335e-09        00000 
 9.36208e-06 -5.58828e-07        00000 
 8.22679e-06 -3.96544e-06        00000 
 3.53571e-06 -1.27856e-05        00000 
-7.22426e-06  1.28829e-05        00000 
-1.29286e-05  1.56350e-05        00000 
-9.92216e-06  1.50600e-06        00000 
-1.08990e-05 -2.47947e-06        00000 
-1.16046e-05 -9.61179e-06        00000 
-3.97570e-06 -5.02718e-06        00000 
 2.68337e-07  3.16016e-06        00000 
-4.42062e-06  8.37540e-06        00000 
 8.28686e-07  6.09892e-06        00000 
-8.01118e-06  1.93077e-05        00000 
-5.10338e-06  4.12584e-06        00000 
 5.19224e-06  3.80975e-06        00000 
 3.99943e-06 -3.19272e-06        00000 
-2.27374e-06  9.80935e-07        00000 
-5.99128e-06  4.16943e-06        00000 
 4.66458e-06  1.03775e-06        00000 
-8.30706e-06  5.04572e-06        00000 
 8.30796e-06 -1.23362e-06        00000 
-2.51008e-06  1.74167e-06        00000 
-3.20476e-06 -2.24074e-06        00000 
 7.30058e-06  5.28845e-06        00000 
-5.35376e-07  1.25825e-05        00000 
-1.64714e-06  1.24672e-05        00000 
 4.80481e-06  7.26632e-06        00000 
 1.16204e-05 -1.65837e-06        00000 
 7.48320e-06  6.61149e-06        00000 
 2.49782e-06 -2.00793e-06        00000 
-2.70791e-06 -4.04422e-06        00000 
-3.61986e-06  1.26362e-06        00000 
-1.36411e-06  3.08805e-06        00000 
-1.27660e-05  6.72936e-06        00000 
-1.79005e-06  8.76597e-06        00000 
-7.98998e-06  9.04322e-06        00000 
-1.95467e-06  8.38541e-06        00000 
-1.31312e-07 -1.97377e-07        00000 
-1.96832e-06  1.32816e-06        00000 
 9.20289e-07  2.92375e-06        00000 
-9.25817e-06  1.00544e-05        00000 
 6.79164e-06 -1.04524e-06        00000 
 3.54345e-06  8.20730e-06        00000 
 5.01034e-06  9.04128e-06        00000 
 6.54001e-06  1.24697e-05        00000 
 3.38010e-06  4.27624e-06        00000 
 7.31895e-06  8.24708e-06        00000 
 2.60987e-06  1.06998e-05        00000 
-8.54373e-06  3.98183e-06        00000 
-7.55794e-07 -2.36009e-06        00000 
 3.43933e-06 -7.27663e-06        00000 
-9.10211e-06 -3.15931e-06        00000 
-4.98189e-06 -1.50783e-06        00000 
-1.77415e-05 -1.13377e-05        00000 
 3.02566e-06 -1.74820e-06        00000 
-2.70786e-06  3.08373e-06        00000 
 1.78091e-06  2.44515e-06        00000 
-1.23782e-05 -1.10008e-05        00000 
-9.57787e-06 -1.03567e-05        00000 
-4.88656e-07 -4.71634e-06        00000 
-2.46150e-06 -8.95286e-06        00000 
 6.59654e-06 -7.87121e-06        00000 
-6.12921e-06 -2.33412e-06        00000 
-2.41075e-06 -9.36833e-06        00000 
 3.20336e-06 -8.31417e-06        00000 
 1.28375e-06 -1.25296e-06        00000 
-4.73547e-06 -8.44098e-06        00000 
 1.53352e-06  4.98741e-06        00000 
 3.76336e-06  4.74206e-06        00000 
 1.27036e-05  5.32336e-06        00000 
 1.36137e-05 -1.28582e-06        00000 
 1.09096e-05  5.19016e-06        00000 
 7.52284e-06  6.11545e-06        00000 
 7.71557e-07  4.52594e-06        00000 
 1.35322e-05  7.26645e-06        00000 
-1.58502e-06 -5.13719e-06        00000 
-1.68471e-08 -1.75200e-06        00000 
 2.06651e-06  3.67032e-07        00000 
-8.17832e-06  8.01818e-06        00000 
-4.08938e-06  6.77638e-06        00000 
 4.34558e-06  1.18248e-05        00000 
 3.81516e-06  1.62715e-05        00000 
 2.16389e-06  1.28120e-05        00000 
-2.40820e-06  6.49410e-06        00000 
-6.83333e-06  6.36600e-06        00000 
-1.83069e-06  8.77115e-07        00000 
-8.17766e-06 -6.13218e-06        00000 
 2.59474e-06  2.93684e-06        00000 
 2.08204e-06 -1.84334e-06        00000 
-4.91331e-06  7.68294e-07        00000 
-4.71477e-06 -1.03912e-07        00000 
-1.65957e-06 -7.16829e-06        00000 
-1.09769e-05  1.00539e-06        00000 
-8.59675e-06  6.78506e-06        00000 
-5.40190e-06  7.20359e-06        00000 
 7.01441e-06  1.59342e-05        00000 
 6.96488e-06  7.23833e-06        00000 
-3.80596e-06  5.54007e-06        00000 
-2.03452e-06  9.97540e-07        00000 
-1.21086e-07 -6.62945e-06        00000 
-3.69669e-06 -5.32353e-06        00000 
-6.82353e-06 -8.52561e-07        00000 
 2.32940e-06 -7.36517e-06        00000 
-6.43764e-06 -1.43410e-05        00000 
-6.94132e-22  7.87941e-22        00000 
-7.20431e-06 -1.23940e-05        00000 
-8.62975e-06  3.37570e-07        00000 
-1.46616e-22 -1.13212e-21        00000 
 2.87287e-06 -8.62221e-07        00000 
 9.67999e-07  3.40949e-06        00000 
 1.07203e-21  9.52912e-22        00000 
-2.04960e-06 -8.70004e-07        00000 
 5.40683e-06  2.36206e-06        00000 
-8.58718e-22 -4.70718e-22        00000 
 2.51154e-06 -7.02107e-06        00000 
-5.38132e-06  5.40742e-06        00000 
 1.78671e-22 -1.19114e-21        00000 
-1.32884e-06 -6.24842e-06        00000 
-3.89272e-06 -6.17149e-06        00000 
 4.54561e-22  7.30370e-23        00000 
-2.87973e-06 -4.50270e-06        00000 
-6.62668e-06 -2.09170e-06        00000 
-3.72231e-22 -4.76456e-22        00000 
 3.53090e-07  3.71956e-06        00000 
 4.50905e-06  9.03754e-07        00000 
-1.42937e-21 -1.19114e-22        00000 
 3.37858e-06  1.84257e-06        00000 
-4.24390e-06 -3.18852e-06        00000 
 1.75306e-21        00000        00000 
-4.73341e-06 -2.48472e-06        00000 
-1.53544e-06 -7.34437e-07        00000 
-2.97773e-07 -5.26710e-06        00000 
-8.13701e-06 -1.65888e-05        00000 
-3.29919e-06  2.68081e-06        00000 
-1.11365e-05 -1.11392e-05        00000 
-6.06919e-06  2.41830e-06        00000 
-2.53438e-06  2.55780e-06        00000 
 8.82645e-07  6.33723e-06        00000 
-5.86738e-07  4.19398e-06        00000 
 1.10712e-06  5.46322e-06        00000 
-4.02649e-06  1.32229e-05        00000 
 3.31139e-06  3.34472e-06        00000 
-3.75281e-06  3.33946e-06        00000 
-6.81534e-06  4.61920e-06        00000 
 3.09353e-06  1.37116e-06        00000 
-6.70635e-06  4.49837e-06        00000 
-9.47589e-06 -1.33959e-06        00000 
-4.85894e-07  5.13342e-06        00000 
-1.42167e-07 -2.98209e-06        00000 
-3.61075e-06 -3.38537e-07        00000 
-2.00422e-06  5.43773e-06        00000 
-5.47718e-06 -5.55918e-06        00000 
-7.12846e-06 -5.53583e-06        00000 
-3.14445e-06  8.83508e-06        00000 
 3.30310e-06  2.36941e-06        00000 
-1.04741e-05  1.21215e-05        00000 
 3.30667e-06 -9.45105e-06        00000 
-3.00978e-06  3.37362e-05        00000 
-5.49110e-06 -2.99514e-06        00000 
-9.34528e-06 -7.14019e-06        00000 
-5.09728e-06  5.71785e-06        00000 
-1.93561e-05 -8.16242e-06        00000 
-4.92664e-07  3.84925e-06        00000 
 1.13499e-05  6.19109e-06        00000 
-5.86949e-06  1.31199e-06        00000 
-3.22957e-06  3.62109e-06        00000 
-5.21068e-06 -1.06814e-05        00000 
-1.25608e-05  3.32057e-06        00000 
-2.03346e-06  9.96799e-07        00000 
-7.71413e-06 -4.07888e-06        00000 
-4.73043e-06 -6.22058e-06        00000 
 7.70040e-06  6.46785e-06        00000 
 7.86129e-06 -1.38986e-06        00000 
-1.32661e-06 -6.32431e-06        00000 
 6.14884e-06 -2.67276e-06        00000 
-4.16294e-06  2.09552e-06        00000 
 7.78615e-07 -7.93115e-06        00000 
-8.84930e-06 -3.36999e-06        00000 
-8.75095e-06  5.00682e-06        00000 
-3.48194e-06 -1.87504e-06        00000 
 3.40008e-06  8.78283e-06        00000 
-5.35734e-07 -1.24079e-06        00000 
 1.77543e-06  2.08590e-06        00000 
-3.05966e-06  3.16096e-06        00000 
-8.05661e-06 -4.71431e-06        00000 
-7.11347e-06 -7.15886e-06        00000 
 3.56030e-06 -1.82004e-05        00000 
-9.76756e-06  3.14729e-06        00000 
-2.24229e-06 -5.47080e-06        00000 
 2.42641e-06  3.88256e-06        00000 
 2.96661e-06  6.34264e-06        00000 
 5.80222e-06  3.70123e-06        00000 
-3.84906e-06 -7.58595e-08        00000 
-2.84687e-06 -6.09204e-06        00000 
-1.23821e-05 -1.28265e-06        00000 
 1.95112e-06 -5.31549e-06        00000 
-6.53338e-07 -7.88195e-06        00000 
 6.38378e-06 -9.80700e-06        00000 
-6.98988e-07  7.36017e-06        00000 
 4.22481e-07  8.62824e-06        00000 
 4.03910e-06 -4.73804e-06        00000 
-2.24836e-06 -4.07186e-06        00000 
-3.78852e-06  4.84682e-06        00000 
-3.71796e-06  2.73131e-06        00000 
-1.01344e-05  8.80796e-06        00000 
-1.47253e-05  3.25594e-06        00000 
-6.61293e-06 -3.37482e-06        00000 
-2.21111e-06  8.49883e-06        00000 
 5.52726e-07 -1.05340e-06        00000 
-7.10023e-06  5.98794e-06        00000 
-4.29811e-06  7.58059e-06        00000 
-2.79018e-06 -5.62388e-06        00000 
 6.71354e-06 -8.66916e-06        00000 
-2.49497e-06 -9.49056e-06        00000 
-3.25381e-06  4.17848e-07        00000 
-2.61904e-06 -9.00442e-06        00000 
-2.39984e-06  3.45044e-06        00000 
 3.79412e-07  7.22188e-06        00000 
 6.99011e-06  6.69320e-07        00000 
-9.36818e-06 -7.82158e-06        00000 
-1.10458e-05 -2.92542e-06        00000 
-6.80114e-06 -2.77349e-06        00000 
-7.70453e-06  1.81706e-06        00000 
-3.14343e-06  2.21835e-07        00000 
-6.48216e-06 -3.83009e-06        00000 
-8.74509e-06  5.97674e-06        00000 
-9.11409e-06  1.07325e-05        00000 
-1.24994e-06 -2.87642e-06        00000 
-8.84652e-06 -5.69665e-06        00000 
-3.51504e-06  1.22332e-05        00000 
-2.80161e-06  3.89989e-06        00000 
-1.26620e-06 -2.44542e-06        00000 
-5.31972e-07  3.57981e-06        00000 
-1.26235e-06 -5.20895e-06        00000 
 6.72471e-06  6.68518e-06        00000 
 6.76856e-06  8.68868e-06        00000 
-3.00146e-06  7.51194e-06        00000 
-4.17509e-06 -1.37059e-05        00000 
-1.14824e-05  2.67643e-05        00000 
 3.05993e-06 -3.53379e-06        00000 
 1.93747e-06 -2.30348e-06        00000 
-5.23769e-07 -3.92102e-06        00000 
-5.04058e-06 -2.89362e-06        00000 
 1.50781e-05  2.96546e-06        00000 
 1.12863e-05  7.25267e-06        00000 
-4.14561e-06 -4.50110e-06        00000 
-5.38324e-06 -5.41995e-06        00000 
-8.85880e-06  1.37492e-05        00000 
 4.23898e-06  3.48720e-07        00000 
-2.49202e-06  7.49232e-06        00000 
-9.60200e-07  3.85708e-06        00000 
-6.08474e-07 -5.39046e-06        00000 
 1.41889e-06  9.30971e-06        00000 
 2.68621e-07  7.58654e-06        00000 
 2.50415e-06 -5.74598e-06        00000 
-2.13048e-06 -8.21719e-06        00000 
-3.47187e-06 -1.37487e-06        00000 
 2.50458e-06 -6.11770e-06        00000 
-2.50307e-06 -1.27826e-05        00000 
 9.53136e-06  1.41244e-06        00000 
-1.16242e-05 -1.27388e-06        00000 
 1.20365e-05 -6.51386e-06        00000 
 7.16163e-06  7.04186e-06        00000 
 5.03562e-06  9.82434e-06        00000 
 5.47602e-06 -4.89373e-07        00000 
 1.40309e-05  4.10665e-06        00000 
 9.28138e-06  1.04767e-07        00000 
 1.37961e-05  1.70116e-05        00000 
 8.82130e-06 -5.18137e-07        00000 
 5.84929e-06  2.53614e-06        00000 
 3.90282e-06  5.52484e-06        00000 
 2.97938e-06  2.50346e-06        00000 
 5.29651e-06 -6.89799e-07        00000 
 2.40748e-06  8.95622e-06        00000 
 6.02157e-06  2.96560e-06        00000 
 2.81999e-06 -5.66900e-06        00000 
 5.32494e-06  1.92626e-06        00000 
 3.09189e-06  3.29976e-06        00000 
 2.00128e-06 -7.04112e-06        00000 
 3.26171e-06  1.12276e-06        00000 
 1.93220e-06  1.27293e-06        00000 
-1.39903e-06  6.97599e-06        00000 
-1.69542e-06 -4.38156e-06        00000 
-6.51737e-06 -9.09928e-06        00000 
-7.60777e-06  4.62242e-06        00000 
 1.24625e-06 -5.60331e-06        00000 
 5.17586e-06 -3.78183e-06        00000 
 7.22732e-06  1.25892e-05        00000 
 1.06890e-05  3.60750e-06        00000 
 3.50881e-06  1.28450e-06        00000 
 8.74794e-06  2.81575e-06        00000 
-2.02611e-06 -9.64999e-06        00000 
 7.74939e-06  2.00732e-05        00000 
 4.95372e-06  1.01909e-05        00000 
 7.51846e-06  1.49734e-06        00000 
 5.04761e-06 -1.07511e-06        00000 
 3.74963e-06  7.45894e-06        00000 
 2.16510e-06 -1.97562e-06        00000 
 5.86552e-06  3.02052e-06        00000 
 3.66154e-06 -1.19747e-06        00000 
 5.08001e-06 -1.09048e-06        00000 
-5.50911e-08  5.17668e-06        00000 
-1.93335e-06 -4.29154e-06        00000 
-3.43042e-06 -1.29309e-07        00000 
 5.43179e-07 -1.75938e-06        00000 
-9.46171e-06  6.77690e-06        00000 
 7.06474e-06  9.86416e-06        00000 
 1.16441e-05  4.35832e-06        00000 
 1.57602e-06  4.05957e-06        00000 
 1.16868e-05 -7.82409e-07        00000 
 7.73078e-06 -1.76125e-06        00000 
-2.55523e-06 -1.47604e-06        00000 
 1.38946e-05  5.37522e-06        00000 
-8.79617e-07 -5.93199e-06        00000 
 8.39801e-06  2.12249e-06        00000 
 5.42186e-06 -2.84618e-06        00000 
 8.36167e-06  3.63907e-06        00000 
-1.22231e-06  7.90944e-06        00000 
 1.08833e-05 -1.09846e-05        00000 
 1.23479e-07  1.76925e-05        00000 
-2.51577e-06 -4.04197e-06        00000 
-6.14917e-06  1.11189e-05        00000 
 2.01006e-06  2.00532e-06        00000 
-6.44172e-06 -3.97199e-06        00000 
-3.12284e-06  7.03372e-06        00000 
 2.93090e-06  2.68985e-06        00000 
-1.59659e-06 -3.53479e-06        00000 
-7.08253e-07 -9.87291e-07        00000 
 5.49567e-06 -1.72132e-06        00000 
-7.38448e-06  8.28395e-06        00000 
 4.59850e-06 -2.92691e-06        00000 
-6.87688e-06 -1.22957e-06        00000 
-1.09236e-05  6.10530e-06        00000 
 5.68118e-06 -1.15307e-06        00000 
 4.28314e-06 -7.05496e-06        00000 
-2.92827e-06  6.55703e-06        00000 
 4.59072e-06 -2.15093e-06        00000 
-2.19915e-07 -4.21589e-07        00000 
-4.58610e-06  3.23191e-07        00000 
-2.89882e-06  5.66111e-06        00000 
 2.84249e-06  1.19431e-06        00000 
-6.83926e-07 -5.12211e-06        00000 
-1.24764e-06  9.29084e-06        00000 
-2.84495e-06 -2.18283e-06        00000 
 1.84283e-06 -4.22593e-06        00000 
-5.55360e-06  1.63394e-05        00000 
-1.10536e-05 -2.74228e-05        00000 
-1.09424e-05 -3.15864e-06        00000 
-3.75605e-06 -5.49988e-06        00000 
-9.26076e-06 -1.27163e-05        00000 
-1.32758e-05 -1.01385e-05        00000 
-4.24169e-06 -9.39742e-06        00000 
-5.73542e-07 -4.35410e-06        00000 
 5.17706e-06 -1.19236e-05        00000 
-3.22252e-06 -2.68387e-06        00000 
 2.44558e-06 -6.25518e-06        00000 
 1.75223e-06  8.27898e-07        00000 
 2.78926e-08  7.32512e-06        00000 
 3.62465e-08 -5.43689e-06        00000 
 4.19447e-06 -2.74845e-06        00000 
-2.95915e-06 -4.05459e-06        00000 
-3.00354e-06 -2.87860e-06        00000 
-4.14852e-06  3.79487e-07        00000 
 2.69397e-06 -1.24626e-05        00000 
-7.88242e-06  2.35738e-05        00000 
-6.38240e-06 -3.70248e-06        00000 
-3.86191e-06  7.01437e-06        00000 
-6.81259e-06 -4.35728e-06        00000 
 4.10663e-06 -4.30416e-06        00000 
-2.66230e-06 -2.44334e-06        00000 
 3.04522e-06 -5.93547e-06        00000 
-4.46327e-06 -3.18710e-06        00000 
 4.07370e-06 -5.74608e-06        00000 
 7.35502e-06  2.51164e-06        00000 
-1.28389e-06  3.73849e-06        00000 
-7.69685e-06 -2.95747e-09        00000 
-2.05122e-06 -1.07114e-05        00000 
 9.57537e-07 -1.06882e-05        00000 
-6.02035e-06 -8.62653e-06        00000 
-2.80783e-06 -2.97073e-06        00000 
-3.20977e-06  2.49400e-07        00000 
-4.90293e-06 -2.18163e-05        00000 
-6.44451e-06  1.17372e-05        00000 
-2.74781e-06  5.19952e-06        00000 
-5.68925e-06 -1.24883e-05        00000 
 1.39033e-06 -4.81622e-07        00000 
 1.37798e-07 -1.03532e-05        00000 
 2.69782e-06  5.56471e-06        00000 
 9.57797e-07 -3.54459e-06        00000 
-2.82831e-06  4.80583e-06        00000 
-3.68628e-06 -1.07665e-05        00000 
-2.18676e-07 -5.60838e-06        00000 
-8.18075e-06 -6.74538e-06        00000 
-1.99706e-06 -1.55901e-06        00000 
 1.27059e-06  1.12563e-06        00000 
-6.44107e-06 -5.72296e-07        00000 
-9.90507e-06 -1.03581e-05        00000 
-1.95546e-06  2.66203e-06        00000 
 3.95033e-06 -2.57020e-06        00000 
-5.48364e-06  1.07943e-05        00000 
 6.05902e-06 -7.20293e-06        00000 
-1.23361e-07  2.65392e-06        00000 
-3.39859e-06  3.53591e-06        00000 
-1.06809e-05 -2.17822e-06        00000 
-5.21526e-06  3.82300e-06        00000 
-7.22070e-06  1.52270e-05        00000 
 3.39584e-06  6.24096e-06        00000 
-3.00112e-06  9.50958e-06        00000 
 1.07543e-06  2.01202e-06        00000 
 2.77311e-08  1.28734e-05        00000 
-7.72739e-06  1.08777e-05        00000 
 1.63052e-06  1.58458e-05        00000 
 8.39639e-06  9.28264e-06        00000 
 1.31719e-07  7.06982e-06        00000 
-3.47599e-06  4.61944e-06        00000 
 2.30663e-06  8.34992e-06        00000 
 6.86576e-06  1.33300e-05        00000 
-1.15704e-06 -6.54568e-06        00000 
 1.76968e-05  2.19964e-05        00000 
 7.31222e-06  6.56659e-06        00000 