<?xml version="1.0" encoding="utf-8"?>
<VTKFile byte_order="LittleEndian" type="UnstructuredGrid" version="0.1">
   <UnstructuredGrid>
      <Piece NumberOfCells="1296" NumberOfPoints="685">
         <Points>
            <DataArray Name="Points" NumberOfComponents="3" format="ascii" type="Float32">
0.0000 0.0000 0.0000
0.0000 0.1111 0.0000
0.0000 0.2222 0.0000
0.0000 0.3333 0.0000
0.0000 0.4444 0.0000
0.0000 0.5556 0.0000
0.0000 0.6667 0.0000
0.0000 0.7778 0.0000
0.0000 0.8889 0.0000
0.0000 1.0000 0.0000
0.2222 0.0000 0.0000
0.2222 0.1111 0.0000
0.2222 0.2222 0.0000
0.2222 0.3333 0.0000
0.2222 0.4444 0.0000
0.2222 0.5556 0.0000
0.2222 0.6667 0.0000
0.2222 0.7778 0.0000
0.2222 0.8889 0.0000
0.2222 1.0000 0.0000
0.4444 0.0000 0.0000
0.4444 0.1111 0.0000
0.4444 0.2222 0.0000
0.4444 0.3333 0.0000
0.4444 0.4444 0.0000
0.4444 0.5556 0.0000
0.4444 0.6667 0.0000
0.4444 0.7778 0.0000
0.4444 0.8889 0.0000
0.4444 1.0000 0.0000
0.6667 0.0000 0.0000
0.6667 0.1111 0.0000
0.6667 0.2222 0.0000
0.6667 0.3333 0.0000
0.6667 0.4444 0.0000
0.6667 0.5556 0.0000
0.6667 0.6667 0.0000
0.6667 0.7778 0.0000
0.6667 0.8889 0.0000
0.6667 1.0000 0.0000
0.8889 0.0000 0.0000
0.8889 0.1111 0.0000
0.8889 0.2222 0.0000
0.8889 0.3333 0.0000
0.8889 0.4444 0.0000
0.8889 0.5556 0.0000
0.8889 0.6667 0.0000
0.8889 0.7778 0.0000
0.8889 0.8889 0.0000
0.8889 1.0000 0.0000
1.1111 0.0000 0.0000
1.1111 0.1111 0.0000
1.1111 0.2222 0.0000
1.1111 0.3333 0.0000
1.1111 0.4444 0.0000
1.1111 0.5556 0.0000
1.1111 0.6667 0.0000
1.1111 0.7778 0.0000
1.1111 0.8889 0.0000
1.1111 1.0000 0.0000
1.3333 0.0000 0.0000
1.3333 0.1111 0.0000
1.3333 0.2222 0.0000
1.3333 0.3333 0.0000
1.3333 0.4444 0.0000
1.3333 0.5556 0.0000
1.3333 0.6667 0.0000
1.3333 0.7778 0.0000
1.3333 0.8889 0.0000
1.3333 1.0000 0.0000
1.5556 0.0000 0.0000
1.5556 0.1111 0.0000
1.5556 0.2222 0.0000
1.5556 0.3333 0.0000
1.5556 0.4444 0.0000
1.5556 0.5556 0.0000
1.5556 0.6667 0.0000
1.5556 0.7778 0.0000
1.5556 0.8889 0.0000
1.5556 1.0000 0.0000
1.7778 0.0000 0.0000
1.7778 0.1111 0.0000
1.7778 0.2222 0.0000
1.7778 0.3333 0.0000
1.7778 0.4444 0.0000
1.7778 0.5556 0.0000
1.7778 0.6667 0.0000
1.7778 0.7778 0.0000
1.7778 0.8889 0.0000
1.7778 1.0000 0.0000
2.0000 0.0000 0.0000
2.0000 0.1111 0.0000
2.0000 0.2222 0.0000
2.0000 0.3333 0.0000
2.0000 0.4444 0.0000
2.0000 0.5556 0.0000
2.0000 0.6667 0.0000
2.0000 0.7778 0.0000
2.0000 0.8889 0.0000
2.0000 1.0000 0.0000
0.1111 0.0556 0.0000
0.1111 0.1667 0.0000
0.1111 0.2778 0.0000
0.1111 0.3889 0.0000
0.1111 0.5000 0.0000
0.1111 0.6111 0.0000
0.1111 0.7222 0.0000
0.1111 0.8333 0.0000
0.1111 0.9444 0.0000
0.3333 0.0556 0.0000
0.3333 0.1667 0.0000
0.3333 0.2778 0.0000
0.3333 0.3889 0.0000
0.3333 0.5000 0.0000
0.3333 0.6111 0.0000
0.3333 0.7222 0.0000
0.3333 0.8333 0.0000
0.3333 0.9444 0.0000
0.5556 0.0556 0.0000
0.5556 0.1667 0.0000
0.5556 0.2778 0.0000
0.5556 0.3889 0.0000
0.5556 0.5000 0.0000
0.5556 0.6111 0.0000
0.5556 0.7222 0.0000
0.5556 0.8333 0.0000
0.5556 0.9444 0.0000
0.7778 0.0556 0.0000
0.7778 0.1667 0.0000
0.7778 0.2778 0.0000
0.7778 0.3889 0.0000
0.7778 0.5000 0.0000
0.7778 0.6111 0.0000
0.7778 0.7222 0.0000
0.7778 0.8333 0.0000
0.7778 0.9444 0.0000
1.0000 0.0556 0.0000
1.0000 0.1667 0.0000
1.0000 0.2778 0.0000
1.0000 0.3889 0.0000
1.0000 0.5000 0.0000
1.0000 0.6111 0.0000
1.0000 0.7222 0.0000
1.0000 0.8333 0.0000
1.0000 0.9444 0.0000
1.2222 0.0556 0.0000
1.2222 0.1667 0.0000
1.2222 0.2778 0.0000
1.2222 0.3889 0.0000
1.2222 0.5000 0.0000
1.2222 0.6111 0.0000
1.2222 0.7222 0.0000
1.2222 0.8333 0.0000
1.2222 0.9444 0.0000
1.4444 0.0556 0.0000
1.4444 0.1667 0.0000
1.4444 0.2778 0.0000
1.4444 0.3889 0.0000
1.4444 0.5000 0.0000
1.4444 0.6111 0.0000
1.4444 0.7222 0.0000
1.4444 0.8333 0.0000
1.4444 0.9444 0.0000
1.6667 0.0556 0.0000
1.6667 0.1667 0.0000
1.6667 0.2778 0.0000
1.6667 0.3889 0.0000
1.6667 0.5000 0.0000
1.6667 0.6111 0.0000
1.6667 0.7222 0.0000
1.6667 0.8333 0.0000
1.6667 0.9444 0.0000
1.8889 0.0556 0.0000
1.8889 0.1667 0.0000
1.8889 0.2778 0.0000
1.8889 0.3889 0.0000
1.8889 0.5000 0.0000
1.8889 0.6111 0.0000
1.8889 0.7222 0.0000
1.8889 0.8333 0.0000
1.8889 0.9444 0.0000
0.0000 0.0556 0.0000
0.0556 0.0278 0.0000
0.0556 0.0833 0.0000
0.0000 0.1667 0.0000
0.0556 0.1389 0.0000
0.0556 0.1944 0.0000
0.0000 0.2778 0.0000
0.0556 0.2500 0.0000
0.0556 0.3056 0.0000
0.0000 0.3889 0.0000
0.0556 0.3611 0.0000
0.0556 0.4167 0.0000
0.0000 0.5000 0.0000
0.0556 0.4722 0.0000
0.0556 0.5278 0.0000
0.0000 0.6111 0.0000
0.0556 0.5833 0.0000
0.0556 0.6389 0.0000
0.0000 0.7222 0.0000
0.0556 0.6944 0.0000
0.0556 0.7500 0.0000
0.0000 0.8333 0.0000
0.0556 0.8056 0.0000
0.0556 0.8611 0.0000
0.0000 0.9444 0.0000
0.0556 0.9167 0.0000
0.0556 0.9722 0.0000
0.2222 0.0556 0.0000
0.2778 0.0278 0.0000
0.2778 0.0833 0.0000
0.2222 0.1667 0.0000
0.2778 0.1389 0.0000
0.2778 0.1944 0.0000
0.2222 0.2778 0.0000
0.2778 0.2500 0.0000
0.2778 0.3056 0.0000
0.2222 0.3889 0.0000
0.2778 0.3611 0.0000
0.2778 0.4167 0.0000
0.2222 0.5000 0.0000
0.2778 0.4722 0.0000
0.2778 0.5278 0.0000
0.2222 0.6111 0.0000
0.2778 0.5833 0.0000
0.2778 0.6389 0.0000
0.2222 0.7222 0.0000
0.2778 0.6944 0.0000
0.2778 0.7500 0.0000
0.2222 0.8333 0.0000
0.2778 0.8056 0.0000
0.2778 0.8611 0.0000
0.2222 0.9444 0.0000
0.2778 0.9167 0.0000
0.2778 0.9722 0.0000
0.4444 0.0556 0.0000
0.5000 0.0278 0.0000
0.5000 0.0833 0.0000
0.4444 0.1667 0.0000
0.5000 0.1389 0.0000
0.5000 0.1944 0.0000
0.4444 0.2778 0.0000
0.5000 0.2500 0.0000
0.5000 0.3056 0.0000
0.4444 0.3889 0.0000
0.5000 0.3611 0.0000
0.5000 0.4167 0.0000
0.4444 0.5000 0.0000
0.5000 0.4722 0.0000
0.5000 0.5278 0.0000
0.4444 0.6111 0.0000
0.5000 0.5833 0.0000
0.5000 0.6389 0.0000
0.4444 0.7222 0.0000
0.5000 0.6944 0.0000
0.5000 0.7500 0.0000
0.4444 0.8333 0.0000
0.5000 0.8056 0.0000
0.5000 0.8611 0.0000
0.4444 0.9444 0.0000
0.5000 0.9167 0.0000
0.5000 0.9722 0.0000
0.6667 0.0556 0.0000
0.7222 0.0278 0.0000
0.7222 0.0833 0.0000
0.6667 0.1667 0.0000
0.7222 0.1389 0.0000
0.7222 0.1944 0.0000
0.6667 0.2778 0.0000
0.7222 0.2500 0.0000
0.7222 0.3056 0.0000
0.6667 0.3889 0.0000
0.7222 0.3611 0.0000
0.7222 0.4167 0.0000
0.6667 0.5000 0.0000
0.7222 0.4722 0.0000
0.7222 0.5278 0.0000
0.6667 0.6111 0.0000
0.7222 0.5833 0.0000
0.7222 0.6389 0.0000
0.6667 0.7222 0.0000
0.7222 0.6944 0.0000
0.7222 0.7500 0.0000
0.6667 0.8333 0.0000
0.7222 0.8056 0.0000
0.7222 0.8611 0.0000
0.6667 0.9444 0.0000
0.7222 0.9167 0.0000
0.7222 0.9722 0.0000
0.8889 0.0556 0.0000
0.9444 0.0278 0.0000
0.9444 0.0833 0.0000
0.8889 0.1667 0.0000
0.9444 0.1389 0.0000
0.9444 0.1944 0.0000
0.8889 0.2778 0.0000
0.9444 0.2500 0.0000
0.9444 0.3056 0.0000
0.8889 0.3889 0.0000
0.9444 0.3611 0.0000
0.9444 0.4167 0.0000
0.8889 0.5000 0.0000
0.9444 0.4722 0.0000
0.9444 0.5278 0.0000
0.8889 0.6111 0.0000
0.9444 0.5833 0.0000
0.9444 0.6389 0.0000
0.8889 0.7222 0.0000
0.9444 0.6944 0.0000
0.9444 0.7500 0.0000
0.8889 0.8333 0.0000
0.9444 0.8056 0.0000
0.9444 0.8611 0.0000
0.8889 0.9444 0.0000
0.9444 0.9167 0.0000
0.9444 0.9722 0.0000
1.1111 0.0556 0.0000
1.1667 0.0278 0.0000
1.1667 0.0833 0.0000
1.1111 0.1667 0.0000
1.1667 0.1389 0.0000
1.1667 0.1944 0.0000
1.1111 0.2778 0.0000
1.1667 0.2500 0.0000
1.1667 0.3056 0.0000
1.1111 0.3889 0.0000
1.1667 0.3611 0.0000
1.1667 0.4167 0.0000
1.1111 0.5000 0.0000
1.1667 0.4722 0.0000
1.1667 0.5278 0.0000
1.1111 0.6111 0.0000
1.1667 0.5833 0.0000
1.1667 0.6389 0.0000
1.1111 0.7222 0.0000
1.1667 0.6944 0.0000
1.1667 0.7500 0.0000
1.1111 0.8333 0.0000
1.1667 0.8056 0.0000
1.1667 0.8611 0.0000
1.1111 0.9444 0.0000
1.1667 0.9167 0.0000
1.1667 0.9722 0.0000
1.3333 0.0556 0.0000
1.3889 0.0278 0.0000
1.3889 0.0833 0.0000
1.3333 0.1667 0.0000
1.3889 0.1389 0.0000
1.3889 0.1944 0.0000
1.3333 0.2778 0.0000
1.3889 0.2500 0.0000
1.3889 0.3056 0.0000
1.3333 0.3889 0.0000
1.3889 0.3611 0.0000
1.3889 0.4167 0.0000
1.3333 0.5000 0.0000
1.3889 0.4722 0.0000
1.3889 0.5278 0.0000
1.3333 0.6111 0.0000
1.3889 0.5833 0.0000
1.3889 0.6389 0.0000
1.3333 0.7222 0.0000
1.3889 0.6944 0.0000
1.3889 0.7500 0.0000
1.3333 0.8333 0.0000
1.3889 0.8056 0.0000
1.3889 0.8611 0.0000
1.3333 0.9444 0.0000
1.3889 0.9167 0.0000
1.3889 0.9722 0.0000
1.5556 0.0556 0.0000
1.6111 0.0278 0.0000
1.6111 0.0833 0.0000
1.5556 0.1667 0.0000
1.6111 0.1389 0.0000
1.6111 0.1944 0.0000
1.5556 0.2778 0.0000
1.6111 0.2500 0.0000
1.6111 0.3056 0.0000
1.5556 0.3889 0.0000
1.6111 0.3611 0.0000
1.6111 0.4167 0.0000
1.5556 0.5000 0.0000
1.6111 0.4722 0.0000
1.6111 0.5278 0.0000
1.5556 0.6111 0.0000
1.6111 0.5833 0.0000
1.6111 0.6389 0.0000
1.5556 0.7222 0.0000
1.6111 0.6944 0.0000
1.6111 0.7500 0.0000
1.5556 0.8333 0.0000
1.6111 0.8056 0.0000
1.6111 0.8611 0.0000
1.5556 0.9444 0.0000
1.6111 0.9167 0.0000
1.6111 0.9722 0.0000
1.7778 0.0556 0.0000
1.8333 0.0278 0.0000
1.8333 0.0833 0.0000
1.7778 0.1667 0.0000
1.8333 0.1389 0.0000
1.8333 0.1944 0.0000
1.7778 0.2778 0.0000
1.8333 0.2500 0.0000
1.8333 0.3056 0.0000
1.7778 0.3889 0.0000
1.8333 0.3611 0.0000
1.8333 0.4167 0.0000
1.7778 0.5000 0.0000
1.8333 0.4722 0.0000
1.8333 0.5278 0.0000
1.7778 0.6111 0.0000
1.8333 0.5833 0.0000
1.8333 0.6389 0.0000
1.7778 0.7222 0.0000
1.8333 0.6944 0.0000
1.8333 0.7500 0.0000
1.7778 0.8333 0.0000
1.8333 0.8056 0.0000
1.8333 0.8611 0.0000
1.7778 0.9444 0.0000
1.8333 0.9167 0.0000
1.8333 0.9722 0.0000
0.1111 0.1111 0.0000
0.1667 0.0833 0.0000
0.1111 0.2222 0.0000
0.1667 0.1944 0.0000
0.1111 0.3333 0.0000
0.1667 0.3056 0.0000
0.1111 0.4444 0.0000
0.1667 0.4167 0.0000
0.1111 0.5556 0.0000
0.1667 0.5278 0.0000
0.1111 0.6667 0.0000
0.1667 0.6389 0.0000
0.1111 0.7778 0.0000
0.1667 0.7500 0.0000
0.1111 0.8889 0.0000
0.1667 0.8611 0.0000
0.1111 1.0000 0.0000
0.1667 0.9722 0.0000
0.3333 0.1111 0.0000
0.3889 0.0833 0.0000
0.3333 0.2222 0.0000
0.3889 0.1944 0.0000
0.3333 0.3333 0.0000
0.3889 0.3056 0.0000
0.3333 0.4444 0.0000
0.3889 0.4167 0.0000
0.3333 0.5556 0.0000
0.3889 0.5278 0.0000
0.3333 0.6667 0.0000
0.3889 0.6389 0.0000
0.3333 0.7778 0.0000
0.3889 0.7500 0.0000
0.3333 0.8889 0.0000
0.3889 0.8611 0.0000
0.3333 1.0000 0.0000
0.3889 0.9722 0.0000
0.5556 0.1111 0.0000
[...]
         <PointData>
            <DataArray Name="fValues" NumberOfComponents="3" format="ascii" type="Float64">
       00000 -5.83537e-22        00000 
-9.44528e-22  2.20390e-22        00000 
-6.77261e-22 -1.53749e-21        00000 
 1.00337e-21 -5.01683e-21        00000 
 6.14801e-24  1.04221e-21        00000 
 2.46138e-21  5.01683e-22        00000 
-4.01335e-22 -1.14105e-21        00000 
 7.51843e-22 -6.26536e-23        00000 
 2.67680e-22 -2.01548e-21        00000 
 5.83537e-22 -8.75306e-22        00000 
-4.07690e-06 -1.35538e-05        00000 
-1.00164e-06 -6.83600e-07        00000 
 1.17164e-05 -1.15964e-05        00000 
 9.49380e-06 -1.57886e-06        00000 
 6.23509e-06 -1.08901e-05        00000 
 6.83108e-06 -8.48796e-06        00000 
 2.46758e-06 -1.39352e-06        00000 
-4.37719e-08 -7.79016e-06        00000 
-2.70697e-06 -4.56229e-06        00000 
-8.02493e-06 -1.24427e-05        00000 
 8.58452e-06 -9.86214e-06        00000 
-5.98894e-06  1.22440e-06        00000 
 9.66695e-07 -7.39215e-06        00000 
 5.37032e-06  5.49747e-06        00000 
 1.65751e-06  2.60906e-06        00000 
 7.57749e-06  3.96050e-06        00000 
 3.39427e-06  7.83080e-06        00000 
 2.66986e-06  1.47043e-06        00000 
 1.17216e-07  1.10728e-06        00000 
-5.44867e-06 -2.07930e-06        00000 
-4.46943e-06  7.15426e-06        00000 
-5.00549e-06 -7.51120e-06        00000 
 1.70803e-06 -1.50403e-05        00000 
 7.17050e-06 -1.57854e-05        00000 
 4.57610e-06 -1.79754e-05        00000 
 4.63522e-06 -1.34032e-05        00000 
 4.82686e-06 -1.23244e-05        00000 
 1.72405e-06 -6.21554e-06        00000 
 1.69111e-06  2.80292e-06        00000 
-4.33835e-06 -7.03440e-06        00000 
-3.04178e-06 -2.31561e-06        00000 
 4.41078e-06 -4.93177e-06        00000 
 1.40527e-05 -1.02274e-05        00000 
 2.23187e-06 -1.10580e-05        00000 
 6.95682e-06 -1.18349e-05        00000 
 1.54977e-05 -4.00771e-06        00000 
 9.98961e-06 -5.65944e-06        00000 
 9.00773e-06  1.07197e-06        00000 
 5.57597e-07  1.24014e-07        00000 
 1.83444e-06 -8.91851e-06        00000 
-2.03380e-06 -1.18882e-06        00000 
-1.02742e-05 -3.75486e-06        00000 
-1.41722e-05 -1.92366e-05        00000 
-1.99295e-05 -2.24897e-05        00000 
-1.53428e-05 -1.71352e-05        00000 
-6.30996e-06 -1.27707e-05        00000 
-3.01655e-07 -1.85180e-05        00000 
 4.73196e-06 -5.03289e-06        00000 
 1.30656e-07 -4.52523e-06        00000 
 1.07001e-06  2.20055e-05        00000 
-8.18461e-06 -1.48942e-05        00000 
 4.21004e-06  2.96488e-06        00000 
 1.60264e-05 -5.38524e-06        00000 
 6.11432e-06  3.08875e-06        00000 
 5.95477e-06  2.00343e-06        00000 
 1.08706e-05  6.33415e-06        00000 
 1.31881e-05  2.78374e-06        00000 
 1.87487e-05  1.41364e-05        00000 
 1.00159e-05  1.02748e-05        00000 
-3.21282e-06  2.68500e-05        00000 
 4.47374e-06  2.19392e-05        00000 
 2.45572e-06  1.06303e-05        00000 
 8.56931e-06  6.87832e-06        00000 
 2.23250e-06  8.53906e-06        00000 
 1.00209e-06  4.42461e-06        00000 
-5.85266e-07  5.03078e-06        00000 
 4.48029e-06 -6.31121e-06        00000 
-6.35358e-07 -2.31053e-06        00000 
-4.18888e-06 -1.00387e-06        00000 
-1.48460e-07  9.52388e-06        00000 
-6.37336e-06  9.46457e-06        00000 
-1.51799e-05  1.06648e-05        00000 
-7.29737e-06  2.10861e-06        00000 
-6.71675e-06  8.11876e-06        00000 
-4.80473e-06 -3.54638e-07        00000 
-6.08627e-06  7.38193e-06        00000 
 3.92119e-06  6.50785e-06        00000 
 1.48756e-06  1.70261e-05        00000 
-2.54494e-06  2.23622e-05        00000 
-6.91021e-06  2.09849e-05        00000 
-1.39948e-05 -1.00819e-05        00000 
-1.24287e-05 -1.20777e-05        00000 
-6.38063e-06 -9.86902e-06        00000 
-8.17831e-06 -9.41394e-06        00000 
-1.06984e-05 -1.02229e-05        00000 
-7.76385e-06 -1.00198e-05        00000 
-4.25924e-06 -1.34721e-05        00000 
-1.04177e-06 -5.47341e-06        00000 
 2.29875e-06 -4.15769e-06        00000 
 4.88891e-06  3.13152e-06        00000 
-2.37088e-06 -1.77837e-06        00000 
-8.06807e-06  7.41013e-06        00000 
-5.51991e-06  1.92796e-06        00000 
-6.08226e-06 -6.14416e-07        00000 
-9.59645e-06  9.35814e-06        00000 
-6.09119e-06 -5.08720e-07        00000 
-4.95149e-06  1.55988e-06        00000 
-8.02583e-06  2.83599e-06        00000 
-9.13711e-06 -3.49250e-06        00000 
-4.43038e-06 -1.01673e-05        00000 
 5.83911e-07 -7.56325e-06        00000 
 7.15265e-06  1.09854e-06        00000 
 2.31856e-06 -2.18636e-06        00000 
 5.55650e-06  1.44426e-06        00000 
 1.32817e-06  6.90395e-07        00000 
 2.22300e-06  4.00864e-06        00000 
 8.08993e-07  5.53715e-06        00000 
-5.98135e-06  5.07044e-06        00000 
-4.13669e-06  4.35504e-06        00000 
-3.57518e-06  9.37762e-07        00000 
 5.89438e-06  5.44458e-06        00000 
 1.24805e-06  3.23231e-06        00000 
 1.41797e-06  8.61138e-06        00000 
-7.86512e-06  5.65023e-06        00000 
-1.34709e-06  1.11237e-05        00000 
-1.22645e-06  1.54968e-05        00000 
-7.97658e-07  1.85474e-05        00000 
-4.69588e-06 -6.41920e-06        00000 
-1.02665e-05 -5.18435e-06        00000 
-6.17816e-06 -4.43098e-06        00000 
-6.90204e-06  9.68306e-06        00000 
-6.83821e-06  9.30772e-06        00000 
-8.69267e-06  1.31519e-05        00000 
-4.16360e-06  1.23205e-05        00000 
-5.85305e-06  1.04358e-05        00000 
-1.41651e-05  2.25983e-05        00000 
 1.44818e-06 -5.40811e-06        00000 
-1.30369e-06  4.33901e-06        00000 
-1.30367e-06  1.06426e-05        00000 
-1.10090e-05  1.15036e-05        00000 
-6.93378e-06  4.50008e-06        00000 
-5.86254e-06  1.42358e-05        00000 
-7.51295e-06  1.08833e-05        00000 
-2.36852e-06  1.11647e-05        00000 
-2.98075e-08  1.57068e-05        00000 
-2.35407e-07 -7.53289e-06        00000 
-3.75799e-06 -2.06067e-06        00000 
 5.39172e-07 -7.79568e-06        00000 
-1.75975e-05 -3.79365e-06        00000 
-1.21681e-05 -5.45079e-06        00000 
-1.17367e-05 -6.85151e-07        00000 
-7.71302e-06  9.54488e-07        00000 
 2.18026e-06 -4.65119e-06        00000 
-1.49922e-05 -5.21362e-06        00000 
 4.18046e-07  8.00580e-06        00000 
 5.46296e-06  6.79559e-06        00000 
 1.20969e-05  6.30704e-06        00000 
 1.00770e-05  1.48801e-05        00000 
 7.95601e-06  1.20787e-05        00000 
 1.26524e-05  7.93225e-06        00000 
 1.25507e-05 -9.38848e-07        00000 
 1.56869e-05  2.52110e-06        00000 
 6.49469e-06  3.02460e-06        00000 
 1.12296e-05 -2.80426e-06        00000 
 3.18555e-06  4.64811e-06        00000 
 6.61066e-06 -8.23415e-06        00000 
 5.00143e-06 -7.98227e-06        00000 
 3.06329e-06 -5.33138e-06        00000 
 5.50330e-06 -1.27527e-05        00000 
 4.41339e-06 -5.76519e-06        00000 
-2.18513e-06 -3.10312e-06        00000 
-5.37679e-06 -4.91493e-06        00000 
-3.66799e-06  4.29435e-06        00000 
 3.04354e-06 -1.66353e-07        00000 
 6.98705e-06  1.87131e-06        00000 
 1.40848e-05 -2.51410e-06        00000 
 1.13170e-05 -2.68041e-07        00000 
 1.03372e-05  9.56533e-06        00000 
 1.45193e-05  1.34629e-05        00000 
 7.87407e-06  1.94382e-05        00000 
 9.56270e-06  1.19713e-05        00000 
 2.33938e-22  8.43396e-23        00000 
 3.46707e-06  5.67004e-06        00000 
 6.92434e-06 -1.00737e-06        00000 
-3.63579e-22 -4.58436e-22        00000 
 1.13906e-05 -4.91640e-06        00000 
 1.55029e-05 -6.12949e-06        00000 
 2.38228e-21 -4.76456e-22        00000 
 1.05127e-05 -1.03890e-05        00000 
 1.21051e-05 -1.31550e-05        00000 
-4.77481e-22 -2.07953e-21        00000 
 5.78060e-06 -1.65661e-05        00000 
 6.68155e-06 -8.36384e-06        00000 
 2.14405e-21 -9.52912e-22        00000 
 4.64332e-06 -1.36920e-05        00000 
 8.65889e-06 -7.46040e-06        00000 
-2.38341e-22  2.09600e-21        00000 
 2.00611e-07 -1.39559e-05        00000 
-5.89614e-07  2.68408e-07        00000 
       00000        00000        00000 
-3.92563e-06 -5.70901e-06        00000 
-2.04175e-06 -5.90123e-06        00000 
 4.16899e-22 -2.38228e-21        00000 
-5.51246e-06 -7.56438e-06        00000 
 4.66159e-07 -7.33440e-06        00000 
 2.00152e-22  1.17512e-21        00000 
 1.62031e-06 -8.39690e-06        00000 
 2.06939e-06  3.28340e-06        00000 
 1.29927e-06 -3.83869e-06        00000 
 2.35007e-08  4.40734e-06        00000 
 6.95134e-07 -9.27791e-06        00000 
 1.37427e-05  7.16367e-07        00000 
-5.16790e-06 -3.29350e-06        00000 
-1.15248e-05  2.60500e-06        00000 
 1.06402e-05 -5.13866e-07        00000 
-6.04522e-06 -1.86821e-06        00000 
 2.20474e-07  2.35626e-06        00000 
 1.06589e-05 -3.63792e-06        00000 
-2.32468e-06 -7.95689e-06        00000 
-2.90694e-06 -9.35400e-06        00000 
 6.57580e-06  2.48990e-06        00000 
-3.89887e-06 -5.81314e-06        00000 
 1.30981e-08  1.32402e-06        00000 
 1.10727e-06  3.98026e-06        00000 
-2.28778e-06 -7.26369e-07        00000 
 5.46312e-07  1.34427e-06        00000 
 8.22592e-06  5.76183e-06        00000 
-5.44200e-06  2.76541e-06        00000 
-3.14230e-06 -2.34056e-06        00000 
-6.80625e-06  5.86627e-06        00000 
-5.87098e-06  1.79373e-07        00000 
-2.00137e-07  3.45823e-06        00000 
-1.98875e-06 -1.26479e-07        00000 
-2.32078e-07 -1.27301e-05        00000 
 1.29137e-07  2.54624e-05        00000 
-4.75382e-06  4.33060e-06        00000 
 2.86167e-06  9.38184e-06        00000 
 2.79742e-06  1.31300e-06        00000 
 1.00368e-06  7.52992e-07        00000 
-9.85920e-06  7.29352e-06        00000 
-1.09684e-05  1.05745e-07        00000 
 5.25420e-06 -1.68757e-06        00000 
-7.54160e-06 -1.14356e-05        00000 
-7.82873e-06  4.45059e-08        00000 
 8.45831e-07  2.79367e-06        00000 
-1.74766e-06 -5.01300e-06        00000 
-2.33172e-06 -9.52618e-06        00000 
 2.04644e-06  1.35651e-06        00000 
-8.04629e-06 -2.39791e-06        00000 
-8.04762e-06 -2.95951e-06        00000 
-3.69214e-07  8.18565e-06        00000 
-6.59893e-06 -4.07730e-06        00000 
-1.64969e-06  5.09948e-06        00000 
 6.28901e-06  5.69087e-06        00000 
-1.03406e-05  8.79590e-06        00000 
-9.56610e-06 -3.93755e-06        00000 
 6.75155e-07  6.45021e-06        00000 
-7.98533e-06  6.69779e-06        00000 
-1.95679e-06 -2.49461e-09        00000 
 7.09083e-06 -8.00631e-08        00000 
 3.04824e-07  3.40588e-06        00000 
-2.77629e-06  1.75195e-05        00000 
-6.78094e-07 -6.88797e-06        00000 
-4.36026e-06 -2.01998e-05        00000 
 8.85736e-06  1.83086e-06        00000 
 1.86219e-06 -6.11765e-06        00000 
-2.00202e-06 -8.04009e-06        00000 
-4.05127e-07 -6.75728e-06        00000 
 6.11743e-06  4.81884e-07        00000 
-2.15081e-06 -1.44737e-05        00000 
-3.35104e-06 -4.80673e-06        00000 
 9.03031e-06  8.16294e-06        00000 
 3.13020e-06 -8.35446e-06        00000 
 3.08449e-06 -9.95290e-06        00000 
 3.01578e-06  8.63362e-06        00000 
 7.49161e-06 -2.88367e-06        00000 
-2.00399e-06  4.87383e-06        00000 
-1.94963e-06  1.28201e-05        00000 
 1.82054e-06 -1.17294e-06        00000 
 1.77396e-06  2.90599e-06        00000 
 1.31683e-05  1.19189e-05        00000 
 2.97860e-07  5.29032e-06        00000 
-2.08489e-06 -8.14718e-06        00000 
-7.19392e-07  3.62191e-06        00000 
 1.73429e-07  4.53970e-06        00000 
 2.25553e-06  2.09637e-06        00000 
-1.72046e-06  1.21227e-05        00000 
 3.42879e-06 -1.04289e-05        00000 
 1.38995e-06  3.35708e-05        00000 
 2.57817e-06 -1.39468e-05        00000 
 1.99027e-06 -1.02397e-05        00000 
 9.92312e-06 -1.34783e-06        00000 
 1.32829e-05 -4.73856e-06        00000 
-6.05625e-06 -5.89498e-06        00000 
-1.34123e-05 -7.15601e-07        00000 
 2.53045e-06  7.69098e-07        00000 
-1.61160e-05 -3.37963e-06        00000 
-1.33395e-05 -2.53042e-06        00000 
-2.05675e-06  1.36717e-05        00000 
-8.21663e-06 -2.95613e-06        00000 
-1.41998e-05 -1.32716e-05        00000 
 6.46738e-06  1.23924e-05        00000 
-7.46130e-06  3.24881e-06        00000 
-1.24578e-05 -9.62701e-06        00000 
 7.04162e-06  1.12661e-05        00000 
-6.00808e-06  1.35567e-06        00000 
-4.47463e-06 -2.93465e-06        00000 
 8.45791e-06  1.04889e-05        00000 
-3.27776e-06  1.17011e-05        00000 
-5.93458e-06 -5.78773e-06        00000 
 6.20378e-06  7.21347e-06        00000 
-1.03694e-05  4.78284e-06        00000 
-1.21396e-05 -4.30962e-06        00000 
 6.41317e-06  1.20353e-05        00000 
-2.95763e-06 -4.88786e-06        00000 
-5.65358e-06  2.53364e-05        00000 
 3.62928e-06  1.09174e-05        00000 
-5.21221e-06  1.39753e-05        00000 
-2.12232e-06 -8.30675e-06        00000 
-8.96130e-06  1.44031e-05        00000 
-6.67232e-07  7.54359e-07        00000 
-9.68993e-06 -1.20303e-05        00000 
-1.08982e-05  1.23925e-05        00000 
 3.52484e-06  2.51773e-06        00000 
-8.56757e-06 -1.77287e-05        00000 
-1.49640e-05  1.50309e-05        00000 
 3.15429e-06 -1.34258e-06        00000 
-7.40679e-06 -3.20659e-05        00000 
-5.26259e-06  6.92152e-06        00000 
-4.33552e-06  1.27352e-06        00000 
-1.71006e-05 -2.01165e-05        00000 
-9.91471e-06  1.22958e-05        00000 
-3.24893e-06 -1.36220e-06        00000 
-8.25340e-06 -1.40819e-05        00000 
 6.36022e-06  1.33930e-05        00000 
 1.29432e-06  1.18524e-05        00000 
-8.43052e-06 -1.30632e-05        00000 
-2.48013e-06  5.44356e-06        00000 
 2.55168e-06 -2.41398e-07        00000 
-3.54957e-06 -1.25515e-05        00000 
 3.92894e-06  3.86071e-06        00000 
 1.81516e-06  1.24657e-05        00000 
-5.31649e-06 -2.44654e-05        00000 
-3.52738e-06  1.46404e-06        00000 
-5.65472e-06  1.54799e-05        00000 
-8.88145e-06 -9.89183e-07        00000 
 1.43778e-05  3.06211e-06        00000 
-8.66913e-06  4.00121e-06        00000 
-1.54136e-05  1.83446e-06        00000 
 6.17894e-06  1.54092e-07        00000 
-1.10915e-05 -8.07659e-07        00000 
-1.16049e-05  1.87708e-06        00000 
 1.53861e-06  4.51305e-06        00000 
-1.64970e-05 -3.08306e-07        00000 
-1.22513e-05 -5.46913e-06        00000 
 1.08520e-05  5.16911e-07        00000 
-2.15674e-05  5.55344e-06        00000 
-1.57652e-05 -3.56906e-06        00000 
 3.72529e-06  1.89077e-06        00000 
-1.47457e-05  3.87493e-06        00000 
-1.39080e-05  7.13535e-06        00000 
 1.85095e-05  6.36001e-07        00000 
-1.71362e-05  2.11379e-05        00000 
-1.37855e-05 -1.79274e-06        00000 
 1.15711e-05 -4.43129e-07        00000 
-8.21843e-06  1.36458e-05        00000 
-2.05518e-06  1.14568e-06        00000 
 3.86876e-06 -3.48822e-06        00000 
-6.39097e-06  8.30205e-06        00000 
-1.52286e-06 -1.35058e-05        00000 
-1.82095e-07 -8.77240e-06        00000 
-3.33261e-06 -8.74694e-06        00000 
-6.15248e-07  1.79798e-05        00000 
 2.62794e-06 -5.51708e-06        00000 
-6.12908e-07  3.17222e-06        00000 
-2.67998e-06  3.51100e-06        00000 
 4.03845e-06 -1.12898e-05        00000 
-1.00762e-05  9.55301e-06        00000 
-6.95993e-06  3.68882e-06        00000 
-1.13318e-05 -4.75187e-06        00000 
-5.91582e-06  2.77744e-06        00000 
-7.80895e-06 -6.84251e-06        00000 
 7.51244e-08 -3.58266e-06        00000 
-1.18182e-05  5.56433e-06        00000 
-6.69611e-06 -4.95577e-06        00000 
-3.84916e-06 -1.55377e-06        00000 
 3.16502e-06  4.96776e-06        00000 
 2.45488e-06 -7.14427e-06        00000 
 2.97247e-06 -2.95932e-06        00000 
 4.62848e-07  6.29140e-06        00000 
-9.93079e-07 -1.05666e-05        00000 
-4.45515e-06 -3.38291e-06        00000 
-1.12161e-07  2.92880e-06        00000 
 3.03853e-06 -9.25771e-06        00000 
-6.90326e-06 -2.84245e-06        00000 
-4.40857e-06 -5.71231e-06        00000 
 4.62564e-06 -1.39517e-05        00000 
-8.57328e-06 -5.95900e-06        00000 
-1.55918e-05 -4.97152e-06        00000 
 5.65529e-06  4.22321e-06        00000 
-3.77359e-06 -6.52014e-06        00000 
-3.73629e-06  3.06542e-07        00000 
 1.45004e-06  2.55069e-06        00000 
 4.60322e-06 -6.81434e-06        00000 
-7.00088e-06 -6.38218e-07        00000 
 3.30371e-06  1.51163e-06        00000 
-2.22878e-06 -1.11373e-05        00000 
-1.50479e-05 -1.00670e-05        00000 
-1.04883e-05  1.56531e-06        00000 
 9.03848e-07 -7.86382e-06        00000 
-1.65454e-05 -1.45220e-05        00000 
-4.44999e-06  3.60823e-06        00000 
-1.45618e-06 -1.88154e-05        00000 
-1.56269e-05 -6.72910e-06        00000 
 2.58843e-06  1.23100e-05        00000 
 1.10830e-06 -8.97977e-06        00000 
-8.92999e-06 -6.57428e-06        00000 
 2.80016e-06  1.66888e-05        00000 
 8.47445e-06 -1.24536e-05        00000 
-9.34299e-06  5.61342e-06        00000 
 8.54908e-06  2.23666e-06        00000 
 2.49131e-06 -6.06588e-06        00000 
-7.12161e-06  1.15203e-05        00000 
 1.99462e-06 -1.82548e-05        00000 
-6.81653e-06  2.06839e-06        00000 
-4.00852e-06  5.97518e-06        00000 
-9.43162e-06  6.23162e-07        00000 
 1.11364e-05  9.62040e-06        00000 
-3.30325e-06 -4.10142e-06        00000 
 3.88216e-06  9.53947e-06        00000 
-5.76514e-06  2.86646e-07        00000 
 2.46873e-06  9.04185e-06        00000 
-7.25062e-06  3.50007e-08        00000 
 5.97012e-06  1.39692e-05        00000 
-1.29138e-06  3.36083e-07        00000 
 5.60735e-06  8.51999e-06        00000 
-5.30146e-06 -1.31344e-06        00000 
 4.72096e-06  8.31390e-06        00000 
-1.06411e-05  1.20116e-06        00000 
 1.65695e-06  5.89300e-06        00000 
-1.17414e-05 -5.62500e-06        00000 
-8.52032e-06  4.67260e-07        00000 
 8.50694e-07 -8.50916e-06        00000 
-2.85964e-06 -3.23328e-06        00000 
-7.32701e-07  7.67449e-06        00000 
 1.76023e-06  6.67665e-06        00000 
 8.09278e-06 -3.78475e-06        00000 
-2.77343e-06  7.39777e-06        00000 
 8.84856e-06  3.86858e-06        00000 
 1.29376e-06  1.77092e-05        00000 
 9.35071e-06  3.20220e-07        00000 
-4.76145e-06  1.28997e-05        00000 
 6.74817e-06  1.95450e-07        00000 
-1.30740e-06  1.16434e-05        00000 
 6.35964e-06 -3.07301e-06        00000 
-9.13246e-06  1.71592e-05        00000 
-5.34163e-06  2.42568e-06        00000 
-5.50298e-06  6.33075e-06        00000 
-1.56223e-06 -1.39287e-05        00000 
-1.04808e-05  1.45596e-05        00000 
 3.06668e-06  2.59898e-06        00000 
-2.72833e-06  1.31693e-05        00000 
-3.72665e-06 -1.21382e-06        00000 
-5.41413e-06  1.38775e-05        00000 
 3.70617e-06 -4.49306e-06        00000 
-7.35532e-06  1.86132e-05        00000 
 6.76225e-06 -3.33838e-06        00000 
 6.22471e-06  2.13254e-05        00000 
-5.28237e-06 -9.98708e-06        00000 
-4.87954e-06  1.27536e-05        00000 
-4.38591e-06 -2.56311e-07        00000 
 1.89183e-06  6.60593e-06        00000 
-4.12357e-06  2.48045e-06        00000 
-4.77450e-06  1.69698e-05        00000 
-1.08786e-05  1.11490e-05        00000 
-3.76543e-06  3.01712e-06        00000 
 3.20197e-06  1.05547e-05        00000 
-6.29812e-06  1.25101e-05        00000 
-2.35227e-06 -1.07107e-05        00000 
-5.21618e-06  3.10159e-07        00000 
-2.85169e-06 -1.73859e-06        00000 
 1.22864e-06  3.10001e-06        00000 
-4.36252e-06 -2.51330e-06        00000 
-8.59537e-06  1.94571e-06        00000 
 1.99948e-06 -2.38371e-06        00000 
-8.48251e-06  1.21356e-05        00000 
-3.80235e-06  2.06449e-06        00000 
-7.62174e-06  6.68466e-06        00000 
-5.55262e-06 -4.54518e-06        00000 
 3.31899e-06  2.78351e-06        00000 
-3.91486e-06  1.90294e-06        00000 
-7.57132e-06  8.86458e-06        00000 
-1.28733e-05  4.52793e-06        00000 
-1.35161e-05  1.39317e-05        00000 
-9.84172e-07 -2.24390e-05        00000 
-1.38087e-05  3.06193e-05        00000 
 6.87702e-07 -1.33366e-05        00000 