<?xml version="1.0" encoding="utf-8"?>
<VTKFile byte_order="LittleEndian" type="UnstructuredGrid" version="0.1">
   <UnstructuredGrid>
      <Piece NumberOfCells="1296" NumberOfPoints="685">
         <Points>
            <DataArray Name="Points" NumberOfComponents="3" format="ascii" type="Float32">
0.0000 0.0000 0.0000
0.0000 0.1111 0.0000
0.0000 0.2222 0.0000
0.0000 0.3333 0.0000
0.0000 0.4444 0.0000
0.0000 0.5556 0.0000
0.0000 0.6667 0.0000
0.0000 0.7778 0.0000
0.0000 0.8889 0.0000
0.0000 1.0000 0.0000
0.2222 0.0000 0.0000
0.2222 0.1111 0.0000
0.2222 0.2222 0.0000
0.2222 0.3333 0.0000
0.2222 0.4444 0.0000
0.2222 0.5556 0.0000
0.2222 0.6667 0.0000
0.2222 0.7778 0.0000
0.2222 0.8889 0.0000
0.2222 1.0000 0.0000
0.4444 0.0000 0.0000
0.4444 0.1111 0.0000
0.4444 0.2222 0.0000
0.4444 0.3333 0.0000
0.4444 0.4444 0.0000
0.4444 0.5556 0.0000
0.4444 0.6667 0.0000
0.4444 0.7778 0.0000
0.4444 0.8889 0.0000
0.4444 1.0000 0.0000
0.6667 0.0000 0.0000
0.6667 0.1111 0.0000
0.6667 0.2222 0.0000
0.6667 0.3333 0.0000
0.6667 0.4444 0.0000
0.6667 0.5556 0.0000
0.6667 0.6667 0.0000
0.6667 0.7778 0.0000
0.6667 0.8889 0.0000
0.6667 1.0000 0.0000
0.8889 0.0000 0.0000
0.8889 0.1111 0.0000
0.8889 0.2222 0.0000
0.8889 0.3333 0.0000
0.8889 0.4444 0.0000
0.8889 0.5556 0.0000
0.8889 0.6667 0.0000
0.8889 0.7778 0.0000
0.8889 0.8889 0.0000
0.8889 1.0000 0.0000
1.1111 0.0000 0.0000
1.1111 0.1111 0.0000
1.1111 0.2222 0.0000
1.1111 0.3333 0.0000
1.1111 0.4444 0.0000
1.1111 0.5556 0.0000
1.1111 0.6667 0.0000
1.1111 0.7778 0.0000
1.1111 0.8889 0.0000
1.1111 1.0000 0.0000
1.3333 0.0000 0.0000
1.3333 0.1111 0.0000
1.3333 0.2222 0.0000
1.3333 0.3333 0.0000
1.3333 0.4444 0.0000
1.3333 0.5556 0.0000
1.3333 0.6667 0.0000
1.3333 0.7778 0.0000
1.3333 0.8889 0.0000
1.3333 1.0000 0.0000
1.5556 0.0000 0.0000
1.5556 0.1111 0.0000
1.5556 0.2222 0.0000
1.5556 0.3333 0.0000
1.5556 0.4444 0.0000
1.5556 0.5556 0.0000
1.5556 0.6667 0.0000
1.5556 0.7778 0.0000
1.5556 0.8889 0.0000
1.5556 1.0000 0.0000
1.7778 0.0000 0.0000
1.7778 0.1111 0.0000
1.7778 0.2222 0.0000
1.7778 0.3333 0.0000
1.7778 0.4444 0.0000
1.7778 0.5556 0.0000
1.7778 0.6667 0.0000
1.7778 0.7778 0.0000
1.7778 0.8889 0.0000
1.7778 1.0000 0.0000
2.0000 0.0000 0.0000
2.0000 0.1111 0.0000
2.0000 0.2222 0.0000
2.0000 0.3333 0.0000
2.0000 0.4444 0.0000
2.0000 0.5556 0.0000
2.0000 0.6667 0.0000
2.0000 0.7778 0.0000
2.0000 0.8889 0.0000
2.0000 1.0000 0.0000
0.1111 0.0556 0.0000
0.1111 0.1667 0.0000
0.1111 0.2778 0.0000
0.1111 0.3889 0.0000
0.1111 0.5000 0.0000
0.1111 0.6111 0.0000
0.1111 0.7222 0.0000
0.1111 0.8333 0.0000
0.1111 0.9444 0.0000
0.3333 0.0556 0.0000
0.3333 0.1667 0.0000
0.3333 0.2778 0.0000
0.3333 0.3889 0.0000
0.3333 0.5000 0.0000
0.3333 0.6111 0.0000
0.3333 0.7222 0.0000
0.3333 0.8333 0.0000
0.3333 0.9444 0.0000
0.5556 0.0556 0.0000
0.5556 0.1667 0.0000
0.5556 0.2778 0.0000
0.5556 0.3889 0.0000
0.5556 0.5000 0.0000
0.5556 0.6111 0.0000
0.5556 0.7222 0.0000
0.5556 0.8333 0.0000
0.5556 0.9444 0.0000
0.7778 0.0556 0.0000
0.7778 0.1667 0.0000
0.7778 0.2778 0.0000
0.7778 0.3889 0.0000
0.7778 0.5000 0.0000
0.7778 0.6111 0.0000
0.7778 0.7222 0.0000
0.7778 0.8333 0.0000
0.7778 0.9444 0.0000
1.0000 0.0556 0.0000
1.0000 0.1667 0.0000
1.0000 0.2778 0.0000
1.0000 0.3889 0.0000
1.0000 0.5000 0.0000
1.0000 0.6111 0.0000
1.0000 0.7222 0.0000
1.0000 0.8333 0.0000
1.0000 0.9444 0.0000
1.2222 0.0556 0.0000
1.2222 0.1667 0.0000
1.2222 0.2778 0.0000
1.2222 0.3889 0.0000
1.2222 0.5000 0.0000
1.2222 0.6111 0.0000
1.2222 0.7222 0.0000
1.2222 0.8333 0.0000
1.2222 0.9444 0.0000
1.4444 0.0556 0.0000
1.4444 0.1667 0.0000
1.4444 0.2778 0.0000
1.4444 0.3889 0.0000
1.4444 0.5000 0.0000
1.4444 0.6111 0.0000
1.4444 0.7222 0.0000
1.4444 0.8333 0.0000
1.4444 0.9444 0.0000
1.6667 0.0556 0.0000
1.6667 0.1667 0.0000
1.6667 0.2778 0.0000
1.6667 0.3889 0.0000
1.6667 0.5000 0.0000
1.6667 0.6111 0.0000
1.6667 0.7222 0.0000
1.6667 0.8333 0.0000
1.6667 0.9444 0.0000
1.8889 0.0556 0.0000
1.8889 0.1667 0.0000
1.8889 0.2778 0.0000
1.8889 0.3889 0.0000
1.8889 0.5000 0.0000
1.8889 0.6111 0.0000
1.8889 0.7222 0.0000
1.8889 0.8333 0.0000
1.8889 0.9444 0.0000
0.0000 0.0556 0.0000
0.0556 0.0278 0.0000
0.0556 0.0833 0.0000
0.0000 0.1667 0.0000
0.0556 0.1389 0.0000
0.0556 0.1944 0.0000
0.0000 0.2778 0.0000
0.0556 0.2500 0.0000
0.0556 0.3056 0.0000
0.0000 0.3889 0.0000
0.0556 0.3611 0.0000
0.0556 0.4167 0.0000
0.0000 0.5000 0.0000
0.0556 0.4722 0.0000
0.0556 0.5278 0.0000
0.0000 0.6111 0.0000
0.0556 0.5833 0.0000
0.0556 0.6389 0.0000
0.0000 0.7222 0.0000
0.0556 0.6944 0.0000
0.0556 0.7500 0.0000
0.0000 0.8333 0.0000
0.0556 0.8056 0.0000
0.0556 0.8611 0.0000
0.0000 0.9444 0.0000
0.0556 0.9167 0.0000
0.0556 0.9722 0.0000
0.2222 0.0556 0.0000
0.2778 0.0278 0.0000
0.2778 0.0833 0.0000
0.2222 0.1667 0.0000
0.2778 0.1389 0.0000
0.2778 0.1944 0.0000
0.2222 0.2778 0.0000
0.2778 0.2500 0.0000
0.2778 0.3056 0.0000
0.2222 0.3889 0.0000
0.2778 0.3611 0.0000
0.2778 0.4167 0.0000
0.2222 0.5000 0.0000
0.2778 0.4722 0.0000
0.2778 0.5278 0.0000
0.2222 0.6111 0.0000
0.2778 0.5833 0.0000
0.2778 0.6389 0.0000
0.2222 0.7222 0.0000
0.2778 0.6944 0.0000
0.2778 0.7500 0.0000
0.2222 0.8333 0.0000
0.2778 0.8056 0.0000
0.2778 0.8611 0.0000
0.2222 0.9444 0.0000
0.2778 0.9167 0.0000
0.2778 0.9722 0.0000
0.4444 0.0556 0.0000
0.5000 0.0278 0.0000
0.5000 0.0833 0.0000
0.4444 0.1667 0.0000
0.5000 0.1389 0.0000
0.5000 0.1944 0.0000
0.4444 0.2778 0.0000
0.5000 0.2500 0.0000
0.5000 0.3056 0.0000
0.4444 0.3889 0.0000
0.5000 0.3611 0.0000
0.5000 0.4167 0.0000
0.4444 0.5000 0.0000
0.5000 0.4722 0.0000
0.5000 0.5278 0.0000
0.4444 0.6111 0.0000
0.5000 0.5833 0.0000
0.5000 0.6389 0.0000
0.4444 0.7222 0.0000
0.5000 0.6944 0.0000
0.5000 0.7500 0.0000
0.4444 0.8333 0.0000
0.5000 0.8056 0.0000
0.5000 0.8611 0.0000
0.4444 0.9444 0.0000
0.5000 0.9167 0.0000
0.5000 0.9722 0.0000
0.6667 0.0556 0.0000
0.7222 0.0278 0.0000
0.7222 0.0833 0.0000
0.6667 0.1667 0.0000
0.7222 0.1389 0.0000
0.7222 0.1944 0.0000
0.6667 0.2778 0.0000
0.7222 0.2500 0.0000
0.7222 0.3056 0.0000
0.6667 0.3889 0.0000
0.7222 0.3611 0.0000
0.7222 0.4167 0.0000
0.6667 0.5000 0.0000
0.7222 0.4722 0.0000
0.7222 0.5278 0.0000
0.6667 0.6111 0.0000
0.7222 0.5833 0.0000
0.7222 0.6389 0.0000
0.6667 0.7222 0.0000
0.7222 0.6944 0.0000
0.7222 0.7500 0.0000
0.6667 0.8333 0.0000
0.7222 0.8056 0.0000
0.7222 0.8611 0.0000
0.6667 0.9444 0.0000
0.7222 0.9167 0.0000
0.7222 0.9722 0.0000
0.8889 0.0556 0.0000
0.9444 0.0278 0.0000
0.9444 0.0833 0.0000
0.8889 0.1667 0.0000
0.9444 0.1389 0.0000
0.9444 0.1944 0.0000
0.8889 0.2778 0.0000
0.9444 0.2500 0.0000
0.9444 0.3056 0.0000
0.8889 0.3889 0.0000
0.9444 0.3611 0.0000
0.9444 0.4167 0.0000
0.8889 0.5000 0.0000
0.9444 0.4722 0.0000
0.9444 0.5278 0.0000
0.8889 0.6111 0.0000
0.9444 0.5833 0.0000
0.9444 0.6389 0.0000
0.8889 0.7222 0.0000
0.9444 0.6944 0.0000
0.9444 0.7500 0.0000
0.8889 0.8333 0.0000
0.9444 0.8056 0.0000
0.9444 0.8611 0.0000
0.8889 0.9444 0.0000
0.9444 0.9167 0.0000
0.9444 0.9722 0.0000
1.1111 0.0556 0.0000
1.1667 0.0278 0.0000
1.1667 0.0833 0.0000
1.1111 0.1667 0.0000
1.1667 0.1389 0.0000
1.1667 0.1944 0.0000
1.1111 0.2778 0.0000
1.1667 0.2500 0.0000
1.1667 0.3056 0.0000
1.1111 0.3889 0.0000
1.1667 0.3611 0.0000
1.1667 0.4167 0.0000
1.1111 0.5000 0.0000
1.1667 0.4722 0.0000
1.1667 0.5278 0.0000
1.1111 0.6111 0.0000
1.1667 0.5833 0.0000
1.1667 0.6389 0.0000
1.1111 0.7222 0.0000
1.1667 0.6944 0.0000
1.1667 0.7500 0.0000
1.1111 0.8333 0.0000
1.1667 0.8056 0.0000
1.1667 0.8611 0.0000
1.1111 0.9444 0.0000
1.1667 0.9167 0.0000
1.1667 0.9722 0.0000
1.3333 0.0556 0.0000
1.3889 0.0278 0.0000
1.3889 0.0833 0.0000
1.3333 0.1667 0.0000
1.3889 0.1389 0.0000
1.3889 0.1944 0.0000
1.3333 0.2778 0.0000
1.3889 0.2500 0.0000
1.3889 0.3056 0.0000
1.3333 0.3889 0.0000
1.3889 0.3611 0.0000
1.3889 0.4167 0.0000
1.3333 0.5000 0.0000
1.3889 0.4722 0.0000
1.3889 0.5278 0.0000
1.3333 0.6111 0.0000
1.3889 0.5833 0.0000
1.3889 0.6389 0.0000
1.3333 0.7222 0.0000
1.3889 0.6944 0.0000
1.3889 0.7500 0.0000
1.3333 0.8333 0.0000
1.3889 0.8056 0.0000
1.3889 0.8611 0.0000
1.3333 0.9444 0.0000
1.3889 0.9167 0.0000
1.3889 0.9722 0.0000
1.5556 0.0556 0.0000
1.6111 0.0278 0.0000
1.6111 0.0833 0.0000
1.5556 0.1667 0.0000
1.6111 0.1389 0.0000
1.6111 0.1944 0.0000
1.5556 0.2778 0.0000
1.6111 0.2500 0.0000
1.6111 0.3056 0.0000
1.5556 0.3889 0.0000
1.6111 0.3611 0.0000
1.6111 0.4167 0.0000
1.5556 0.5000 0.0000
1.6111 0.4722 0.0000
1.6111 0.5278 0.0000
1.5556 0.6111 0.0000
1.6111 0.5833 0.0000
1.6111 0.6389 0.0000
1.5556 0.7222 0.0000
1.6111 0.6944 0.0000
1.6111 0.7500 0.0000
1.5556 0.8333 0.0000
1.6111 0.8056 0.0000
1.6111 0.8611 0.0000
1.5556 0.9444 0.0000
1.6111 0.9167 0.0000
1.6111 0.9722 0.0000
1.7778 0.0556 0.0000
1.8333 0.0278 0.0000
1.8333 0.0833 0.0000
1.7778 0.1667 0.0000
1.8333 0.1389 0.0000
1.8333 0.1944 0.0000
1.7778 0.2778 0.0000
1.8333 0.2500 0.0000
1.8333 0.3056 0.0000
1.7778 0.3889 0.0000
1.8333 0.3611 0.0000
1.8333 0.4167 0.0000
1.7778 0.5000 0.0000
1.8333 0.4722 0.0000
1.8333 0.5278 0.0000
1.7778 0.6111 0.0000
1.8333 0.5833 0.0000
1.8333 0.6389 0.0000
1.7778 0.7222 0.0000
1.8333 0.6944 0.0000
1.8333 0.7500 0.0000
1.7778 0.8333 0.0000
1.8333 0.8056 0.0000
1.8333 0.8611 0.0000
1.7778 0.9444 0.0000
1.8333 0.9167 0.0000
1.8333 0.9722 0.0000
0.1111 0.1111 0.0000
0.1667 0.0833 0.0000
0.1111 0.2222 0.0000
0.1667 0.1944 0.0000
0.1111 0.3333 0.0000
0.1667 0.3056 0.0000
0.1111 0.4444 0.0000
0.1667 0.4167 0.0000
0.1111 0.5556 0.0000
0.1667 0.5278 0.0000
0.1111 0.6667 0.0000
0.1667 0.6389 0.0000
0.1111 0.7778 0.0000
0.1667 0.7500 0.0000
0.1111 0.8889 0.0000
0.1667 0.8611 0.0000
0.1111 1.0000 0.0000
0.1667 0.9722 0.0000
0.3333 0.1111 0.0000
0.3889 0.0833 0.0000
0.3333 0.2222 0.0000
0.3889 0.1944 0.0000
0.3333 0.3333 0.0000
0.3889 0.3056 0.0000
0.3333 0.4444 0.0000
0.3889 0.4167 0.0000
0.3333 0.5556 0.0000
0.3889 0.5278 0.0000
0.3333 0.6667 0.0000
0.3889 0.6389 0.0000
0.3333 0.7778 0.0000
0.3889 0.7500 0.0000
0.3333 0.8889 0.0000
0.3889 0.8611 0.0000
0.3333 1.0000 0.0000
0.3889 0.9722 0.0000
0.5556 0.1111 0.0000
[...]
         <PointData>
            <DataArray Name="fValues" NumberOfComponents="3" format="ascii" type="Float64">
-5.25183e-21  2.33415e-20        00000 
-1.05787e-20  1.41679e-20        00000 
-2.28843e-20  7.79859e-21        00000 
 3.41144e-20 -3.21077e-20        00000 
 7.76491e-20 -4.04490e-21        00000 
-1.20404e-20  4.01346e-20        00000 
 1.67459e-20  1.00727e-21        00000 
-2.60639e-20 -3.00737e-21        00000 
 1.61238e-20  2.41857e-20        00000 
 9.33659e-21 -2.80098e-20        00000 
-5.27479e-05  4.47468e-04        00000 
-4.77208e-05  3.16360e-04        00000 
 2.12331e-04 -1.54974e-04        00000 
 1.11274e-05 -7.20880e-05        00000 
-2.19414e-05 -3.77863e-04        00000 
 2.77339e-06  1.88742e-04        00000 
 7.77788e-05  9.60722e-05        00000 
 2.42429e-04  1.53179e-04        00000 
 4.07147e-06 -5.35026e-06        00000 
 9.21188e-05  3.42802e-04        00000 
-2.17042e-05  7.03971e-04        00000 
 2.34467e-04  1.63445e-04        00000 
-4.84359e-05 -1.25043e-04        00000 
-4.95268e-04 -3.37440e-04        00000 
 1.68617e-04 -1.53998e-04        00000 
 1.14767e-04 -1.64735e-04        00000 
 5.93757e-05  2.03750e-04        00000 
 9.24282e-05 -1.32968e-04        00000 
 4.16951e-05  1.86165e-04        00000 
 2.33895e-04  4.08132e-04        00000 
 9.12912e-05  2.41603e-04        00000 
 3.09851e-05  1.01842e-04        00000 
 1.34962e-04  1.68139e-04        00000 
-4.00291e-04 -9.06532e-05        00000 
 2.32863e-04 -8.81569e-05        00000 
 2.98270e-04  1.25176e-04        00000 
-2.00899e-05  3.16701e-04        00000 
-1.81901e-04 -9.03651e-05        00000 
 1.13824e-05 -1.50744e-04        00000 
-1.28401e-04  4.88839e-05        00000 
-3.31503e-04 -3.69785e-05        00000 
 1.36229e-04  4.07476e-04        00000 
-9.49618e-05 -1.97974e-05        00000 
-2.36989e-04 -1.14020e-04        00000 
-5.34271e-05  1.23146e-04        00000 
-3.15057e-04 -1.36062e-04        00000 
-2.04001e-04  2.41068e-04        00000 
-1.96732e-04 -8.95877e-05        00000 
-3.03709e-04 -1.79649e-04        00000 
-4.29406e-04  2.41300e-05        00000 
 2.25429e-04 -6.01250e-04        00000 
-1.91905e-04 -1.16843e-04        00000 
 7.36064e-05  3.22656e-05        00000 
-6.06545e-05 -2.28763e-06        00000 
-9.96405e-05 -6.34417e-05        00000 
-4.12822e-05  5.31345e-05        00000 
-2.27972e-04  1.38137e-04        00000 
-1.84524e-04  1.08902e-04        00000 
-3.00955e-04  2.24600e-05        00000 
-3.07958e-04  6.05422e-04        00000 
 7.57772e-05 -1.36774e-04        00000 
-1.98768e-04  2.06275e-05        00000 
-8.46569e-05 -1.63823e-04        00000 
 9.98804e-05  2.38504e-04        00000 
 1.19158e-04  1.85824e-04        00000 
-2.74455e-05  3.79462e-05        00000 
-1.24131e-05  5.81652e-05        00000 
-3.18268e-04 -3.28606e-05        00000 
-2.54563e-04  1.84615e-04        00000 
 1.24355e-04  9.17352e-04        00000 
-2.80894e-04 -3.83789e-04        00000 
 5.00796e-05 -2.55748e-05        00000 
-6.85709e-05 -3.35399e-05        00000 
-1.07371e-05 -7.08689e-05        00000 
-7.79914e-05  1.37852e-04        00000 
-9.91296e-05  4.53029e-05        00000 
-1.20131e-04  1.83359e-04        00000 
-3.87659e-05  3.23505e-04        00000 
 5.38773e-05  3.65100e-06        00000 
-1.95236e-04 -2.06511e-04        00000 
-1.28416e-06 -4.50595e-04        00000 
-7.97635e-05 -7.46051e-05        00000 
-2.66157e-04 -2.76596e-05        00000 
-8.30820e-05 -1.32616e-05        00000 
-2.58826e-04 -1.38018e-04        00000 
-1.55857e-04  1.38334e-05        00000 
-2.79429e-04  8.58163e-05        00000 
-1.85472e-04  2.42152e-04        00000 
-3.21892e-04  3.50288e-04        00000 
-1.72537e-04 -1.55685e-04        00000 
-6.35569e-06  1.98432e-04        00000 
 9.56067e-05  9.13278e-05        00000 
 1.70867e-04  3.53412e-05        00000 
 7.59597e-05  4.14824e-05        00000 
 1.87926e-04 -1.44600e-04        00000 
-1.38948e-05  4.76820e-05        00000 
-4.34301e-05  2.47936e-04        00000 
-5.81627e-05  1.18733e-04        00000 
 1.51357e-04 -7.73108e-05        00000 
-2.92887e-04  4.41715e-05        00000 
 1.34147e-05 -6.82884e-05        00000 
 9.57659e-05 -1.31250e-05        00000 
 2.46627e-04  4.43531e-07        00000 
 1.47628e-05  2.20200e-04        00000 
-2.90018e-05  1.36362e-04        00000 
-7.97838e-05  1.58817e-05        00000 
-7.75276e-05  8.53960e-05        00000 
-1.04958e-04  1.46068e-04        00000 
 1.86517e-04 -5.28484e-06        00000 
-1.64555e-04 -2.33735e-04        00000 
 1.79878e-04  9.52758e-05        00000 
 1.71694e-04 -2.48730e-05        00000 
 8.49392e-05 -4.11850e-05        00000 
 7.21340e-05 -5.62324e-05        00000 
-7.42124e-06  1.35356e-04        00000 
 1.20095e-04  1.63935e-04        00000 
-6.41638e-05 -4.63850e-05        00000 
-3.61908e-05 -8.35415e-05        00000 
 1.81119e-04 -5.77064e-05        00000 
-2.71858e-05 -4.09173e-05        00000 
-1.21533e-04 -3.09250e-05        00000 
-2.72031e-05 -1.18418e-04        00000 
-5.15085e-05  1.20134e-04        00000 
 3.68580e-04  5.58469e-05        00000 
 2.31201e-04 -2.56559e-04        00000 
 2.00251e-04 -1.04013e-04        00000 
 1.90113e-04 -2.27119e-04        00000 
-1.58338e-04 -6.26201e-05        00000 
 1.56751e-04  3.48831e-04        00000 
-2.55115e-06  1.90778e-04        00000 
 2.31762e-04  2.61874e-04        00000 
-1.69833e-04  1.35279e-04        00000 
 2.55670e-04  3.13633e-04        00000 
 3.81598e-04  1.45982e-04        00000 
 2.57257e-05 -6.08504e-05        00000 
-2.18576e-05 -5.02335e-05        00000 
 5.62279e-06  2.54581e-04        00000 
 4.50845e-04  3.85915e-04        00000 
 8.71650e-05  1.41895e-04        00000 
 1.30584e-04 -8.58321e-05        00000 
 1.25535e-04  2.41414e-04        00000 
 4.58578e-04  4.62674e-04        00000 
 1.57966e-04  3.49466e-04        00000 
 3.03479e-05  1.87670e-04        00000 
 2.60214e-05  9.67247e-05        00000 
-1.08167e-04  1.09803e-04        00000 
-9.21731e-05 -1.76605e-04        00000 
 1.06890e-04 -3.81602e-05        00000 
 1.70671e-04 -4.88165e-05        00000 
 9.22742e-05  1.65983e-04        00000 
 1.97035e-05  1.52229e-04        00000 
-2.23730e-04  1.07576e-04        00000 
-5.56558e-06  7.97853e-06        00000 
-1.62742e-04 -3.47794e-04        00000 
 1.58052e-04 -8.40589e-05        00000 
-3.55022e-04 -2.74916e-04        00000 
-6.89417e-05 -4.45342e-05        00000 
 1.30053e-04  2.08211e-05        00000 
-1.28762e-04  7.86400e-05        00000 
-3.88167e-04  5.99762e-05        00000 
-1.25165e-04 -4.89637e-05        00000 
-2.44797e-04  1.51827e-04        00000 
-2.26845e-04 -9.60445e-05        00000 
-2.77330e-05  3.99517e-04        00000 
 3.34573e-06  1.12037e-04        00000 
-7.83362e-05  2.30728e-04        00000 
-1.76833e-04  1.64199e-04        00000 
 5.72795e-05  2.35029e-04        00000 
-2.81153e-04  1.86520e-04        00000 
 3.31841e-05  3.02092e-04        00000 
 1.40941e-04  2.30133e-04        00000 
 3.49329e-06  3.94461e-04        00000 
-6.71510e-05  1.53740e-04        00000 
 2.33768e-05  4.51389e-04        00000 
 9.05455e-05  2.60966e-04        00000 
 5.62296e-05  3.16147e-04        00000 
-7.86120e-05  3.66193e-04        00000 
-2.66137e-04  1.83071e-04        00000 
 6.56292e-06  3.82172e-04        00000 
 5.46282e-05  4.10598e-04        00000 
 9.68010e-05  1.50685e-04        00000 
 1.24983e-20  1.43438e-20        00000 
-2.99084e-06 -1.74745e-04        00000 
 1.36222e-04  4.86254e-05        00000 
-2.66791e-20 -1.29976e-21        00000 
 1.72753e-04 -8.12196e-05        00000 
 1.63114e-05  4.17595e-06        00000 
 1.52466e-20 -1.52466e-20        00000 
-1.72329e-05  2.74041e-05        00000 
 1.96191e-04 -1.22458e-04        00000 
-2.62823e-20  6.73780e-20        00000 
 3.46408e-05 -3.82603e-05        00000 
 1.83116e-04  2.71436e-04        00000 
 6.09864e-20  5.71747e-21        00000 
 2.37710e-04 -3.72805e-05        00000 
-3.16947e-06  1.61234e-04        00000 
-2.79098e-21 -7.79118e-21        00000 
 3.17238e-05 -1.32697e-04        00000 
-2.23581e-04 -4.34962e-05        00000 
       00000  1.14349e-20        00000 
 5.16748e-05  7.76602e-05        00000 
 4.98124e-06 -9.26138e-05        00000 
-7.62330e-21  2.28699e-20        00000 
-1.35037e-04 -7.18585e-05        00000 
-1.23385e-04  9.86889e-05        00000 
 9.01181e-21 -1.63408e-20        00000 
-9.76396e-05  1.99616e-05        00000 
-5.52009e-05 -2.22066e-04        00000 
-2.60852e-04 -3.19285e-07        00000 
 1.11914e-04 -4.49907e-04        00000 
 8.27554e-06  1.61148e-04        00000 
 2.08328e-05 -1.83440e-04        00000 
 1.20532e-04  2.21774e-04        00000 
-2.04008e-04 -7.29188e-05        00000 
 8.19192e-05 -2.58638e-04        00000 
 1.23590e-04  2.17291e-04        00000 
 3.34919e-04 -9.60463e-05        00000 
 1.02650e-04  1.67563e-04        00000 
 3.93136e-04 -2.41985e-04        00000 
 1.07453e-04 -2.54864e-04        00000 
-6.33640e-05  6.90662e-06        00000 
 9.42271e-05  1.51848e-05        00000 
 1.55082e-04  1.85007e-04        00000 
-4.74542e-05  1.47506e-04        00000 
 1.72146e-04 -9.49763e-05        00000 
 1.13674e-04 -2.32767e-06        00000 
 7.44903e-05 -2.20290e-04        00000 
 2.12451e-04  6.36893e-06        00000 
 2.30682e-04  2.11688e-04        00000 
 4.82913e-06  6.39179e-05        00000 
 2.85242e-04  1.36142e-04        00000 
-1.16841e-04 -2.55799e-04        00000 
 1.21958e-04  1.42628e-04        00000 
 6.88913e-05  1.52837e-04        00000 
 1.11123e-04 -2.75640e-04        00000 
 1.50552e-04 -1.06954e-04        00000 
 3.81938e-04 -5.21359e-04        00000 
 2.68584e-04  2.34091e-04        00000 
 2.39957e-05 -2.04720e-04        00000 
-1.41852e-05 -7.30461e-05        00000 
-2.22094e-04 -8.02370e-05        00000 
-2.59074e-04  8.48616e-05        00000 
-2.01619e-05  8.18864e-06        00000 
 6.29616e-05 -6.00929e-05        00000 
 1.04585e-04  9.69761e-05        00000 
 1.07033e-04 -1.67736e-04        00000 
-5.94599e-05 -1.20998e-04        00000 
 1.54821e-05  1.09466e-04        00000 
-4.02636e-04 -2.32839e-04        00000 
-3.46213e-05 -4.56877e-05        00000 
-2.51202e-05 -6.48436e-05        00000 
-3.63010e-05 -1.63018e-04        00000 
 6.33997e-05  1.81146e-04        00000 
-6.07655e-05 -2.57646e-04        00000 
-1.50556e-04 -4.13994e-04        00000 
-2.25029e-04 -1.44636e-04        00000 
-2.32336e-05 -1.38907e-04        00000 
 6.07720e-05  3.91125e-05        00000 
 1.12586e-04  1.69579e-04        00000 
-1.38439e-04  4.64006e-04        00000 
 2.77215e-04  1.39413e-04        00000 
 2.92802e-04 -3.01733e-04        00000 
-7.46153e-05  2.06781e-05        00000 
-3.44638e-05  4.37265e-05        00000 
 2.07447e-04 -1.19538e-05        00000 
 2.26027e-05 -3.79244e-05        00000 
 8.04272e-05  1.33743e-04        00000 
 3.57449e-04  2.49276e-04        00000 
-2.32009e-04 -5.62678e-05        00000 
 1.52963e-04  1.82607e-04        00000 
 1.36419e-04  1.34892e-04        00000 
 9.84142e-05  1.99841e-04        00000 
 1.54311e-04  3.05195e-04        00000 
 8.80171e-05  2.55958e-05        00000 
-1.39455e-04  1.25792e-04        00000 
 1.14002e-04  4.08442e-04        00000 
-1.24912e-05  8.61110e-05        00000 
-2.13723e-04  1.57827e-04        00000 
-4.25354e-05 -5.34787e-05        00000 
 1.68373e-05  2.05336e-04        00000 
-2.38951e-04 -5.57715e-05        00000 
 2.79649e-05  1.95535e-04        00000 
-1.40065e-04 -4.93174e-05        00000 
-1.32974e-04 -3.02948e-05        00000 
-5.63745e-05  1.54424e-04        00000 
-3.35624e-05  8.30203e-05        00000 
-2.15382e-04  1.51070e-04        00000 
 3.74914e-04 -4.48183e-05        00000 
 4.00332e-04  1.98745e-04        00000 
-5.23742e-04 -3.60977e-04        00000 
 3.40453e-05 -2.17397e-04        00000 
-2.33181e-04  2.63973e-04        00000 
 1.47716e-04  1.43861e-04        00000 
 2.03400e-05  1.24061e-04        00000 
-2.48815e-04  1.89882e-04        00000 
 4.03118e-05  4.28035e-05        00000 
 1.41771e-05  2.10593e-04        00000 
 2.28964e-05 -3.19482e-05        00000 
 7.79118e-06  1.25696e-04        00000 
 1.86682e-04 -1.37800e-05        00000 
-3.78663e-04 -2.10960e-04        00000 
-2.64823e-04  2.60384e-05        00000 
-4.62576e-05  1.21625e-04        00000 
-2.03788e-04 -1.15849e-04        00000 
-7.31923e-05 -3.05754e-05        00000 
 2.11367e-05 -2.18026e-05        00000 
 4.01421e-04  2.00888e-04        00000 
-4.51356e-06 -2.48982e-05        00000 
 1.57834e-04  1.50670e-04        00000 
 2.91241e-04  3.22742e-04        00000 
-8.86541e-05  6.31771e-05        00000 
 3.04244e-05  6.00950e-05        00000 
 1.32627e-04 -1.25193e-04        00000 
 1.25229e-05  1.70228e-04        00000 
 1.98302e-04  5.63901e-05        00000 
 1.05291e-04  2.45123e-04        00000 
-1.41050e-04  1.47760e-04        00000 
 1.86204e-04  5.94294e-04        00000 
-7.57585e-05 -3.17552e-04        00000 
 1.20777e-04 -5.14964e-05        00000 
-3.29890e-05  1.21280e-04        00000 
-1.65696e-05  2.90682e-05        00000 
 1.37247e-04  4.84886e-05        00000 
-3.70455e-05  2.14295e-04        00000 
 1.37773e-05  1.01459e-05        00000 
 9.77824e-06  3.02573e-05        00000 
 5.69312e-05  5.76883e-05        00000 
 2.02429e-05 -2.77564e-04        00000 
-1.15704e-04 -6.84654e-05        00000 
 5.97062e-05  4.39009e-05        00000 
 6.94308e-05 -5.14390e-05        00000 
 9.95101e-05  1.23651e-04        00000 
 1.02779e-04  1.21611e-05        00000 
 1.40450e-04  1.15181e-04        00000 
-4.52600e-05  1.14668e-04        00000 
-1.38833e-04  3.23999e-05        00000 
-2.03253e-04 -1.72815e-05        00000 
-5.97027e-05  1.10707e-04        00000 
-1.65998e-04 -4.94392e-06        00000 
 8.22667e-05  4.38134e-05        00000 
-9.69656e-05  1.70718e-04        00000 
-2.94304e-05  2.89092e-04        00000 
-1.06042e-05 -6.15928e-04        00000 
-2.28225e-04  1.71875e-04        00000 
 1.53298e-04  3.76343e-04        00000 
-6.19327e-05  7.90497e-05        00000 
-2.50386e-04  2.69942e-04        00000 
-5.11422e-05 -1.21213e-04        00000 
-8.12155e-06  2.05672e-04        00000 
-2.96201e-04  1.26447e-04        00000 
 2.43339e-05 -1.34116e-04        00000 
-4.28195e-05  2.58770e-04        00000 
-2.92739e-04 -3.02846e-04        00000 
 2.29386e-04  1.12526e-04        00000 
 8.23727e-05  2.16569e-04        00000 
-1.80923e-04  6.16178e-05        00000 
 3.14616e-04  1.75100e-04        00000 
 5.83934e-05 -1.92482e-04        00000 
-1.76775e-04  8.92102e-05        00000 
 4.55461e-07  4.75565e-04        00000 
 1.86018e-04  5.56700e-05        00000 
-2.78908e-04  2.65563e-04        00000 
 1.20790e-04  4.66925e-04        00000 
-3.00312e-04  2.86640e-05        00000 
-4.93242e-04  2.13844e-04        00000 
 4.21225e-05  1.00145e-04        00000 
 1.05695e-04  2.42766e-04        00000 
-2.14082e-04 -7.24560e-05        00000 
 2.41803e-04  2.33810e-04        00000 
 3.09851e-06 -4.94522e-04        00000 
 2.21549e-04  2.39028e-04        00000 
-6.67920e-05  7.64158e-04        00000 
-1.77089e-05 -2.26433e-04        00000 
 2.70442e-04  8.67633e-05        00000 
-3.92237e-05  3.59192e-04        00000 
 1.05720e-05  1.62909e-05        00000 
 2.07292e-04  2.18153e-04        00000 
-2.68278e-04 -6.29751e-05        00000 
 6.11108e-05  1.78238e-04        00000 
 9.87105e-05  7.01788e-05        00000 
 7.05334e-05  1.86809e-05        00000 
-1.41636e-04  2.67394e-04        00000 
-9.69287e-05 -4.60646e-05        00000 
-1.15156e-04 -1.04892e-04        00000 
 4.37241e-05  2.67066e-04        00000 
-1.31772e-04 -1.30388e-04        00000 
-4.02710e-05 -1.00075e-04        00000 
 1.58636e-04 -6.28348e-05        00000 
 1.92395e-04  3.04330e-04        00000 
 2.35512e-04  1.56175e-04        00000 
 3.93650e-04  8.15741e-06        00000 
-1.58215e-04 -1.20663e-04        00000 
 4.41240e-05 -4.36603e-05        00000 
-2.44058e-05  2.11550e-04        00000 
-2.30974e-04  1.23120e-04        00000 
-7.56119e-05 -1.86896e-05        00000 
 1.49366e-04  3.61701e-04        00000 
-1.22360e-04 -8.11833e-06        00000 
 4.27528e-05  3.80812e-04        00000 
 3.88883e-04 -1.64152e-04        00000 
-3.05985e-04 -1.07455e-05        00000 
 2.68482e-04  5.41125e-05        00000 
 2.69509e-04 -9.62337e-05        00000 
-2.21899e-04  9.63511e-05        00000 
 1.38869e-04  1.43727e-04        00000 
 1.02812e-04 -2.20378e-05        00000 
-7.17012e-05  6.48552e-05        00000 
-8.15409e-05 -1.41003e-04        00000 
 5.12492e-05 -7.86090e-06        00000 
-2.89301e-05  1.89169e-04        00000 
-1.30977e-04  3.80964e-06        00000 
 3.38927e-05  4.47726e-05        00000 
-1.23026e-05  1.05884e-04        00000 
-5.30719e-05 -4.25623e-05        00000 
 1.07108e-04  5.20310e-05        00000 
-5.06245e-05  3.98392e-04        00000 
-1.07825e-04 -5.92792e-05        00000 
 2.68213e-04  2.67132e-04        00000 
-1.68520e-04  3.43924e-04        00000 
-3.84073e-05  1.60992e-05        00000 
 4.16357e-04  2.07712e-04        00000 
-8.59144e-05  8.06931e-06        00000 
 2.52777e-05 -2.22762e-06        00000 
-4.34827e-05  1.63562e-04        00000 
-2.84992e-04 -2.63882e-05        00000 
-1.06077e-04 -1.77768e-04        00000 
 1.59587e-04 -1.20298e-04        00000 
 2.38229e-04 -1.30810e-04        00000 
 8.07385e-05  8.65811e-05        00000 
 4.63169e-05 -9.94028e-05        00000 
 3.33846e-05  5.92751e-05        00000 
 1.56493e-04  5.65157e-05        00000 
 8.73392e-05  1.92022e-04        00000 
 2.23189e-04  1.15854e-04        00000 
 1.34016e-04  2.57867e-04        00000 
 1.21695e-04  9.62992e-05        00000 
 1.94985e-04 -1.06721e-04        00000 
-4.75845e-05 -3.70807e-05        00000 
 6.57844e-05  6.95431e-05        00000 
 2.20388e-04  3.75961e-05        00000 
 2.79837e-04  2.00670e-04        00000 
 4.60183e-05 -9.85403e-05        00000 
 1.48039e-04  2.18303e-04        00000 
 2.44284e-04  1.41189e-04        00000 
 4.15238e-05  3.11751e-04        00000 
 1.24562e-04 -1.01730e-04        00000 
 1.00467e-04  4.46014e-04        00000 
 1.70281e-04  7.08623e-05        00000 
 1.50866e-04  3.02755e-04        00000 
 2.16480e-04 -2.41442e-07        00000 
 1.48226e-04  3.31458e-04        00000 
 1.29491e-04  7.74207e-05        00000 
 4.84549e-05  1.84416e-04        00000 
-8.68859e-05 -3.26221e-06        00000 
 2.12152e-04  2.82175e-04        00000 
-9.10963e-06  6.59942e-05        00000 
-2.28255e-06 -1.08980e-04        00000 
 3.58305e-05 -1.50814e-04        00000 
 4.94751e-06  2.24762e-04        00000 
 3.47122e-04 -2.27044e-04        00000 
 5.64441e-05  1.68988e-04        00000 
 4.80909e-05  2.41584e-05        00000 
 1.34887e-04 -3.94600e-05        00000 
-7.49194e-05  2.14534e-04        00000 
-7.38323e-05  3.58519e-04        00000 
 1.31002e-04  1.65553e-04        00000 
-1.29670e-04 -1.63553e-04        00000 
 2.05918e-04 -1.84737e-04        00000 
 1.80233e-04 -4.93357e-05        00000 
 3.43548e-04  2.38454e-04        00000 
 7.66386e-05 -7.00213e-05        00000 
 1.79928e-04  7.73421e-05        00000 
 2.70252e-04 -7.24451e-05        00000 
-3.15431e-06 -7.32621e-05        00000 
 1.28106e-04  1.64853e-05        00000 
 1.80368e-04 -1.96387e-04        00000 
 3.52457e-04  8.78873e-05        00000 
 4.40895e-05  9.66587e-05        00000 
 5.11157e-05  1.17695e-04        00000 
 7.23719e-05 -3.51368e-04        00000 
 2.43833e-04  1.22524e-04        00000 
-2.09585e-04  2.66374e-04        00000 
 1.64343e-04  1.43688e-04        00000 
-1.11138e-04  1.65369e-05        00000 
 1.29390e-04 -3.21906e-04        00000 
-2.53593e-04 -2.87690e-04        00000 
 1.68275e-04 -1.74826e-04        00000 
 1.44261e-05 -5.35131e-05        00000 
 1.37043e-04 -4.43437e-05        00000 
-2.89718e-04 -7.83643e-05        00000 
-2.37741e-05 -3.42053e-04        00000 
-1.65010e-04 -7.23240e-05        00000 
-2.94647e-04  1.23056e-05        00000 
-2.73065e-05 -2.38893e-04        00000 
 1.85314e-04 -3.86654e-04        00000 
 1.09207e-04  1.36190e-04        00000 
-9.91909e-05  9.04458e-05        00000 