<?xml version="1.0" encoding="utf-8"?>
<VTKFile byte_order="LittleEndian" type="UnstructuredGrid" version="0.1">
   <UnstructuredGrid>
      <Piece NumberOfCells="1296" NumberOfPoints="685">
         <Points>
            <DataArray Name="Points" NumberOfComponents="3" format="ascii" type="Float32">
0.0000 0.0000 0.0000
0.0000 0.1111 0.0000
0.0000 0.2222 0.0000
0.0000 0.3333 0.0000
0.0000 0.4444 0.0000
0.0000 0.5556 0.0000
0.0000 0.6667 0.0000
0.0000 0.7778 0.0000
0.0000 0.8889 0.0000
0.0000 1.0000 0.0000
0.2222 0.0000 0.0000
0.2222 0.1111 0.0000
0.2222 0.2222 0.0000
0.2222 0.3333 0.0000
0.2222 0.4444 0.0000
0.2222 0.5556 0.0000
0.2222 0.6667 0.0000
0.2222 0.7778 0.0000
0.2222 0.8889 0.0000
0.2222 1.0000 0.0000
0.4444 0.0000 0.0000
0.4444 0.1111 0.0000
0.4444 0.2222 0.0000
0.4444 0.3333 0.0000
0.4444 0.4444 0.0000
0.4444 0.5556 0.0000
0.4444 0.6667 0.0000
0.4444 0.7778 0.0000
0.4444 0.8889 0.0000
0.4444 1.0000 0.0000
0.6667 0.0000 0.0000
0.6667 0.1111 0.0000
0.6667 0.2222 0.0000
0.6667 0.3333 0.0000
0.6667 0.4444 0.0000
0.6667 0.5556 0.0000
0.6667 0.6667 0.0000
0.6667 0.7778 0.0000
0.6667 0.8889 0.0000
0.6667 1.0000 0.0000
0.8889 0.0000 0.0000
0.8889 0.1111 0.0000
0.8889 0.2222 0.0000
0.8889 0.3333 0.0000
0.8889 0.4444 0.0000
0.8889 0.5556 0.0000
0.8889 0.6667 0.0000
0.8889 0.7778 0.0000
0.8889 0.8889 0.0000
0.8889 1.0000 0.0000
1.1111 0.0000 0.0000
1.1111 0.1111 0.0000
1.1111 0.2222 0.0000
1.1111 0.3333 0.0000
1.1111 0.4444 0.0000
1.1111 0.5556 0.0000
1.1111 0.6667 0.0000
1.1111 0.7778 0.0000
1.1111 0.8889 0.0000
1.1111 1.0000 0.0000
1.3333 0.0000 0.0000
1.3333 0.1111 0.0000
1.3333 0.2222 0.0000
1.3333 0.3333 0.0000
1.3333 0.4444 0.0000
1.3333 0.5556 0.0000
1.3333 0.6667 0.0000
1.3333 0.7778 0.0000
1.3333 0.8889 0.0000
1.3333 1.0000 0.0000
1.5556 0.0000 0.0000
1.5556 0.1111 0.0000
1.5556 0.2222 0.0000
1.5556 0.3333 0.0000
1.5556 0.4444 0.0000
1.5556 0.5556 0.0000
1.5556 0.6667 0.0000
1.5556 0.7778 0.0000
1.5556 0.8889 0.0000
1.5556 1.0000 0.0000
1.7778 0.0000 0.0000
1.7778 0.1111 0.0000
1.7778 0.2222 0.0000
1.7778 0.3333 0.0000
1.7778 0.4444 0.0000
1.7778 0.5556 0.0000
1.7778 0.6667 0.0000
1.7778 0.7778 0.0000
1.7778 0.8889 0.0000
1.7778 1.0000 0.0000
2.0000 0.0000 0.0000
2.0000 0.1111 0.0000
2.0000 0.2222 0.0000
2.0000 0.3333 0.0000
2.0000 0.4444 0.0000
2.0000 0.5556 0.0000
2.0000 0.6667 0.0000
2.0000 0.7778 0.0000
2.0000 0.8889 0.0000
2.0000 1.0000 0.0000
0.1111 0.0556 0.0000
0.1111 0.1667 0.0000
0.1111 0.2778 0.0000
0.1111 0.3889 0.0000
0.1111 0.5000 0.0000
0.1111 0.6111 0.0000
0.1111 0.7222 0.0000
0.1111 0.8333 0.0000
0.1111 0.9444 0.0000
0.3333 0.0556 0.0000
0.3333 0.1667 0.0000
0.3333 0.2778 0.0000
0.3333 0.3889 0.0000
0.3333 0.5000 0.0000
0.3333 0.6111 0.0000
0.3333 0.7222 0.0000
0.3333 0.8333 0.0000
0.3333 0.9444 0.0000
0.5556 0.0556 0.0000
0.5556 0.1667 0.0000
0.5556 0.2778 0.0000
0.5556 0.3889 0.0000
0.5556 0.5000 0.0000
0.5556 0.6111 0.0000
0.5556 0.7222 0.0000
0.5556 0.8333 0.0000
0.5556 0.9444 0.0000
0.7778 0.0556 0.0000
0.7778 0.1667 0.0000
0.7778 0.2778 0.0000
0.7778 0.3889 0.0000
0.7778 0.5000 0.0000
0.7778 0.6111 0.0000
0.7778 0.7222 0.0000
0.7778 0.8333 0.0000
0.7778 0.9444 0.0000
1.0000 0.0556 0.0000
1.0000 0.1667 0.0000
1.0000 0.2778 0.0000
1.0000 0.3889 0.0000
1.0000 0.5000 0.0000
1.0000 0.6111 0.0000
1.0000 0.7222 0.0000
1.0000 0.8333 0.0000
1.0000 0.9444 0.0000
1.2222 0.0556 0.0000
1.2222 0.1667 0.0000
1.2222 0.2778 0.0000
1.2222 0.3889 0.0000
1.2222 0.5000 0.0000
1.2222 0.6111 0.0000
1.2222 0.7222 0.0000
1.2222 0.8333 0.0000
1.2222 0.9444 0.0000
1.4444 0.0556 0.0000
1.4444 0.1667 0.0000
1.4444 0.2778 0.0000
1.4444 0.3889 0.0000
1.4444 0.5000 0.0000
1.4444 0.6111 0.0000
1.4444 0.7222 0.0000
1.4444 0.8333 0.0000
1.4444 0.9444 0.0000
1.6667 0.0556 0.0000
1.6667 0.1667 0.0000
1.6667 0.2778 0.0000
1.6667 0.3889 0.0000
1.6667 0.5000 0.0000
1.6667 0.6111 0.0000
1.6667 0.7222 0.0000
1.6667 0.8333 0.0000
1.6667 0.9444 0.0000
1.8889 0.0556 0.0000
1.8889 0.1667 0.0000
1.8889 0.2778 0.0000
1.8889 0.3889 0.0000
1.8889 0.5000 0.0000
1.8889 0.6111 0.0000
1.8889 0.7222 0.0000
1.8889 0.8333 0.0000
1.8889 0.9444 0.0000
0.0000 0.0556 0.0000
0.0556 0.0278 0.0000
0.0556 0.0833 0.0000
0.0000 0.1667 0.0000
0.0556 0.1389 0.0000
0.0556 0.1944 0.0000
0.0000 0.2778 0.0000
0.0556 0.2500 0.0000
0.0556 0.3056 0.0000
0.0000 0.3889 0.0000
0.0556 0.3611 0.0000
0.0556 0.4167 0.0000
0.0000 0.5000 0.0000
0.0556 0.4722 0.0000
0.0556 0.5278 0.0000
0.0000 0.6111 0.0000
0.0556 0.5833 0.0000
0.0556 0.6389 0.0000
0.0000 0.7222 0.0000
0.0556 0.6944 0.0000
0.0556 0.7500 0.0000
0.0000 0.8333 0.0000
0.0556 0.8056 0.0000
0.0556 0.8611 0.0000
0.0000 0.9444 0.0000
0.0556 0.9167 0.0000
0.0556 0.9722 0.0000
0.2222 0.0556 0.0000
0.2778 0.0278 0.0000
0.2778 0.0833 0.0000
0.2222 0.1667 0.0000
0.2778 0.1389 0.0000
0.2778 0.1944 0.0000
0.2222 0.2778 0.0000
0.2778 0.2500 0.0000
0.2778 0.3056 0.0000
0.2222 0.3889 0.0000
0.2778 0.3611 0.0000
0.2778 0.4167 0.0000
0.2222 0.5000 0.0000
0.2778 0.4722 0.0000
0.2778 0.5278 0.0000
0.2222 0.6111 0.0000
0.2778 0.5833 0.0000
0.2778 0.6389 0.0000
0.2222 0.7222 0.0000
0.2778 0.6944 0.0000
0.2778 0.7500 0.0000
0.2222 0.8333 0.0000
0.2778 0.8056 0.0000
0.2778 0.8611 0.0000
0.2222 0.9444 0.0000
0.2778 0.9167 0.0000
0.2778 0.9722 0.0000
0.4444 0.0556 0.0000
0.5000 0.0278 0.0000
0.5000 0.0833 0.0000
0.4444 0.1667 0.0000
0.5000 0.1389 0.0000
0.5000 0.1944 0.0000
0.4444 0.2778 0.0000
0.5000 0.2500 0.0000
0.5000 0.3056 0.0000
0.4444 0.3889 0.0000
0.5000 0.3611 0.0000
0.5000 0.4167 0.0000
0.4444 0.5000 0.0000
0.5000 0.4722 0.0000
0.5000 0.5278 0.0000
0.4444 0.6111 0.0000
0.5000 0.5833 0.0000
0.5000 0.6389 0.0000
0.4444 0.7222 0.0000
0.5000 0.6944 0.0000
0.5000 0.7500 0.0000
0.4444 0.8333 0.0000
0.5000 0.8056 0.0000
0.5000 0.8611 0.0000
0.4444 0.9444 0.0000
0.5000 0.9167 0.0000
0.5000 0.9722 0.0000
0.6667 0.0556 0.0000
0.7222 0.0278 0.0000
0.7222 0.0833 0.0000
0.6667 0.1667 0.0000
0.7222 0.1389 0.0000
0.7222 0.1944 0.0000
0.6667 0.2778 0.0000
0.7222 0.2500 0.0000
0.7222 0.3056 0.0000
0.6667 0.3889 0.0000
0.7222 0.3611 0.0000
0.7222 0.4167 0.0000
0.6667 0.5000 0.0000
0.7222 0.4722 0.0000
0.7222 0.5278 0.0000
0.6667 0.6111 0.0000
0.7222 0.5833 0.0000
0.7222 0.6389 0.0000
0.6667 0.7222 0.0000
0.7222 0.6944 0.0000
0.7222 0.7500 0.0000
0.6667 0.8333 0.0000
0.7222 0.8056 0.0000
0.7222 0.8611 0.0000
0.6667 0.9444 0.0000
0.7222 0.9167 0.0000
0.7222 0.9722 0.0000
0.8889 0.0556 0.0000
0.9444 0.0278 0.0000
0.9444 0.0833 0.0000
0.8889 0.1667 0.0000
0.9444 0.1389 0.0000
0.9444 0.1944 0.0000
0.8889 0.2778 0.0000
0.9444 0.2500 0.0000
0.9444 0.3056 0.0000
0.8889 0.3889 0.0000
0.9444 0.3611 0.0000
0.9444 0.4167 0.0000
0.8889 0.5000 0.0000
0.9444 0.4722 0.0000
0.9444 0.5278 0.0000
0.8889 0.6111 0.0000
0.9444 0.5833 0.0000
0.9444 0.6389 0.0000
0.8889 0.7222 0.0000
0.9444 0.6944 0.0000
0.9444 0.7500 0.0000
0.8889 0.8333 0.0000
0.9444 0.8056 0.0000
0.9444 0.8611 0.0000
0.8889 0.9444 0.0000
0.9444 0.9167 0.0000
0.9444 0.9722 0.0000
1.1111 0.0556 0.0000
1.1667 0.0278 0.0000
1.1667 0.0833 0.0000
1.1111 0.1667 0.0000
1.1667 0.1389 0.0000
1.1667 0.1944 0.0000
1.1111 0.2778 0.0000
1.1667 0.2500 0.0000
1.1667 0.3056 0.0000
1.1111 0.3889 0.0000
1.1667 0.3611 0.0000
1.1667 0.4167 0.0000
1.1111 0.5000 0.0000
1.1667 0.4722 0.0000
1.1667 0.5278 0.0000
1.1111 0.6111 0.0000
1.1667 0.5833 0.0000
1.1667 0.6389 0.0000
1.1111 0.7222 0.0000
1.1667 0.6944 0.0000
1.1667 0.7500 0.0000
1.1111 0.8333 0.0000
1.1667 0.8056 0.0000
1.1667 0.8611 0.0000
1.1111 0.9444 0.0000
1.1667 0.9167 0.0000
1.1667 0.9722 0.0000
1.3333 0.0556 0.0000
1.3889 0.0278 0.0000
1.3889 0.0833 0.0000
1.3333 0.1667 0.0000
1.3889 0.1389 0.0000
1.3889 0.1944 0.0000
1.3333 0.2778 0.0000
1.3889 0.2500 0.0000
1.3889 0.3056 0.0000
1.3333 0.3889 0.0000
1.3889 0.3611 0.0000
1.3889 0.4167 0.0000
1.3333 0.5000 0.0000
1.3889 0.4722 0.0000
1.3889 0.5278 0.0000
1.3333 0.6111 0.0000
1.3889 0.5833 0.0000
1.3889 0.6389 0.0000
1.3333 0.7222 0.0000
1.3889 0.6944 0.0000
1.3889 0.7500 0.0000
1.3333 0.8333 0.0000
1.3889 0.8056 0.0000
1.3889 0.8611 0.0000
1.3333 0.9444 0.0000
1.3889 0.9167 0.0000
1.3889 0.9722 0.0000
1.5556 0.0556 0.0000
1.6111 0.0278 0.0000
1.6111 0.0833 0.0000
1.5556 0.1667 0.0000
1.6111 0.1389 0.0000
1.6111 0.1944 0.0000
1.5556 0.2778 0.0000
1.6111 0.2500 0.0000
1.6111 0.3056 0.0000
1.5556 0.3889 0.0000
1.6111 0.3611 0.0000
1.6111 0.4167 0.0000
1.5556 0.5000 0.0000
1.6111 0.4722 0.0000
1.6111 0.5278 0.0000
1.5556 0.6111 0.0000
1.6111 0.5833 0.0000
1.6111 0.6389 0.0000
1.5556 0.7222 0.0000
1.6111 0.6944 0.0000
1.6111 0.7500 0.0000
1.5556 0.8333 0.0000
1.6111 0.8056 0.0000
1.6111 0.8611 0.0000
1.5556 0.9444 0.0000
1.6111 0.9167 0.0000
1.6111 0.9722 0.0000
1.7778 0.0556 0.0000
1.8333 0.0278 0.0000
1.8333 0.0833 0.0000
1.7778 0.1667 0.0000
1.8333 0.1389 0.0000
1.8333 0.1944 0.0000
1.7778 0.2778 0.0000
1.8333 0.2500 0.0000
1.8333 0.3056 0.0000
1.7778 0.3889 0.0000
1.8333 0.3611 0.0000
1.8333 0.4167 0.0000
1.7778 0.5000 0.0000
1.8333 0.4722 0.0000
1.8333 0.5278 0.0000
1.7778 0.6111 0.0000
1.8333 0.5833 0.0000
1.8333 0.6389 0.0000
1.7778 0.7222 0.0000
1.8333 0.6944 0.0000
1.8333 0.7500 0.0000
1.7778 0.8333 0.0000
1.8333 0.8056 0.0000
1.8333 0.8611 0.0000
1.7778 0.9444 0.0000
1.8333 0.9167 0.0000
1.8333 0.9722 0.0000
0.1111 0.1111 0.0000
0.1667 0.0833 0.0000
0.1111 0.2222 0.0000
0.1667 0.1944 0.0000
0.1111 0.3333 0.0000
0.1667 0.3056 0.0000
0.1111 0.4444 0.0000
0.1667 0.4167 0.0000
0.1111 0.5556 0.0000
0.1667 0.5278 0.0000
0.1111 0.6667 0.0000
0.1667 0.6389 0.0000
0.1111 0.7778 0.0000
0.1667 0.7500 0.0000
0.1111 0.8889 0.0000
0.1667 0.8611 0.0000
0.1111 1.0000 0.0000
0.1667 0.9722 0.0000
0.3333 0.1111 0.0000
0.3889 0.0833 0.0000
0.3333 0.2222 0.0000
0.3889 0.1944 0.0000
0.3333 0.3333 0.0000
0.3889 0.3056 0.0000
0.3333 0.4444 0.0000
0.3889 0.4167 0.0000
0.3333 0.5556 0.0000
0.3889 0.5278 0.0000
0.3333 0.6667 0.0000
0.3889 0.6389 0.0000
0.3333 0.7778 0.0000
0.3889 0.7500 0.0000
0.3333 0.8889 0.0000
0.3889 0.8611 0.0000
0.3333 1.0000 0.0000
0.3889 0.9722 0.0000
0.5556 0.1111 0.0000
[...]
         <PointData>
            <DataArray Name="fValues" NumberOfComponents="3" format="ascii" type="Float64">
-3.41916e-24 -3.98902e-24        00000 
-2.09075e-24 -1.84478e-24        00000 
-1.20001e-23 -1.07590e-25        00000 
-1.95970e-24 -1.17582e-23        00000 
-2.22385e-23 -1.49421e-23        00000 
-3.91939e-24  1.17582e-23        00000 
-1.50547e-23  2.15176e-24        00000 
 1.95792e-24 -4.89481e-25        00000 
-1.96824e-24 -1.96824e-24        00000 
-2.27944e-24 -1.13972e-24        00000 
-6.79376e-09  3.57185e-09        00000 
 5.36981e-09 -4.92579e-09        00000 
 7.25935e-09  6.79258e-09        00000 
 3.21178e-09 -5.04480e-08        00000 
-5.67686e-08 -6.13943e-09        00000 
-6.54074e-08 -4.71856e-09        00000 
-2.69163e-08  3.28825e-08        00000 
-8.75451e-08  2.72922e-09        00000 
-3.35092e-08 -3.09914e-08        00000 
 3.68930e-08 -9.43986e-08        00000 
-2.48822e-08  5.13121e-08        00000 
-1.59599e-08  8.27830e-08        00000 
 4.29204e-08  2.14917e-09        00000 
-1.05329e-08 -8.44089e-09        00000 
-7.70313e-08 -4.66044e-08        00000 
 3.50003e-08  2.50899e-08        00000 
 5.28393e-08 -2.17477e-08        00000 
 9.58801e-09 -4.91466e-08        00000 
-3.14581e-08 -4.21971e-08        00000 
-2.68751e-08 -7.16889e-08        00000 
 2.17702e-08  1.45672e-07        00000 
 6.79200e-09 -1.86657e-09        00000 
 1.27639e-08 -9.61914e-09        00000 
 9.15759e-09  1.10577e-08        00000 
-1.81598e-08 -1.80242e-08        00000 
 1.39138e-07  1.04951e-07        00000 
-1.39639e-09  1.96458e-08        00000 
-5.83464e-08  3.50929e-09        00000 
 8.57554e-08  3.13914e-08        00000 
-9.59860e-09  3.88155e-08        00000 
-2.77383e-08  1.54805e-07        00000 
 1.00815e-09  6.72334e-08        00000 
 5.73832e-08 -2.68418e-08        00000 
 2.92740e-08 -4.68975e-08        00000 
-1.95392e-08 -3.37942e-08        00000 
 1.04169e-07  8.93241e-08        00000 
 3.91081e-08  4.66639e-08        00000 
-5.67476e-09  4.50238e-09        00000 
 2.31585e-08  2.66207e-08        00000 
 3.84500e-08 -1.49437e-07        00000 
 4.53431e-08 -5.09746e-09        00000 
 2.60156e-08  2.38000e-08        00000 
-2.23682e-08  1.01639e-08        00000 
 2.97727e-08  4.12356e-08        00000 
-3.42811e-08 -3.55215e-08        00000 
 6.07170e-08  6.41831e-08        00000 
 5.71262e-08  1.33557e-08        00000 
 3.22387e-08  5.41917e-09        00000 
 1.54209e-08 -5.67960e-08        00000 
 1.79386e-08 -7.78076e-08        00000 
-1.10993e-08 -1.24845e-07        00000 
-1.86639e-08  3.24385e-08        00000 
 4.83468e-08  5.10177e-09        00000 
-4.76067e-08  3.76587e-08        00000 
 5.81278e-08  3.33038e-08        00000 
 2.85624e-08  6.10045e-08        00000 
 2.13148e-08  7.30089e-08        00000 
 3.01429e-08 -2.29392e-08        00000 
 8.63033e-08  6.52466e-08        00000 
 7.99907e-08 -4.00661e-09        00000 
-9.20788e-09 -1.87741e-08        00000 
 2.62761e-08 -1.00603e-08        00000 
 5.22485e-09  1.04503e-08        00000 
 4.51055e-08  2.71513e-08        00000 
 3.22163e-09  5.51839e-08        00000 
-2.69092e-08 -1.71960e-09        00000 
-5.04082e-08 -4.84417e-08        00000 
 5.71438e-08 -5.38703e-08        00000 
 3.82191e-08 -4.42434e-08        00000 
-7.41619e-08 -3.52547e-08        00000 
-2.79390e-08  2.78891e-08        00000 
-3.87333e-08  1.04384e-07        00000 
-4.55188e-08  3.03486e-08        00000 
-9.44948e-08  3.63736e-08        00000 
-4.22448e-08  3.10386e-08        00000 
 9.95402e-09 -1.21161e-08        00000 
 5.89046e-08 -2.85365e-09        00000 
-1.84338e-09 -1.73411e-08        00000 
-1.10471e-08  1.93843e-08        00000 
-9.40662e-08  1.07383e-07        00000 
-4.43716e-08  8.63014e-09        00000 
 2.09748e-08  6.35232e-08        00000 
 2.63753e-08  1.20187e-08        00000 
-1.80029e-08  8.02043e-08        00000 
-1.93752e-08  4.75268e-09        00000 
 3.34614e-09  2.85786e-08        00000 
 3.04425e-08  7.10907e-08        00000 
 3.86927e-08  4.57092e-08        00000 
-3.89582e-09  4.44242e-08        00000 
 5.37916e-08  1.59928e-08        00000 
 4.28455e-08  2.04551e-08        00000 
-4.89871e-08  4.64994e-08        00000 
-9.74238e-09  4.98989e-08        00000 
-5.45179e-09 -2.40374e-08        00000 
 5.29856e-08 -2.79095e-08        00000 
 5.76674e-08  1.83112e-08        00000 
-6.38989e-09 -4.32179e-08        00000 
-3.05366e-09 -2.98387e-09        00000 
 3.22426e-08 -3.27638e-08        00000 
-1.79922e-08  3.55568e-08        00000 
-6.29181e-08  3.74512e-08        00000 
-1.80334e-08  1.79447e-08        00000 
-2.29759e-08  6.01599e-08        00000 
 6.45907e-09  3.84933e-08        00000 
 6.42069e-08  5.56826e-09        00000 
 3.98883e-08  5.66922e-08        00000 
 1.01883e-08 -1.70350e-09        00000 
-7.11024e-08  2.53059e-08        00000 
 1.17561e-08 -3.04996e-08        00000 
-8.03976e-09  1.18583e-08        00000 
-3.39622e-08  4.32913e-08        00000 
 2.11617e-08  7.90091e-08        00000 
-1.03973e-08  4.95997e-08        00000 
 1.87029e-08  2.80617e-09        00000 
 7.13075e-08  3.64915e-08        00000 
-3.00886e-08  3.66073e-09        00000 
 1.75954e-08 -8.61644e-09        00000 
 3.69660e-08 -5.34361e-08        00000 
-2.28951e-08  4.03396e-08        00000 
-2.63705e-08  5.04058e-08        00000 
-5.21673e-08  5.77611e-08        00000 
 3.22830e-08  2.38903e-08        00000 
 7.40157e-08  7.35815e-08        00000 
 5.07512e-08  6.30654e-08        00000 
-5.01105e-09 -4.94989e-08        00000 
-7.30820e-08  4.82809e-08        00000 
 5.91809e-08  1.43091e-08        00000 
 2.73153e-08 -8.34361e-09        00000 
 8.10940e-09 -1.09517e-08        00000 
-4.84329e-08  5.00245e-08        00000 
-2.17849e-08  1.89652e-08        00000 
-2.35138e-08  1.28708e-09        00000 
-5.50282e-08  2.23207e-08        00000 
-7.87309e-08 -3.70843e-08        00000 
-4.32857e-08  4.19008e-09        00000 
 4.40849e-08  2.81732e-08        00000 
 2.45812e-08  5.25725e-09        00000 
 5.27388e-08 -5.13860e-08        00000 
 9.78062e-09 -1.39548e-08        00000 
-1.16365e-07 -7.87274e-08        00000 
 1.41730e-08 -5.19472e-08        00000 
 3.91471e-08 -1.68684e-08        00000 
 6.76835e-09 -2.69447e-08        00000 
-3.68113e-08  5.18311e-08        00000 
 2.69651e-08  1.16181e-07        00000 
 4.52480e-08  7.38702e-08        00000 
 5.06128e-08  3.33084e-09        00000 
 1.72388e-08 -1.92808e-08        00000 
 9.22544e-08  4.15594e-08        00000 
 2.47223e-08  2.38735e-08        00000 
 1.01760e-07  5.43884e-08        00000 
-4.24120e-09 -3.16975e-08        00000 
-2.48878e-09 -4.39081e-08        00000 
-5.22216e-08 -2.01202e-08        00000 
-1.46466e-08 -5.87493e-08        00000 
 3.05863e-09 -7.01079e-08        00000 
-4.16058e-08 -8.12122e-09        00000 
 5.82742e-09  7.84520e-09        00000 
-4.39035e-08 -1.88684e-08        00000 
-6.06541e-08  1.13347e-08        00000 
-4.79167e-08  3.18776e-08        00000 
-4.15486e-08  6.80163e-08        00000 
 2.78837e-08  9.04236e-08        00000 
 7.01656e-08  7.37474e-08        00000 
 4.02816e-08  2.31940e-08        00000 
 2.05577e-08 -3.37234e-08        00000 
 8.97677e-08 -6.09954e-09        00000 
 9.67133e-08  1.03038e-07        00000 
 7.67769e-08  1.23845e-07        00000 
 6.26181e-08  3.59075e-08        00000 
 1.15423e-08  1.81022e-08        00000 
 3.29601e-24  2.15783e-24        00000 
-6.29425e-09 -3.54080e-08        00000 
-2.66291e-08 -2.48680e-08        00000 
 2.00001e-24 -2.30851e-24        00000 
 4.88882e-08  1.22508e-08        00000 
-3.28801e-09 -1.60664e-08        00000 
-7.44463e-24 -5.58347e-24        00000 
-6.77902e-08 -3.21165e-08        00000 
-7.44322e-09 -2.74856e-08        00000 
 1.84526e-24  6.21266e-24        00000 
-3.22071e-08 -5.57429e-08        00000 
-1.81428e-08  1.50282e-08        00000 
-2.97785e-23 -2.60562e-23        00000 
-6.42935e-08 -7.83753e-08        00000 
-4.94130e-08 -3.16288e-08        00000 
 9.95374e-24  3.36369e-24        00000 
-8.66902e-08 -8.05051e-08        00000 
-7.43741e-08  6.85841e-09        00000 
       00000  5.58347e-24        00000 
-5.31121e-08 -3.70612e-08        00000 
-1.57599e-08  1.34160e-08        00000 
 3.72231e-24        00000        00000 
-4.60766e-08 -8.67885e-09        00000 
-6.44336e-08 -2.69429e-08        00000 
 1.81580e-24 -6.14096e-25        00000 
-4.85034e-08  4.26665e-08        00000 
 3.85767e-09 -6.73795e-08        00000 
 2.68589e-08 -3.16053e-08        00000 
-4.30254e-08 -1.67492e-09        00000 
-2.73631e-08 -8.61241e-09        00000 
-2.68372e-08 -4.17547e-08        00000 
-6.26322e-08  2.80490e-08        00000 
-3.08659e-08 -2.21529e-09        00000 
 5.59363e-08  1.62824e-08        00000 
 1.87917e-08 -9.51219e-09        00000 
 3.85317e-08  3.33653e-09        00000 
 2.66286e-08  7.55988e-08        00000 
 6.13991e-08 -1.28822e-08        00000 
 2.69533e-08 -2.84116e-09        00000 
-6.95035e-08  3.95575e-08        00000 
-2.20674e-08 -3.83857e-08        00000 
-2.64232e-08  1.72163e-08        00000 
-4.40133e-08  1.07939e-08        00000 
-1.36206e-08  4.68795e-09        00000 
 3.07819e-08 -1.95152e-08        00000 
-2.49914e-08 -1.16820e-08        00000 
-2.60635e-08  4.11886e-09        00000 
-1.74560e-08 -4.20073e-09        00000 
-5.46204e-08 -1.28148e-08        00000 
-6.07066e-08  4.64074e-08        00000 
 1.40902e-08 -3.47783e-08        00000 
-4.09923e-08  4.00951e-08        00000 
 9.82471e-09 -7.52467e-08        00000 
 4.10924e-09  8.53697e-08        00000 
-4.43593e-08 -3.17873e-08        00000 
-7.75754e-08 -2.20589e-08        00000 
-4.42158e-08 -1.47366e-08        00000 
-4.48898e-08 -5.05030e-08        00000 
-4.67149e-08  2.36517e-08        00000 
 4.32419e-08 -3.46344e-09        00000 
-3.19583e-08  3.80837e-08        00000 
-2.20179e-08  4.69348e-09        00000 
-7.03337e-08 -5.74376e-08        00000 
-3.78760e-08  1.07828e-07        00000 
-3.83086e-08  3.60793e-08        00000 
-4.14802e-08 -4.06894e-10        00000 
-2.36444e-08 -2.62964e-08        00000 
 5.68333e-08  4.95950e-08        00000 
-2.84501e-11 -4.24325e-08        00000 
-5.66864e-08 -2.68051e-08        00000 
-2.28187e-08 -3.59651e-08        00000 
-6.11776e-08 -4.56674e-08        00000 
 3.15638e-08 -2.76008e-08        00000 
-6.64422e-08 -4.56124e-08        00000 
-4.32018e-08 -5.39047e-08        00000 
-2.05878e-08 -5.60108e-08        00000 
 3.78890e-08  1.08396e-08        00000 
 3.00808e-08 -1.62584e-08        00000 
 7.54774e-11  5.75907e-08        00000 
-1.39106e-08  5.73641e-09        00000 
-5.11697e-08  5.17963e-08        00000 
-2.65166e-08 -8.99047e-08        00000 
 2.28390e-08 -2.68030e-07        00000 
-1.51868e-08  4.24636e-08        00000 
-3.97815e-08 -6.00778e-08        00000 
 1.39118e-08 -4.24989e-08        00000 
 1.66613e-08  7.13422e-08        00000 
 2.79896e-08  3.26165e-08        00000 
 5.83333e-09 -9.37193e-09        00000 
-1.52444e-09 -3.02475e-08        00000 
-2.33052e-08  3.09184e-08        00000 
 4.21648e-08 -3.58941e-08        00000 
 3.20848e-08 -7.54750e-08        00000 
 4.86841e-08  1.77864e-08        00000 
 7.84195e-08  6.65630e-08        00000 
 6.71678e-08  2.65016e-08        00000 
 4.66788e-08  2.32100e-08        00000 
 4.39866e-08 -2.17772e-08        00000 
 1.91626e-08 -1.47330e-08        00000 
 1.42735e-08  4.57287e-08        00000 
 3.41206e-08  5.89983e-08        00000 
-1.78525e-08 -5.84322e-08        00000 
-1.97602e-10  3.21600e-08        00000 
 8.07998e-08  1.10926e-07        00000 
 4.97299e-08 -1.31828e-08        00000 
-3.96050e-08  4.47081e-08        00000 
 1.86034e-08 -3.06959e-08        00000 
 1.23742e-08  5.41901e-08        00000 
 5.27875e-08 -6.01455e-08        00000 
-6.03506e-08 -6.79534e-08        00000 
 4.14781e-08  1.24725e-08        00000 
 3.07152e-09  1.88941e-08        00000 
 1.64801e-08  2.29531e-08        00000 
 3.92982e-08 -8.05386e-09        00000 
 4.17460e-08  4.41764e-08        00000 
 5.23442e-08 -1.84775e-08        00000 
-5.33603e-09 -6.66089e-08        00000 
-3.83793e-08  4.92963e-08        00000 
 2.11025e-08 -7.12980e-09        00000 
-1.65712e-08 -1.00479e-07        00000 
 2.95027e-08 -3.38996e-08        00000 
 2.64101e-08  2.38628e-08        00000 
-4.54269e-08  1.53347e-08        00000 
 3.13808e-08 -7.36057e-08        00000 
-7.57142e-08 -6.14924e-08        00000 
-3.89261e-09 -1.18377e-08        00000 
-2.76305e-08 -1.19012e-08        00000 
 3.64235e-08  1.73021e-08        00000 
-1.97775e-08 -7.16862e-08        00000 
 5.23490e-08 -3.51303e-08        00000 
 9.21073e-08  6.36033e-08        00000 
 1.92223e-08 -9.41959e-09        00000 
-3.69916e-08  6.63129e-08        00000 
 2.12104e-08 -5.99049e-08        00000 
-5.33459e-08  5.70368e-08        00000 
-4.82567e-09 -3.28444e-08        00000 
 6.39469e-09  3.14623e-08        00000 
 3.17688e-08 -4.44345e-08        00000 
-4.11787e-08 -2.63439e-08        00000 
 7.82304e-08  1.11979e-08        00000 
 3.94258e-08  2.25329e-08        00000 
-3.78287e-08 -6.27104e-09        00000 
 2.39808e-09 -5.56109e-08        00000 
-5.36347e-08  6.41977e-08        00000 
 2.01298e-08  2.58646e-08        00000 
-3.24382e-08  3.36980e-09        00000 
-7.01372e-08 -1.00280e-07        00000 
-5.41979e-08  1.42766e-08        00000 
 3.11181e-08  1.07067e-07        00000 
-4.50756e-08 -1.92297e-08        00000 
 1.56739e-08 -1.85621e-08        00000 
-4.27463e-11 -1.80444e-08        00000 
-4.44585e-08 -9.61732e-09        00000 
 2.94553e-08 -5.91540e-08        00000 
-3.96568e-10  9.45386e-09        00000 
 2.93008e-08 -4.64532e-09        00000 
-6.53210e-09 -4.04795e-09        00000 
 8.66179e-08  1.36392e-08        00000 
 6.43222e-08 -3.16216e-08        00000 
-1.17112e-08 -4.28662e-08        00000 
 8.41337e-08  3.51684e-08        00000 
 8.46328e-08 -1.13562e-08        00000 
 6.03197e-08  2.17645e-08        00000 
 6.61894e-08  2.11284e-07        00000 
 5.83747e-08 -3.93786e-09        00000 
 1.83199e-08  8.30981e-08        00000 
 5.09185e-08  2.91652e-08        00000 
 3.14053e-08  7.89505e-09        00000 
 3.15406e-08 -2.19479e-09        00000 
 2.54016e-08 -6.16369e-08        00000 
 2.72422e-08 -1.66475e-08        00000 
 8.70671e-09 -2.22849e-08        00000 
 1.15363e-08 -7.10342e-08        00000 
-2.23038e-08 -3.19274e-08        00000 
 2.76367e-09 -7.90006e-08        00000 
-5.60536e-08 -8.66508e-08        00000 
-6.39729e-08  1.60402e-08        00000 
-2.46291e-09  1.82564e-08        00000 
-1.09341e-07  1.47372e-09        00000 
-6.14093e-08 -3.31967e-08        00000 
 1.85767e-08 -7.00435e-09        00000 
-5.40492e-08  2.36623e-08        00000 
 3.83438e-08  2.43702e-08        00000 
 8.29173e-08  2.20095e-08        00000 
 7.94377e-08 -2.21080e-08        00000 
-3.31232e-09 -1.67250e-08        00000 
 7.47850e-08 -1.57175e-08        00000 
-2.13201e-08 -7.57242e-08        00000 
 4.60477e-08  4.69372e-08        00000 
-1.82578e-09  2.79809e-08        00000 
-3.67782e-08 -5.12844e-08        00000 
-2.10671e-08  2.12459e-09        00000 
 3.13681e-08 -5.13962e-08        00000 
-3.12876e-08  1.51262e-08        00000 
 3.83224e-08 -1.54705e-08        00000 
 5.75760e-08 -1.19936e-08        00000 
-1.19228e-08 -1.28100e-08        00000 
-1.08560e-07 -4.48790e-08        00000 
-4.54797e-08 -3.53852e-08        00000 
-7.99160e-08  7.71077e-08        00000 
-4.34522e-08  9.34089e-09        00000 
-2.85810e-08  7.28538e-08        00000 
-4.47286e-08  1.40210e-08        00000 
-2.31301e-08  3.82663e-08        00000 
-6.82046e-08  1.59914e-08        00000 
-5.76546e-09  1.66061e-08        00000 
 5.31500e-09  2.83582e-08        00000 
 1.22601e-08  6.16985e-08        00000 
 6.00782e-08  1.94754e-08        00000 
-3.98999e-08 -3.94617e-08        00000 
 6.40347e-08  3.01486e-08        00000 
 4.88126e-09  1.94132e-09        00000 
-1.38372e-08  1.45171e-08        00000 
-5.25736e-09  4.08492e-08        00000 
 3.74130e-08 -6.17679e-09        00000 
 2.36576e-08  4.41572e-08        00000 
-8.20910e-09 -1.93256e-08        00000 
-4.02230e-08  5.73199e-08        00000 
-8.44102e-09  1.88170e-08        00000 
-2.85174e-08 -2.12264e-08        00000 
-7.28678e-08  3.00186e-08        00000 
 1.74854e-08  8.75136e-08        00000 
 1.19364e-08 -3.15147e-08        00000 
-5.50838e-08  2.86577e-08        00000 
-1.81996e-08  1.37286e-08        00000 
-2.59177e-08  3.68433e-08        00000 
-6.11080e-08 -7.36631e-09        00000 
-5.86307e-08  5.48652e-08        00000 
-7.31040e-09  3.50054e-08        00000 
-2.67962e-08 -1.77161e-08        00000 
-2.66209e-09  4.38562e-08        00000 
-1.43169e-08  6.78309e-08        00000 
-1.28476e-08 -4.49653e-09        00000 
-1.52945e-08  4.95445e-08        00000 
 9.43515e-09 -1.01176e-08        00000 
-8.56276e-08 -5.73539e-08        00000 
 2.55138e-08  6.00787e-08        00000 
 3.76641e-08  3.84855e-08        00000 
 2.21646e-08 -6.70781e-09        00000 
-4.10426e-08 -1.13715e-08        00000 
-1.70388e-09  1.25540e-08        00000 
-3.27765e-08  7.42397e-08        00000 
-3.66309e-08 -6.94978e-08        00000 
-4.68910e-08 -5.40381e-09        00000 
-3.48404e-08 -7.27416e-09        00000 
-3.74765e-08 -2.73977e-08        00000 
-4.98755e-08  4.98944e-08        00000 
 2.81734e-08 -5.55539e-09        00000 
 3.09297e-08  5.17048e-08        00000 
 2.33785e-09 -2.06149e-08        00000 
-2.09744e-09  3.95212e-08        00000 
-1.92514e-08 -2.50621e-08        00000 
-1.59613e-08  5.70802e-08        00000 
-5.90158e-09  2.73414e-08        00000 
 2.29073e-08  1.79679e-08        00000 
 4.77913e-09 -2.14781e-08        00000 
-1.89985e-08  2.16453e-08        00000 
 2.54059e-08  2.02031e-08        00000 
-3.79773e-08  2.16599e-08        00000 
 2.73391e-08  2.74189e-08        00000 
 2.29310e-08 -2.46659e-09        00000 
-2.35391e-08  1.66862e-08        00000 
-7.89318e-09  5.82937e-08        00000 
-1.89759e-09 -4.75909e-09        00000 
 6.14664e-10  6.52700e-08        00000 
 6.94911e-09  4.51433e-08        00000 
 1.06873e-08  9.54152e-08        00000 
 5.40971e-09  1.84938e-08        00000 
 5.41544e-08  1.05467e-07        00000 
 7.21189e-08 -4.45240e-09        00000 
-4.10073e-08  1.05813e-07        00000 
-1.17221e-09  3.17654e-08        00000 
-2.62700e-08 -3.28008e-08        00000 
 3.06788e-08 -2.42715e-08        00000 
-4.15507e-08  1.87759e-08        00000 
-2.46357e-08 -2.41409e-10        00000 
-2.45767e-08  3.07809e-08        00000 
-4.73780e-08 -1.31369e-07        00000 
-1.94845e-08  1.22730e-07        00000 
 2.37160e-08 -4.18624e-09        00000 
-1.83617e-08 -2.08892e-08        00000 
-5.57467e-08 -7.92089e-08        00000 
-4.36612e-09 -6.10797e-08        00000 
-3.06541e-08 -1.50451e-08        00000 
-5.59212e-08 -4.21597e-08        00000 
 1.84009e-09 -4.46959e-08        00000 
-3.59549e-08 -2.24564e-08        00000 
-3.62170e-08 -6.23662e-08        00000 
-5.62289e-08  7.75820e-09        00000 
-4.75078e-08 -6.95844e-08        00000 
-8.46259e-09 -1.16481e-08        00000 
-1.86862e-08 -4.55030e-08        00000 
-9.05403e-08 -5.57843e-08        00000 
-6.95341e-08  1.16075e-08        00000 
 3.83234e-08 -4.57954e-08        00000 
 3.02161e-09  1.74001e-08        00000 
 3.04837e-08 -8.42236e-08        00000 
-4.28553e-08 -3.08030e-08        00000 
-6.04176e-08  1.08932e-08        00000 
-7.36884e-08 -5.18835e-08        00000 
-3.07040e-08 -1.45301e-08        00000 
-4.45104e-08 -1.89605e-09        00000 
 1.13463e-08 -5.11455e-08        00000 
-1.17202e-08 -6.58857e-08        00000 
-7.21621e-09 -3.62440e-08        00000 
 3.18152e-08 -1.89358e-08        00000 
-1.16024e-07  1.19482e-08        00000 
 4.17932e-08  3.50409e-09        00000 
 2.44126e-08  1.22842e-08        00000 
 9.15766e-09 -3.02087e-08        00000 
-5.52090e-08 -9.68637e-09        00000 
 2.99930e-09 -1.38975e-08        00000 
 3.37418e-08  4.03574e-08        00000 
 3.12496e-08 -2.72666e-08        00000 
 5.44938e-08  1.47872e-07        00000 
 5.73802e-09 -4.33384e-08        00000 