<?xml version="1.0" encoding="utf-8"?>
<VTKFile byte_order="LittleEndian" type="UnstructuredGrid" version="0.1">
   <UnstructuredGrid>
      <Piece NumberOfCells="1296" NumberOfPoints="685">
         <Points>
            <DataArray Name="Points" NumberOfComponents="3" format="ascii" type="Float32">
0.0000 0.0000 0.0000
0.0000 0.1111 0.0000
0.0000 0.2222 0.0000
0.0000 0.3333 0.0000
0.0000 0.4444 0.0000
0.0000 0.5556 0.0000
0.0000 0.6667 0.0000
0.0000 0.7778 0.0000
0.0000 0.8889 0.0000
0.0000 1.0000 0.0000
0.2222 0.0000 0.0000
0.2222 0.1111 0.0000
0.2222 0.2222 0.0000
0.2222 0.3333 0.0000
0.2222 0.4444 0.0000
0.2222 0.5556 0.0000
0.2222 0.6667 0.0000
0.2222 0.7778 0.0000
0.2222 0.8889 0.0000
0.2222 1.0000 0.0000
0.4444 0.0000 0.0000
0.4444 0.1111 0.0000
0.4444 0.2222 0.0000
0.4444 0.3333 0.0000
0.4444 0.4444 0.0000
0.4444 0.5556 0.0000
0.4444 0.6667 0.0000
0.4444 0.7778 0.0000
0.4444 0.8889 0.0000
0.4444 1.0000 0.0000
0.6667 0.0000 0.0000
0.6667 0.1111 0.0000
0.6667 0.2222 0.0000
0.6667 0.3333 0.0000
0.6667 0.4444 0.0000
0.6667 0.5556 0.0000
0.6667 0.6667 0.0000
0.6667 0.7778 0.0000
0.6667 0.8889 0.0000
0.6667 1.0000 0.0000
0.8889 0.0000 0.0000
0.8889 0.1111 0.0000
0.8889 0.2222 0.0000
0.8889 0.3333 0.0000
0.8889 0.4444 0.0000
0.8889 0.5556 0.0000
0.8889 0.6667 0.0000
0.8889 0.7778 0.0000
0.8889 0.8889 0.0000
0.8889 1.0000 0.0000
1.1111 0.0000 0.0000
1.1111 0.1111 0.0000
1.1111 0.2222 0.0000
1.1111 0.3333 0.0000
1.1111 0.4444 0.0000
1.1111 0.5556 0.0000
1.1111 0.6667 0.0000
1.1111 0.7778 0.0000
1.1111 0.8889 0.0000
1.1111 1.0000 0.0000
1.3333 0.0000 0.0000
1.3333 0.1111 0.0000
1.3333 0.2222 0.0000
1.3333 0.3333 0.0000
1.3333 0.4444 0.0000
1.3333 0.5556 0.0000
1.3333 0.6667 0.0000
1.3333 0.7778 0.0000
1.3333 0.8889 0.0000
1.3333 1.0000 0.0000
1.5556 0.0000 0.0000
1.5556 0.1111 0.0000
1.5556 0.2222 0.0000
1.5556 0.3333 0.0000
1.5556 0.4444 0.0000
1.5556 0.5556 0.0000
1.5556 0.6667 0.0000
1.5556 0.7778 0.0000
1.5556 0.8889 0.0000
1.5556 1.0000 0.0000
1.7778 0.0000 0.0000
1.7778 0.1111 0.0000
1.7778 0.2222 0.0000
1.7778 0.3333 0.0000
1.7778 0.4444 0.0000
1.7778 0.5556 0.0000
1.7778 0.6667 0.0000
1.7778 0.7778 0.0000
1.7778 0.8889 0.0000
1.7778 1.0000 0.0000
2.0000 0.0000 0.0000
2.0000 0.1111 0.0000
2.0000 0.2222 0.0000
2.0000 0.3333 0.0000
2.0000 0.4444 0.0000
2.0000 0.5556 0.0000
2.0000 0.6667 0.0000
2.0000 0.7778 0.0000
2.0000 0.8889 0.0000
2.0000 1.0000 0.0000
0.1111 0.0556 0.0000
0.1111 0.1667 0.0000
0.1111 0.2778 0.0000
0.1111 0.3889 0.0000
0.1111 0.5000 0.0000
0.1111 0.6111 0.0000
0.1111 0.7222 0.0000
0.1111 0.8333 0.0000
0.1111 0.9444 0.0000
0.3333 0.0556 0.0000
0.3333 0.1667 0.0000
0.3333 0.2778 0.0000
0.3333 0.3889 0.0000
0.3333 0.5000 0.0000
0.3333 0.6111 0.0000
0.3333 0.7222 0.0000
0.3333 0.8333 0.0000
0.3333 0.9444 0.0000
0.5556 0.0556 0.0000
0.5556 0.1667 0.0000
0.5556 0.2778 0.0000
0.5556 0.3889 0.0000
0.5556 0.5000 0.0000
0.5556 0.6111 0.0000
0.5556 0.7222 0.0000
0.5556 0.8333 0.0000
0.5556 0.9444 0.0000
0.7778 0.0556 0.0000
0.7778 0.1667 0.0000
0.7778 0.2778 0.0000
0.7778 0.3889 0.0000
0.7778 0.5000 0.0000
0.7778 0.6111 0.0000
0.7778 0.7222 0.0000
0.7778 0.8333 0.0000
0.7778 0.9444 0.0000
1.0000 0.0556 0.0000
1.0000 0.1667 0.0000
1.0000 0.2778 0.0000
1.0000 0.3889 0.0000
1.0000 0.5000 0.0000
1.0000 0.6111 0.0000
1.0000 0.7222 0.0000
1.0000 0.8333 0.0000
1.0000 0.9444 0.0000
1.2222 0.0556 0.0000
1.2222 0.1667 0.0000
1.2222 0.2778 0.0000
1.2222 0.3889 0.0000
1.2222 0.5000 0.0000
1.2222 0.6111 0.0000
1.2222 0.7222 0.0000
1.2222 0.8333 0.0000
1.2222 0.9444 0.0000
1.4444 0.0556 0.0000
1.4444 0.1667 0.0000
1.4444 0.2778 0.0000
1.4444 0.3889 0.0000
1.4444 0.5000 0.0000
1.4444 0.6111 0.0000
1.4444 0.7222 0.0000
1.4444 0.8333 0.0000
1.4444 0.9444 0.0000
1.6667 0.0556 0.0000
1.6667 0.1667 0.0000
1.6667 0.2778 0.0000
1.6667 0.3889 0.0000
1.6667 0.5000 0.0000
1.6667 0.6111 0.0000
1.6667 0.7222 0.0000
1.6667 0.8333 0.0000
1.6667 0.9444 0.0000
1.8889 0.0556 0.0000
1.8889 0.1667 0.0000
1.8889 0.2778 0.0000
1.8889 0.3889 0.0000
1.8889 0.5000 0.0000
1.8889 0.6111 0.0000
1.8889 0.7222 0.0000
1.8889 0.8333 0.0000
1.8889 0.9444 0.0000
0.0000 0.0556 0.0000
0.0556 0.0278 0.0000
0.0556 0.0833 0.0000
0.0000 0.1667 0.0000
0.0556 0.1389 0.0000
0.0556 0.1944 0.0000
0.0000 0.2778 0.0000
0.0556 0.2500 0.0000
0.0556 0.3056 0.0000
0.0000 0.3889 0.0000
0.0556 0.3611 0.0000
0.0556 0.4167 0.0000
0.0000 0.5000 0.0000
0.0556 0.4722 0.0000
0.0556 0.5278 0.0000
0.0000 0.6111 0.0000
0.0556 0.5833 0.0000
0.0556 0.6389 0.0000
0.0000 0.7222 0.0000
0.0556 0.6944 0.0000
0.0556 0.7500 0.0000
0.0000 0.8333 0.0000
0.0556 0.8056 0.0000
0.0556 0.8611 0.0000
0.0000 0.9444 0.0000
0.0556 0.9167 0.0000
0.0556 0.9722 0.0000
0.2222 0.0556 0.0000
0.2778 0.0278 0.0000
0.2778 0.0833 0.0000
0.2222 0.1667 0.0000
0.2778 0.1389 0.0000
0.2778 0.1944 0.0000
0.2222 0.2778 0.0000
0.2778 0.2500 0.0000
0.2778 0.3056 0.0000
0.2222 0.3889 0.0000
0.2778 0.3611 0.0000
0.2778 0.4167 0.0000
0.2222 0.5000 0.0000
0.2778 0.4722 0.0000
0.2778 0.5278 0.0000
0.2222 0.6111 0.0000
0.2778 0.5833 0.0000
0.2778 0.6389 0.0000
0.2222 0.7222 0.0000
0.2778 0.6944 0.0000
0.2778 0.7500 0.0000
0.2222 0.8333 0.0000
0.2778 0.8056 0.0000
0.2778 0.8611 0.0000
0.2222 0.9444 0.0000
0.2778 0.9167 0.0000
0.2778 0.9722 0.0000
0.4444 0.0556 0.0000
0.5000 0.0278 0.0000
0.5000 0.0833 0.0000
0.4444 0.1667 0.0000
0.5000 0.1389 0.0000
0.5000 0.1944 0.0000
0.4444 0.2778 0.0000
0.5000 0.2500 0.0000
0.5000 0.3056 0.0000
0.4444 0.3889 0.0000
0.5000 0.3611 0.0000
0.5000 0.4167 0.0000
0.4444 0.5000 0.0000
0.5000 0.4722 0.0000
0.5000 0.5278 0.0000
0.4444 0.6111 0.0000
0.5000 0.5833 0.0000
0.5000 0.6389 0.0000
0.4444 0.7222 0.0000
0.5000 0.6944 0.0000
0.5000 0.7500 0.0000
0.4444 0.8333 0.0000
0.5000 0.8056 0.0000
0.5000 0.8611 0.0000
0.4444 0.9444 0.0000
0.5000 0.9167 0.0000
0.5000 0.9722 0.0000
0.6667 0.0556 0.0000
0.7222 0.0278 0.0000
0.7222 0.0833 0.0000
0.6667 0.1667 0.0000
0.7222 0.1389 0.0000
0.7222 0.1944 0.0000
0.6667 0.2778 0.0000
0.7222 0.2500 0.0000
0.7222 0.3056 0.0000
0.6667 0.3889 0.0000
0.7222 0.3611 0.0000
0.7222 0.4167 0.0000
0.6667 0.5000 0.0000
0.7222 0.4722 0.0000
0.7222 0.5278 0.0000
0.6667 0.6111 0.0000
0.7222 0.5833 0.0000
0.7222 0.6389 0.0000
0.6667 0.7222 0.0000
0.7222 0.6944 0.0000
0.7222 0.7500 0.0000
0.6667 0.8333 0.0000
0.7222 0.8056 0.0000
0.7222 0.8611 0.0000
0.6667 0.9444 0.0000
0.7222 0.9167 0.0000
0.7222 0.9722 0.0000
0.8889 0.0556 0.0000
0.9444 0.0278 0.0000
0.9444 0.0833 0.0000
0.8889 0.1667 0.0000
0.9444 0.1389 0.0000
0.9444 0.1944 0.0000
0.8889 0.2778 0.0000
0.9444 0.2500 0.0000
0.9444 0.3056 0.0000
0.8889 0.3889 0.0000
0.9444 0.3611 0.0000
0.9444 0.4167 0.0000
0.8889 0.5000 0.0000
0.9444 0.4722 0.0000
0.9444 0.5278 0.0000
0.8889 0.6111 0.0000
0.9444 0.5833 0.0000
0.9444 0.6389 0.0000
0.8889 0.7222 0.0000
0.9444 0.6944 0.0000
0.9444 0.7500 0.0000
0.8889 0.8333 0.0000
0.9444 0.8056 0.0000
0.9444 0.8611 0.0000
0.8889 0.9444 0.0000
0.9444 0.9167 0.0000
0.9444 0.9722 0.0000
1.1111 0.0556 0.0000
1.1667 0.0278 0.0000
1.1667 0.0833 0.0000
1.1111 0.1667 0.0000
1.1667 0.1389 0.0000
1.1667 0.1944 0.0000
1.1111 0.2778 0.0000
1.1667 0.2500 0.0000
1.1667 0.3056 0.0000
1.1111 0.3889 0.0000
1.1667 0.3611 0.0000
1.1667 0.4167 0.0000
1.1111 0.5000 0.0000
1.1667 0.4722 0.0000
1.1667 0.5278 0.0000
1.1111 0.6111 0.0000
1.1667 0.5833 0.0000
1.1667 0.6389 0.0000
1.1111 0.7222 0.0000
1.1667 0.6944 0.0000
1.1667 0.7500 0.0000
1.1111 0.8333 0.0000
1.1667 0.8056 0.0000
1.1667 0.8611 0.0000
1.1111 0.9444 0.0000
1.1667 0.9167 0.0000
1.1667 0.9722 0.0000
1.3333 0.0556 0.0000
1.3889 0.0278 0.0000
1.3889 0.0833 0.0000
1.3333 0.1667 0.0000
1.3889 0.1389 0.0000
1.3889 0.1944 0.0000
1.3333 0.2778 0.0000
1.3889 0.2500 0.0000
1.3889 0.3056 0.0000
1.3333 0.3889 0.0000
1.3889 0.3611 0.0000
1.3889 0.4167 0.0000
1.3333 0.5000 0.0000
1.3889 0.4722 0.0000
1.3889 0.5278 0.0000
1.3333 0.6111 0.0000
1.3889 0.5833 0.0000
1.3889 0.6389 0.0000
1.3333 0.7222 0.0000
1.3889 0.6944 0.0000
1.3889 0.7500 0.0000
1.3333 0.8333 0.0000
1.3889 0.8056 0.0000
1.3889 0.8611 0.0000
1.3333 0.9444 0.0000
1.3889 0.9167 0.0000
1.3889 0.9722 0.0000
1.5556 0.0556 0.0000
1.6111 0.0278 0.0000
1.6111 0.0833 0.0000
1.5556 0.1667 0.0000
1.6111 0.1389 0.0000
1.6111 0.1944 0.0000
1.5556 0.2778 0.0000
1.6111 0.2500 0.0000
1.6111 0.3056 0.0000
1.5556 0.3889 0.0000
1.6111 0.3611 0.0000
1.6111 0.4167 0.0000
1.5556 0.5000 0.0000
1.6111 0.4722 0.0000
1.6111 0.5278 0.0000
1.5556 0.6111 0.0000
1.6111 0.5833 0.0000
1.6111 0.6389 0.0000
1.5556 0.7222 0.0000
1.6111 0.6944 0.0000
1.6111 0.7500 0.0000
1.5556 0.8333 0.0000
1.6111 0.8056 0.0000
1.6111 0.8611 0.0000
1.5556 0.9444 0.0000
1.6111 0.9167 0.0000
1.6111 0.9722 0.0000
1.7778 0.0556 0.0000
1.8333 0.0278 0.0000
1.8333 0.0833 0.0000
1.7778 0.1667 0.0000
1.8333 0.1389 0.0000
1.8333 0.1944 0.0000
1.7778 0.2778 0.0000
1.8333 0.2500 0.0000
1.8333 0.3056 0.0000
1.7778 0.3889 0.0000
1.8333 0.3611 0.0000
1.8333 0.4167 0.0000
1.7778 0.5000 0.0000
1.8333 0.4722 0.0000
1.8333 0.5278 0.0000
1.7778 0.6111 0.0000
1.8333 0.5833 0.0000
1.8333 0.6389 0.0000
1.7778 0.7222 0.0000
1.8333 0.6944 0.0000
1.8333 0.7500 0.0000
1.7778 0.8333 0.0000
1.8333 0.8056 0.0000
1.8333 0.8611 0.0000
1.7778 0.9444 0.0000
1.8333 0.9167 0.0000
1.8333 0.9722 0.0000
0.1111 0.1111 0.0000
0.1667 0.0833 0.0000
0.1111 0.2222 0.0000
0.1667 0.1944 0.0000
0.1111 0.3333 0.0000
0.1667 0.3056 0.0000
0.1111 0.4444 0.0000
0.1667 0.4167 0.0000
0.1111 0.5556 0.0000
0.1667 0.5278 0.0000
0.1111 0.6667 0.0000
0.1667 0.6389 0.0000
0.1111 0.7778 0.0000
0.1667 0.7500 0.0000
0.1111 0.8889 0.0000
0.1667 0.8611 0.0000
0.1111 1.0000 0.0000
0.1667 0.9722 0.0000
0.3333 0.1111 0.0000
0.3889 0.0833 0.0000
0.3333 0.2222 0.0000
0.3889 0.1944 0.0000
0.3333 0.3333 0.0000
0.3889 0.3056 0.0000
0.3333 0.4444 0.0000
0.3889 0.4167 0.0000
0.3333 0.5556 0.0000
0.3889 0.5278 0.0000
0.3333 0.6667 0.0000
0.3889 0.6389 0.0000
0.3333 0.7778 0.0000
0.3889 0.7500 0.0000
0.3333 0.8889 0.0000
0.3889 0.8611 0.0000
0.3333 1.0000 0.0000
0.3889 0.9722 0.0000
0.5556 0.1111 0.0000
[...]
         <PointData>
            <DataArray Name="fValues" NumberOfComponents="3" format="ascii" type="Float64">
-1.10126e-22        00000        00000 
 7.08396e-23  1.98744e-22        00000 
-9.42239e-22  4.54336e-23        00000 
-6.27103e-23 -8.77944e-22        00000 
 2.32456e-22  7.66042e-23        00000 
 2.63518e-22  6.27103e-23        00000 
 8.85298e-23 -3.67398e-22        00000 
-2.66278e-22  1.56634e-22        00000 
-6.29836e-23  6.88883e-23        00000 
-3.64711e-22  2.91769e-22        00000 
-2.38825e-06 -9.27550e-07        00000 
 1.41429e-06  3.62682e-06        00000 
 2.76189e-06 -1.44142e-06        00000 
-1.37634e-06  2.50884e-07        00000 
 7.20501e-07 -1.58740e-06        00000 
 1.77653e-07  1.65634e-06        00000 
-9.48377e-08  4.28754e-07        00000 
 1.56151e-06  1.18254e-06        00000 
-7.47722e-07 -3.97779e-07        00000 
 1.22755e-07  1.48137e-06        00000 
 1.18544e-06  1.13776e-06        00000 
 3.33536e-06  5.22842e-07        00000 
 2.42651e-06 -3.17842e-06        00000 
-2.76668e-06 -4.21768e-06        00000 
 3.08178e-06 -1.80241e-06        00000 
 3.59472e-06  1.73471e-06        00000 
 3.02558e-06  2.62660e-06        00000 
 1.48402e-06 -4.10710e-06        00000 
 1.08299e-06 -1.42413e-06        00000 
 9.04478e-07 -2.39223e-06        00000 
 2.00255e-06  2.14304e-06        00000 
 4.80197e-07  3.32705e-06        00000 
 1.29982e-06  7.15861e-07        00000 
-4.23047e-06 -8.88658e-07        00000 
 1.54440e-06 -7.43519e-07        00000 
 5.24638e-06  1.14885e-06        00000 
 6.74059e-07  2.98815e-06        00000 
-1.05957e-06  7.62743e-08        00000 
-3.40527e-07 -1.07630e-06        00000 
-2.68687e-06  9.74414e-06        00000 
-3.03449e-06  9.43807e-07        00000 
-2.99993e-07  5.55639e-06        00000 
-1.07880e-06 -2.94329e-06        00000 
 3.80281e-07  1.55044e-06        00000 
-4.26786e-07  1.83145e-06        00000 
-2.64219e-06 -1.23713e-06        00000 
-8.95197e-08  4.53451e-06        00000 
 2.27754e-06  2.07675e-07        00000 
-2.75563e-06 -2.21351e-06        00000 
-2.23240e-06  6.56340e-07        00000 
 1.68400e-06 -8.36508e-06        00000 
-9.83021e-07 -1.09829e-06        00000 
-7.83786e-07  3.76712e-06        00000 
-9.66712e-07  1.11362e-06        00000 
-1.44456e-06 -6.35877e-07        00000 
 1.77839e-06  2.21964e-06        00000 
 1.30994e-06  6.07823e-06        00000 
-1.46897e-06  4.49708e-07        00000 
-4.97549e-06 -3.19038e-06        00000 
-5.78989e-06  7.99162e-07        00000 
 9.74235e-07 -2.93852e-06        00000 
 6.02557e-07 -5.38912e-08        00000 
-7.21704e-08 -1.65265e-06        00000 
 2.11951e-06  4.23233e-06        00000 
 1.65575e-07 -2.28182e-07        00000 
 2.31644e-06 -2.12980e-07        00000 
 1.10804e-06  9.78792e-08        00000 
 7.50902e-08 -1.10902e-07        00000 
-3.20027e-06  1.50841e-06        00000 
 6.96432e-07  2.28147e-06        00000 
 5.59310e-08  1.13265e-07        00000 
 3.05365e-07  1.65861e-06        00000 
 4.54471e-06  7.20436e-07        00000 
 4.33442e-06  3.46113e-06        00000 
 1.03404e-06  2.31362e-06        00000 
-7.25259e-09 -1.79778e-06        00000 
 2.54847e-06 -1.98699e-06        00000 
-1.02204e-06  3.37547e-06        00000 
 1.07999e-06 -2.62830e-06        00000 
-3.56227e-07 -4.47052e-06        00000 
 3.49505e-06 -7.28307e-06        00000 
 2.00787e-06 -1.99891e-06        00000 
 7.39078e-07  2.13247e-07        00000 
 1.35489e-06 -1.77045e-07        00000 
 3.41464e-06  7.13447e-07        00000 
 2.88729e-06  3.98379e-07        00000 
 1.47851e-06  3.74497e-06        00000 
 1.56795e-06  1.84419e-06        00000 
-4.28658e-06  2.97817e-06        00000 
-2.15174e-07  1.35070e-05        00000 
 4.24251e-06 -1.25282e-06        00000 
 3.95881e-06  5.46794e-07        00000 
 1.19019e-06  6.89294e-07        00000 
 2.18148e-06  6.27242e-07        00000 
 6.40621e-06 -1.76090e-06        00000 
 3.08884e-06  1.73710e-07        00000 
 1.40608e-06  3.55030e-06        00000 
 1.46897e-06  3.62319e-06        00000 
 1.42875e-06  1.40856e-06        00000 
 1.50713e-07  2.58525e-07        00000 
-1.07495e-06  1.40782e-06        00000 
 3.07742e-06  7.92850e-07        00000 
 2.91350e-06 -7.58772e-07        00000 
-4.67775e-07  1.72973e-06        00000 
-1.42185e-06  9.02985e-07        00000 
-1.11763e-06 -4.86790e-07        00000 
-3.68089e-07  7.67224e-07        00000 
-7.83227e-07  6.00089e-07        00000 
-1.85069e-06 -3.33846e-07        00000 
-1.02860e-06 -1.00028e-06        00000 
 4.49184e-06  1.79557e-06        00000 
 5.05866e-06 -1.00519e-07        00000 
 4.53818e-07 -2.11505e-06        00000 
-1.20018e-06 -1.03878e-06        00000 
 5.68291e-07  3.39564e-06        00000 
-1.82329e-07  3.03274e-06        00000 
 1.13566e-06  5.20939e-08        00000 
 2.02460e-06 -1.13246e-07        00000 
 2.57840e-06  2.70433e-07        00000 
 6.94436e-07 -1.76195e-06        00000 
-4.13071e-07 -2.20528e-06        00000 
-8.85622e-08 -2.62985e-07        00000 
-3.99830e-07 -2.86449e-06        00000 
 2.75288e-06  2.17637e-06        00000 
 2.21525e-07  1.07689e-06        00000 
 2.33847e-06  8.46265e-07        00000 
 4.60999e-06 -1.38440e-06        00000 
-1.72982e-06 -2.56801e-06        00000 
-1.44219e-06  6.12337e-07        00000 
-2.82521e-06  2.56545e-07        00000 
 2.33714e-06 -2.62734e-08        00000 
-6.26264e-07 -3.68257e-06        00000 
-2.09099e-07 -1.53123e-06        00000 
 1.19709e-06 -3.43650e-06        00000 
-9.65008e-07 -1.50525e-06        00000 
-3.51909e-06 -2.21004e-06        00000 
-7.62730e-07  2.15730e-06        00000 
 1.49350e-06  3.81222e-06        00000 
-1.11609e-06  2.82681e-06        00000 
 6.34815e-07 -2.58891e-06        00000 
 6.79225e-07 -1.77775e-06        00000 
 1.93250e-07 -2.35645e-06        00000 
-3.77537e-06 -6.25452e-07        00000 
-1.53826e-06  4.87346e-07        00000 
 1.51008e-06  1.35869e-06        00000 
-2.79169e-06  1.38408e-06        00000 
-2.03288e-06 -6.57058e-08        00000 
-1.93418e-06 -9.36405e-07        00000 
 2.62597e-06 -1.97579e-06        00000 
 2.79108e-06 -3.00636e-07        00000 
 9.05427e-07  1.51977e-07        00000 
-2.77962e-07  1.78568e-06        00000 
 2.21699e-06 -3.95798e-07        00000 
-2.97462e-06 -1.32981e-06        00000 
-6.25084e-07  1.60900e-06        00000 
 2.34768e-07  1.87474e-07        00000 
-3.34547e-06  1.19460e-06        00000 
 1.93102e-06 -8.63156e-07        00000 
-4.40337e-06 -2.57708e-06        00000 
-3.92904e-06 -3.89192e-06        00000 
 3.73228e-07 -2.55561e-07        00000 
-1.42029e-06  2.19977e-06        00000 
-2.30858e-06  3.50336e-06        00000 
 2.09566e-06  6.18373e-06        00000 
 1.14145e-06  8.30368e-07        00000 
 5.73330e-07 -1.04620e-06        00000 
 9.03592e-07 -2.32481e-06        00000 
 9.54745e-07 -4.31928e-07        00000 
 2.46479e-06  3.11946e-06        00000 
 4.67298e-06  1.87530e-06        00000 
 4.44011e-06 -1.11443e-06        00000 
 2.57938e-06  7.12344e-07        00000 
-1.54006e-06  8.77716e-07        00000 
 3.22393e-07  3.07280e-06        00000 
-8.14069e-07 -1.96378e-08        00000 
 2.38953e-06  4.65100e-07        00000 
 2.57915e-06  3.23304e-06        00000 
-3.50703e-07  3.91053e-06        00000 
 2.17609e-07  3.79514e-06        00000 
 1.59176e-06  6.38549e-06        00000 
-2.12895e-07 -1.60622e-06        00000 
 5.58860e-23 -3.47162e-22        00000 
-5.07238e-07  1.70502e-06        00000 
 1.94936e-06 -3.15531e-06        00000 
-8.11882e-23  1.11542e-22        00000 
-6.26815e-07 -1.08106e-06        00000 
 9.85143e-07 -6.24226e-07        00000 
-2.38228e-22 -7.14684e-22        00000 
-4.06050e-06 -1.01748e-06        00000 
 9.34095e-07 -2.46651e-06        00000 
 4.37713e-22 -1.27674e-23        00000 
-1.62652e-06 -2.61533e-06        00000 
 3.01070e-06 -9.66018e-07        00000 
-5.95570e-23  2.38228e-22        00000 
 1.12793e-06  1.07642e-06        00000 
 1.48198e-06 -7.47506e-08        00000 
-1.64229e-22 -1.76995e-22        00000 
 9.98864e-10 -1.20039e-06        00000 
-8.49846e-07 -2.13311e-06        00000 
-5.95570e-23        00000        00000 
-8.81931e-07  2.58673e-06        00000 
 8.46582e-07 -1.76533e-06        00000 
       00000        00000        00000 
-1.93899e-06  1.36412e-06        00000 
-1.80571e-06 -4.76075e-08        00000 
 3.38029e-22 -2.61346e-22        00000 
-1.21044e-06  1.15661e-06        00000 
-9.46401e-07 -1.92340e-06        00000 
-3.67202e-06  6.38838e-07        00000 
-1.92636e-06  4.92796e-07        00000 
 9.66031e-07  2.45634e-06        00000 
-5.45997e-07 -9.84154e-07        00000 
 9.57346e-07  4.45171e-06        00000 
-3.83936e-06 -8.96881e-07        00000 
-2.29363e-06 -4.12765e-06        00000 
-1.26385e-06  2.05536e-06        00000 
-8.21090e-08 -2.57485e-06        00000 
-1.70967e-06 -1.44234e-07        00000 
 2.57584e-06 -1.03929e-06        00000 
-3.07519e-06 -3.22443e-06        00000 
-3.83569e-06 -1.34104e-06        00000 
-5.60022e-07  2.10361e-06        00000 
-2.02593e-06  4.22310e-06        00000 
-1.28217e-06 -3.04368e-06        00000 
 4.92900e-07  1.10096e-06        00000 
-1.46135e-06  1.71023e-06        00000 
-9.25995e-07 -6.14907e-06        00000 
-1.05548e-06  2.76010e-06        00000 
-2.10496e-06  9.92809e-07        00000 
-2.23714e-06  1.73174e-06        00000 
 1.37007e-06  4.64042e-07        00000 
-2.07414e-06 -5.59890e-07        00000 
-2.02464e-06  3.44253e-06        00000 
-4.92409e-07 -6.35215e-07        00000 
-2.06556e-06  3.89450e-06        00000 
 1.13299e-06 -2.90193e-06        00000 
 4.01404e-06 -5.04180e-06        00000 
 7.09670e-07  5.43867e-07        00000 
 1.20268e-06 -3.00425e-06        00000 
 1.02740e-06 -1.21916e-06        00000 
-2.41493e-06 -2.80309e-06        00000 
-1.58039e-06 -2.52476e-06        00000 
 4.54626e-08  4.54387e-07        00000 
 1.20437e-06 -8.03535e-07        00000 
 3.43400e-06  6.98364e-07        00000 
-1.18859e-07 -9.32948e-07        00000 
-2.08777e-08 -2.80176e-06        00000 
 5.12067e-06  1.38009e-06        00000 
-4.50256e-06 -1.44572e-07        00000 
 5.22584e-07 -1.32198e-06        00000 
 2.34470e-06  1.30499e-06        00000 
-1.26647e-06  7.90987e-08        00000 
-4.44962e-06  7.20790e-07        00000 
 3.42808e-07 -3.00453e-06        00000 
-3.39417e-06 -4.81287e-06        00000 
-3.44571e-06  2.04420e-06        00000 
 1.68076e-06 -2.67577e-06        00000 
-2.66573e-06 -4.44832e-07        00000 
-3.17795e-07 -4.17338e-07        00000 
 1.87840e-07  5.24537e-06        00000 
 3.71163e-06 -2.30191e-06        00000 
 2.71365e-06 -3.72979e-06        00000 
-1.17579e-06  2.56102e-08        00000 
 1.77586e-06 -1.10931e-06        00000 
 1.32261e-06  1.81344e-06        00000 
 6.89418e-07 -2.35866e-06        00000 
-8.31387e-07  2.28056e-06        00000 
-1.57460e-06 -2.25760e-06        00000 
-2.15729e-06 -1.22773e-06        00000 
 7.45060e-07  1.38591e-06        00000 
 1.60028e-06  2.11014e-06        00000 
-3.12508e-06  2.87512e-07        00000 
 7.79964e-07 -2.90229e-06        00000 
 7.11235e-07 -2.00968e-06        00000 
-2.99683e-06 -1.36678e-06        00000 
-1.08414e-06  1.39635e-06        00000 
-1.04205e-07 -7.44969e-07        00000 
-1.31034e-06 -1.30253e-06        00000 
-9.66751e-07 -3.33228e-06        00000 
-9.45092e-07 -8.81314e-07        00000 
-4.68233e-06 -4.83647e-06        00000 
-1.19400e-06 -1.86084e-07        00000 
-6.89655e-06 -2.58312e-06        00000 
-1.21680e-06 -1.15605e-06        00000 
-2.11725e-06  2.97679e-06        00000 
-2.26802e-07 -8.42219e-07        00000 
-4.48458e-06  1.63320e-06        00000 
 5.41485e-06  6.29066e-06        00000 
 9.82546e-07 -5.29501e-06        00000 
-2.58014e-06 -4.52914e-07        00000 
 2.43913e-07  2.15172e-06        00000 
-1.65266e-06  9.77703e-07        00000 
 4.87656e-06  2.60844e-06        00000 
 1.44064e-06  3.36294e-06        00000 
-2.93167e-06 -1.36378e-06        00000 
-6.01686e-07  9.68717e-07        00000 
-1.49652e-06  3.63546e-06        00000 
-1.90390e-06  3.40132e-06        00000 
 1.84202e-06  3.44808e-06        00000 
 7.58336e-07 -2.70476e-06        00000 
-3.02991e-06 -1.41811e-06        00000 
-2.76691e-06  2.77871e-07        00000 
-2.18732e-06 -1.26914e-06        00000 
-1.74802e-06 -1.98360e-06        00000 
-3.10066e-06 -1.55197e-06        00000 
-6.91270e-07 -2.26834e-06        00000 
-9.67671e-07 -1.95700e-06        00000 
-1.11989e-06 -4.01369e-07        00000 
-1.07135e-06 -1.23068e-07        00000 
-3.89808e-07  3.02340e-06        00000 
-6.73840e-06  9.88148e-07        00000 
 1.78546e-06 -1.09675e-06        00000 
 2.11753e-07 -1.23964e-06        00000 
-2.78632e-06  2.01873e-06        00000 
 5.12446e-06 -3.87742e-07        00000 
 1.52655e-06  1.04600e-06        00000 
-1.84710e-06  3.69477e-07        00000 
-4.90884e-07  8.90953e-06        00000 
-2.97615e-07 -2.21077e-06        00000 
 7.95023e-07 -2.67112e-06        00000 
-1.21863e-06  4.68929e-06        00000 
-3.09949e-07 -4.33375e-07        00000 
 1.46206e-06  2.27343e-06        00000 
-1.55814e-06  3.42688e-06        00000 
-1.26451e-06 -1.86015e-08        00000 
 7.11505e-07  1.76958e-06        00000 
 9.63898e-07 -6.64892e-07        00000 
-1.19737e-06  2.22600e-07        00000 
 6.44692e-07  3.77074e-06        00000 
-1.59552e-06 -2.41242e-08        00000 
-3.91619e-06 -1.98521e-06        00000 
 1.48750e-06  2.43218e-06        00000 
 1.04555e-06 -3.39150e-06        00000 
-1.35691e-06  4.12434e-08        00000 
 1.19053e-06  4.50988e-06        00000 
-6.23053e-08 -4.77141e-08        00000 
-2.68066e-06 -1.25972e-06        00000 
-3.70532e-06  2.59072e-06        00000 
-2.59185e-06 -1.47894e-07        00000 
 1.95466e-06 -1.83263e-06        00000 
-5.40568e-06 -1.24959e-07        00000 
-2.40388e-06  2.39008e-07        00000 
-1.15968e-06 -6.33309e-06        00000 
-2.51952e-06  1.04670e-06        00000 
 6.55262e-07  2.53616e-06        00000 
-3.47201e-06  2.31551e-06        00000 
-1.15448e-06  5.63350e-06        00000 
-8.49248e-07 -2.67980e-06        00000 
-4.29477e-07  2.23561e-06        00000 
-4.03498e-06  4.16115e-06        00000 
 2.82805e-07  8.04934e-07        00000 
-1.95068e-06  7.71712e-08        00000 
-1.76084e-06 -3.20557e-07        00000 
-7.98208e-07 -1.32877e-06        00000 
-3.12958e-06  8.88402e-07        00000 
-1.40338e-06  2.74146e-06        00000 
 2.66797e-06 -1.16029e-06        00000 
-4.67327e-06 -9.49270e-07        00000 
-2.55347e-07  2.07775e-06        00000 
-3.58287e-06  1.78564e-06        00000 
-4.58859e-07  4.15359e-07        00000 
-2.55517e-07  1.64669e-06        00000 
-1.18867e-06  3.63610e-06        00000 
-3.73593e-06  1.19906e-07        00000 
-4.97573e-06  8.16943e-07        00000 
-3.74936e-07  3.36667e-06        00000 
-6.41550e-07  3.77907e-06        00000 
-3.49696e-06 -8.36072e-07        00000 
 2.54619e-06  4.61945e-06        00000 
 6.23620e-07 -1.95138e-07        00000 
 8.00663e-08  2.19070e-06        00000 
-9.74819e-07  5.34903e-06        00000 
 1.54425e-06  3.55912e-06        00000 
 1.42508e-06  3.13083e-06        00000 
 1.61583e-06  4.11581e-06        00000 
-1.62762e-06 -1.04734e-07        00000 
 4.10569e-06  3.57996e-06        00000 
-1.46683e-07  8.03360e-07        00000 
 1.01288e-06 -1.27137e-08        00000 
 2.61613e-06  2.83459e-06        00000 
-1.31213e-07  1.81470e-06        00000 
-8.66530e-06  2.92077e-07        00000 
-1.83568e-07 -9.60259e-07        00000 
-3.08663e-06  2.97259e-06        00000 
-4.10148e-06  2.87147e-06        00000 
 1.50010e-06 -1.73042e-06        00000 
-2.74200e-06  2.84835e-06        00000 
-2.65292e-06 -1.17550e-06        00000 
 2.18780e-06 -1.83824e-06        00000 
-9.41851e-08  3.90427e-06        00000 
-1.72193e-06  7.98363e-07        00000 
-1.12445e-06 -3.12092e-07        00000 
 2.57364e-07  8.56205e-07        00000 
-3.30088e-06  3.11499e-06        00000 
 3.99677e-06  3.39855e-06        00000 
 6.83078e-07  1.38149e-06        00000 
 8.32811e-07  8.20744e-06        00000 
 7.34194e-07  6.87952e-07        00000 
 2.91676e-06  5.99088e-06        00000 
 1.59393e-06 -3.62705e-06        00000 
-3.10931e-07  7.79906e-07        00000 
-3.00367e-07  1.35012e-06        00000 
 5.44850e-07 -1.76322e-06        00000 
 1.47854e-06  3.54774e-06        00000 
 1.08292e-06  5.78468e-06        00000 
-2.78768e-06  8.49590e-07        00000 
-1.24123e-06  9.28617e-07        00000 
-1.90394e-06  3.62942e-06        00000 
-3.13255e-07  2.07197e-06        00000 
 1.54734e-06  3.42145e-06        00000 
 7.26222e-07  2.99910e-06        00000 
-2.00648e-06  2.02832e-06        00000 
-4.65075e-07 -2.46595e-06        00000 
 4.83094e-07  1.08927e-06        00000 
-5.70586e-07  6.70702e-07        00000 
 8.53793e-07  2.46586e-07        00000 
-3.57342e-06 -1.69023e-07        00000 
 1.59060e-06  2.06561e-06        00000 
 4.06126e-08  1.61360e-06        00000 
-8.90596e-07  2.55166e-06        00000 
 2.87673e-06 -5.03418e-06        00000 
 2.95675e-06 -2.20458e-06        00000 
-1.21939e-06  8.94412e-06        00000 
 2.66117e-06 -1.45355e-05        00000 
-1.57855e-06  3.69225e-07        00000 
-1.81800e-06 -4.31180e-06        00000 
 3.32071e-06 -3.26703e-06        00000 
 3.50161e-06  2.91812e-06        00000 
-7.05490e-08 -7.29168e-07        00000 
-1.34079e-07  2.33990e-07        00000 
 1.37149e-07 -2.87418e-06        00000 
-5.50649e-07 -2.28578e-06        00000 
-1.62863e-07  5.98411e-07        00000 
-1.21720e-06  1.22187e-06        00000 
-5.43368e-07  3.00260e-06        00000 
-3.63885e-07  1.48708e-06        00000 
 2.75476e-06 -1.23145e-06        00000 
-1.97364e-06 -1.06831e-06        00000 
-1.41551e-06  5.71581e-07        00000 
 2.91497e-06  1.50538e-06        00000 
-1.38142e-06  2.49636e-06        00000 
 1.80265e-07  2.74881e-06        00000 
 2.79217e-06 -1.13715e-06        00000 
 2.39971e-06 -3.86284e-06        00000 
 2.41437e-06  5.04821e-07        00000 
 2.63470e-06 -1.69483e-06        00000 
-4.37041e-07  1.35143e-06        00000 
-5.78432e-07 -8.10294e-07        00000 
-9.08224e-07  6.50342e-07        00000 
 7.46854e-07  7.88815e-08        00000 
-1.43305e-06  3.01023e-06        00000 
 1.17430e-07  1.85384e-06        00000 
-2.36822e-06  1.48719e-06        00000 
-1.68134e-06  7.29045e-07        00000 
-3.34335e-07  1.68585e-06        00000 
-1.23907e-06 -5.34894e-08        00000 
-1.40717e-06 -2.98408e-06        00000 
 1.01502e-06  2.14219e-07        00000 
 9.61897e-09 -4.50746e-06        00000 
 4.04923e-06  5.26848e-06        00000 
-4.61576e-07  2.32417e-06        00000 
 2.12703e-07 -2.42229e-07        00000 
 1.45603e-06  5.24837e-08        00000 
 2.42617e-07  3.09332e-06        00000 
-7.30215e-07  2.78624e-06        00000 
 3.98005e-06  2.77409e-06        00000 
-1.01297e-06  2.97748e-08        00000 
 2.00916e-06 -1.76678e-06        00000 
-1.29201e-06  1.25871e-06        00000 
 3.44592e-06  3.08109e-06        00000 
-8.92667e-07  2.20299e-06        00000 
 8.18349e-07  3.34286e-06        00000 
 1.12110e-06  2.24273e-06        00000 
-6.08825e-08  2.39909e-06        00000 
 2.50095e-06  1.70158e-06        00000 
 1.47934e-06 -1.35869e-06        00000 
 1.33579e-06  2.61410e-06        00000 
 1.08793e-09 -1.53018e-06        00000 
 2.27821e-07  7.13700e-06        00000 
 3.74342e-09 -1.47000e-06        00000 
 9.03717e-07  3.34382e-06        00000 
-2.47723e-06  5.65214e-06        00000 
-2.61972e-06  2.52912e-06        00000 
-1.79715e-06  2.39084e-06        00000 
 7.19265e-07 -1.00575e-06        00000 
 1.22436e-07  1.32041e-07        00000 
 2.32921e-06 -4.13250e-07        00000 
 1.26671e-06  3.13282e-06        00000 
 2.50758e-07  2.97679e-06        00000 
-6.18845e-06  2.91413e-06        00000 
-5.75106e-08 -7.43501e-07        00000 
-3.76026e-08  1.40510e-06        00000 
-1.47545e-06  3.21518e-06        00000 
-5.01713e-07 -8.83251e-07        00000 
 4.73761e-07  5.81052e-06        00000 
-1.56357e-06 -4.18073e-06        00000 
-1.50862e-06  3.11660e-06        00000 