<?xml version="1.0" encoding="utf-8"?>
<VTKFile byte_order="LittleEndian" type="UnstructuredGrid" version="0.1">
   <UnstructuredGrid>
      <Piece NumberOfCells="1296" NumberOfPoints="685">
         <Points>
            <DataArray Name="Points" NumberOfComponents="3" format="ascii" type="Float32">
0.0000 0.0000 0.0000
0.0000 0.1111 0.0000
0.0000 0.2222 0.0000
0.0000 0.3333 0.0000
0.0000 0.4444 0.0000
0.0000 0.5556 0.0000
0.0000 0.6667 0.0000
0.0000 0.7778 0.0000
0.0000 0.8889 0.0000
0.0000 1.0000 0.0000
0.2222 0.0000 0.0000
0.2222 0.1111 0.0000
0.2222 0.2222 0.0000
0.2222 0.3333 0.0000
0.2222 0.4444 0.0000
0.2222 0.5556 0.0000
0.2222 0.6667 0.0000
0.2222 0.7778 0.0000
0.2222 0.8889 0.0000
0.2222 1.0000 0.0000
0.4444 0.0000 0.0000
0.4444 0.1111 0.0000
0.4444 0.2222 0.0000
0.4444 0.3333 0.0000
0.4444 0.4444 0.0000
0.4444 0.5556 0.0000
0.4444 0.6667 0.0000
0.4444 0.7778 0.0000
0.4444 0.8889 0.0000
0.4444 1.0000 0.0000
0.6667 0.0000 0.0000
0.6667 0.1111 0.0000
0.6667 0.2222 0.0000
0.6667 0.3333 0.0000
0.6667 0.4444 0.0000
0.6667 0.5556 0.0000
0.6667 0.6667 0.0000
0.6667 0.7778 0.0000
0.6667 0.8889 0.0000
0.6667 1.0000 0.0000
0.8889 0.0000 0.0000
0.8889 0.1111 0.0000
0.8889 0.2222 0.0000
0.8889 0.3333 0.0000
0.8889 0.4444 0.0000
0.8889 0.5556 0.0000
0.8889 0.6667 0.0000
0.8889 0.7778 0.0000
0.8889 0.8889 0.0000
0.8889 1.0000 0.0000
1.1111 0.0000 0.0000
1.1111 0.1111 0.0000
1.1111 0.2222 0.0000
1.1111 0.3333 0.0000
1.1111 0.4444 0.0000
1.1111 0.5556 0.0000
1.1111 0.6667 0.0000
1.1111 0.7778 0.0000
1.1111 0.8889 0.0000
1.1111 1.0000 0.0000
1.3333 0.0000 0.0000
1.3333 0.1111 0.0000
1.3333 0.2222 0.0000
1.3333 0.3333 0.0000
1.3333 0.4444 0.0000
1.3333 0.5556 0.0000
1.3333 0.6667 0.0000
1.3333 0.7778 0.0000
1.3333 0.8889 0.0000
1.3333 1.0000 0.0000
1.5556 0.0000 0.0000
1.5556 0.1111 0.0000
1.5556 0.2222 0.0000
1.5556 0.3333 0.0000
1.5556 0.4444 0.0000
1.5556 0.5556 0.0000
1.5556 0.6667 0.0000
1.5556 0.7778 0.0000
1.5556 0.8889 0.0000
1.5556 1.0000 0.0000
1.7778 0.0000 0.0000
1.7778 0.1111 0.0000
1.7778 0.2222 0.0000
1.7778 0.3333 0.0000
1.7778 0.4444 0.0000
1.7778 0.5556 0.0000
1.7778 0.6667 0.0000
1.7778 0.7778 0.0000
1.7778 0.8889 0.0000
1.7778 1.0000 0.0000
2.0000 0.0000 0.0000
2.0000 0.1111 0.0000
2.0000 0.2222 0.0000
2.0000 0.3333 0.0000
2.0000 0.4444 0.0000
2.0000 0.5556 0.0000
2.0000 0.6667 0.0000
2.0000 0.7778 0.0000
2.0000 0.8889 0.0000
2.0000 1.0000 0.0000
0.1111 0.0556 0.0000
0.1111 0.1667 0.0000
0.1111 0.2778 0.0000
0.1111 0.3889 0.0000
0.1111 0.5000 0.0000
0.1111 0.6111 0.0000
0.1111 0.7222 0.0000
0.1111 0.8333 0.0000
0.1111 0.9444 0.0000
0.3333 0.0556 0.0000
0.3333 0.1667 0.0000
0.3333 0.2778 0.0000
0.3333 0.3889 0.0000
0.3333 0.5000 0.0000
0.3333 0.6111 0.0000
0.3333 0.7222 0.0000
0.3333 0.8333 0.0000
0.3333 0.9444 0.0000
0.5556 0.0556 0.0000
0.5556 0.1667 0.0000
0.5556 0.2778 0.0000
0.5556 0.3889 0.0000
0.5556 0.5000 0.0000
0.5556 0.6111 0.0000
0.5556 0.7222 0.0000
0.5556 0.8333 0.0000
0.5556 0.9444 0.0000
0.7778 0.0556 0.0000
0.7778 0.1667 0.0000
0.7778 0.2778 0.0000
0.7778 0.3889 0.0000
0.7778 0.5000 0.0000
0.7778 0.6111 0.0000
0.7778 0.7222 0.0000
0.7778 0.8333 0.0000
0.7778 0.9444 0.0000
1.0000 0.0556 0.0000
1.0000 0.1667 0.0000
1.0000 0.2778 0.0000
1.0000 0.3889 0.0000
1.0000 0.5000 0.0000
1.0000 0.6111 0.0000
1.0000 0.7222 0.0000
1.0000 0.8333 0.0000
1.0000 0.9444 0.0000
1.2222 0.0556 0.0000
1.2222 0.1667 0.0000
1.2222 0.2778 0.0000
1.2222 0.3889 0.0000
1.2222 0.5000 0.0000
1.2222 0.6111 0.0000
1.2222 0.7222 0.0000
1.2222 0.8333 0.0000
1.2222 0.9444 0.0000
1.4444 0.0556 0.0000
1.4444 0.1667 0.0000
1.4444 0.2778 0.0000
1.4444 0.3889 0.0000
1.4444 0.5000 0.0000
1.4444 0.6111 0.0000
1.4444 0.7222 0.0000
1.4444 0.8333 0.0000
1.4444 0.9444 0.0000
1.6667 0.0556 0.0000
1.6667 0.1667 0.0000
1.6667 0.2778 0.0000
1.6667 0.3889 0.0000
1.6667 0.5000 0.0000
1.6667 0.6111 0.0000
1.6667 0.7222 0.0000
1.6667 0.8333 0.0000
1.6667 0.9444 0.0000
1.8889 0.0556 0.0000
1.8889 0.1667 0.0000
1.8889 0.2778 0.0000
1.8889 0.3889 0.0000
1.8889 0.5000 0.0000
1.8889 0.6111 0.0000
1.8889 0.7222 0.0000
1.8889 0.8333 0.0000
1.8889 0.9444 0.0000
0.0000 0.0556 0.0000
0.0556 0.0278 0.0000
0.0556 0.0833 0.0000
0.0000 0.1667 0.0000
0.0556 0.1389 0.0000
0.0556 0.1944 0.0000
0.0000 0.2778 0.0000
0.0556 0.2500 0.0000
0.0556 0.3056 0.0000
0.0000 0.3889 0.0000
0.0556 0.3611 0.0000
0.0556 0.4167 0.0000
0.0000 0.5000 0.0000
0.0556 0.4722 0.0000
0.0556 0.5278 0.0000
0.0000 0.6111 0.0000
0.0556 0.5833 0.0000
0.0556 0.6389 0.0000
0.0000 0.7222 0.0000
0.0556 0.6944 0.0000
0.0556 0.7500 0.0000
0.0000 0.8333 0.0000
0.0556 0.8056 0.0000
0.0556 0.8611 0.0000
0.0000 0.9444 0.0000
0.0556 0.9167 0.0000
0.0556 0.9722 0.0000
0.2222 0.0556 0.0000
0.2778 0.0278 0.0000
0.2778 0.0833 0.0000
0.2222 0.1667 0.0000
0.2778 0.1389 0.0000
0.2778 0.1944 0.0000
0.2222 0.2778 0.0000
0.2778 0.2500 0.0000
0.2778 0.3056 0.0000
0.2222 0.3889 0.0000
0.2778 0.3611 0.0000
0.2778 0.4167 0.0000
0.2222 0.5000 0.0000
0.2778 0.4722 0.0000
0.2778 0.5278 0.0000
0.2222 0.6111 0.0000
0.2778 0.5833 0.0000
0.2778 0.6389 0.0000
0.2222 0.7222 0.0000
0.2778 0.6944 0.0000
0.2778 0.7500 0.0000
0.2222 0.8333 0.0000
0.2778 0.8056 0.0000
0.2778 0.8611 0.0000
0.2222 0.9444 0.0000
0.2778 0.9167 0.0000
0.2778 0.9722 0.0000
0.4444 0.0556 0.0000
0.5000 0.0278 0.0000
0.5000 0.0833 0.0000
0.4444 0.1667 0.0000
0.5000 0.1389 0.0000
0.5000 0.1944 0.0000
0.4444 0.2778 0.0000
0.5000 0.2500 0.0000
0.5000 0.3056 0.0000
0.4444 0.3889 0.0000
0.5000 0.3611 0.0000
0.5000 0.4167 0.0000
0.4444 0.5000 0.0000
0.5000 0.4722 0.0000
0.5000 0.5278 0.0000
0.4444 0.6111 0.0000
0.5000 0.5833 0.0000
0.5000 0.6389 0.0000
0.4444 0.7222 0.0000
0.5000 0.6944 0.0000
0.5000 0.7500 0.0000
0.4444 0.8333 0.0000
0.5000 0.8056 0.0000
0.5000 0.8611 0.0000
0.4444 0.9444 0.0000
0.5000 0.9167 0.0000
0.5000 0.9722 0.0000
0.6667 0.0556 0.0000
0.7222 0.0278 0.0000
0.7222 0.0833 0.0000
0.6667 0.1667 0.0000
0.7222 0.1389 0.0000
0.7222 0.1944 0.0000
0.6667 0.2778 0.0000
0.7222 0.2500 0.0000
0.7222 0.3056 0.0000
0.6667 0.3889 0.0000
0.7222 0.3611 0.0000
0.7222 0.4167 0.0000
0.6667 0.5000 0.0000
0.7222 0.4722 0.0000
0.7222 0.5278 0.0000
0.6667 0.6111 0.0000
0.7222 0.5833 0.0000
0.7222 0.6389 0.0000
0.6667 0.7222 0.0000
0.7222 0.6944 0.0000
0.7222 0.7500 0.0000
0.6667 0.8333 0.0000
0.7222 0.8056 0.0000
0.7222 0.8611 0.0000
0.6667 0.9444 0.0000
0.7222 0.9167 0.0000
0.7222 0.9722 0.0000
0.8889 0.0556 0.0000
0.9444 0.0278 0.0000
0.9444 0.0833 0.0000
0.8889 0.1667 0.0000
0.9444 0.1389 0.0000
0.9444 0.1944 0.0000
0.8889 0.2778 0.0000
0.9444 0.2500 0.0000
0.9444 0.3056 0.0000
0.8889 0.3889 0.0000
0.9444 0.3611 0.0000
0.9444 0.4167 0.0000
0.8889 0.5000 0.0000
0.9444 0.4722 0.0000
0.9444 0.5278 0.0000
0.8889 0.6111 0.0000
0.9444 0.5833 0.0000
0.9444 0.6389 0.0000
0.8889 0.7222 0.0000
0.9444 0.6944 0.0000
0.9444 0.7500 0.0000
0.8889 0.8333 0.0000
0.9444 0.8056 0.0000
0.9444 0.8611 0.0000
0.8889 0.9444 0.0000
0.9444 0.9167 0.0000
0.9444 0.9722 0.0000
1.1111 0.0556 0.0000
1.1667 0.0278 0.0000
1.1667 0.0833 0.0000
1.1111 0.1667 0.0000
1.1667 0.1389 0.0000
1.1667 0.1944 0.0000
1.1111 0.2778 0.0000
1.1667 0.2500 0.0000
1.1667 0.3056 0.0000
1.1111 0.3889 0.0000
1.1667 0.3611 0.0000
1.1667 0.4167 0.0000
1.1111 0.5000 0.0000
1.1667 0.4722 0.0000
1.1667 0.5278 0.0000
1.1111 0.6111 0.0000
1.1667 0.5833 0.0000
1.1667 0.6389 0.0000
1.1111 0.7222 0.0000
1.1667 0.6944 0.0000
1.1667 0.7500 0.0000
1.1111 0.8333 0.0000
1.1667 0.8056 0.0000
1.1667 0.8611 0.0000
1.1111 0.9444 0.0000
1.1667 0.9167 0.0000
1.1667 0.9722 0.0000
1.3333 0.0556 0.0000
1.3889 0.0278 0.0000
1.3889 0.0833 0.0000
1.3333 0.1667 0.0000
1.3889 0.1389 0.0000
1.3889 0.1944 0.0000
1.3333 0.2778 0.0000
1.3889 0.2500 0.0000
1.3889 0.3056 0.0000
1.3333 0.3889 0.0000
1.3889 0.3611 0.0000
1.3889 0.4167 0.0000
1.3333 0.5000 0.0000
1.3889 0.4722 0.0000
1.3889 0.5278 0.0000
1.3333 0.6111 0.0000
1.3889 0.5833 0.0000
1.3889 0.6389 0.0000
1.3333 0.7222 0.0000
1.3889 0.6944 0.0000
1.3889 0.7500 0.0000
1.3333 0.8333 0.0000
1.3889 0.8056 0.0000
1.3889 0.8611 0.0000
1.3333 0.9444 0.0000
1.3889 0.9167 0.0000
1.3889 0.9722 0.0000
1.5556 0.0556 0.0000
1.6111 0.0278 0.0000
1.6111 0.0833 0.0000
1.5556 0.1667 0.0000
1.6111 0.1389 0.0000
1.6111 0.1944 0.0000
1.5556 0.2778 0.0000
1.6111 0.2500 0.0000
1.6111 0.3056 0.0000
1.5556 0.3889 0.0000
1.6111 0.3611 0.0000
1.6111 0.4167 0.0000
1.5556 0.5000 0.0000
1.6111 0.4722 0.0000
1.6111 0.5278 0.0000
1.5556 0.6111 0.0000
1.6111 0.5833 0.0000
1.6111 0.6389 0.0000
1.5556 0.7222 0.0000
1.6111 0.6944 0.0000
1.6111 0.7500 0.0000
1.5556 0.8333 0.0000
1.6111 0.8056 0.0000
1.6111 0.8611 0.0000
1.5556 0.9444 0.0000
1.6111 0.9167 0.0000
1.6111 0.9722 0.0000
1.7778 0.0556 0.0000
1.8333 0.0278 0.0000
1.8333 0.0833 0.0000
1.7778 0.1667 0.0000
1.8333 0.1389 0.0000
1.8333 0.1944 0.0000
1.7778 0.2778 0.0000
1.8333 0.2500 0.0000
1.8333 0.3056 0.0000
1.7778 0.3889 0.0000
1.8333 0.3611 0.0000
1.8333 0.4167 0.0000
1.7778 0.5000 0.0000
1.8333 0.4722 0.0000
1.8333 0.5278 0.0000
1.7778 0.6111 0.0000
1.8333 0.5833 0.0000
1.8333 0.6389 0.0000
1.7778 0.7222 0.0000
1.8333 0.6944 0.0000
1.8333 0.7500 0.0000
1.7778 0.8333 0.0000
1.8333 0.8056 0.0000
1.8333 0.8611 0.0000
1.7778 0.9444 0.0000
1.8333 0.9167 0.0000
1.8333 0.9722 0.0000
0.1111 0.1111 0.0000
0.1667 0.0833 0.0000
0.1111 0.2222 0.0000
0.1667 0.1944 0.0000
0.1111 0.3333 0.0000
0.1667 0.3056 0.0000
0.1111 0.4444 0.0000
0.1667 0.4167 0.0000
0.1111 0.5556 0.0000
0.1667 0.5278 0.0000
0.1111 0.6667 0.0000
0.1667 0.6389 0.0000
0.1111 0.7778 0.0000
0.1667 0.7500 0.0000
0.1111 0.8889 0.0000
0.1667 0.8611 0.0000
0.1111 1.0000 0.0000
0.1667 0.9722 0.0000
0.3333 0.1111 0.0000
0.3889 0.0833 0.0000
0.3333 0.2222 0.0000
0.3889 0.1944 0.0000
0.3333 0.3333 0.0000
0.3889 0.3056 0.0000
0.3333 0.4444 0.0000
0.3889 0.4167 0.0000
0.3333 0.5556 0.0000
0.3889 0.5278 0.0000
0.3333 0.6667 0.0000
0.3889 0.6389 0.0000
0.3333 0.7778 0.0000
0.3889 0.7500 0.0000
0.3333 0.8889 0.0000
0.3889 0.8611 0.0000
0.3333 1.0000 0.0000
0.3889 0.9722 0.0000
0.5556 0.1111 0.0000
[...]
         <PointData>
            <DataArray Name="fValues" NumberOfComponents="3" format="ascii" type="Float64">
-1.13972e-24 -1.13972e-24        00000 
-2.16762e-24 -2.33672e-24        00000 
-2.20655e-24  6.72435e-26        00000 
-1.22481e-25 -2.93955e-24        00000 
 2.75171e-24  1.06569e-24        00000 
       00000 -9.79849e-25        00000 
-3.68394e-24 -7.68487e-25        00000 
-2.44741e-25  1.22370e-24        00000 
 4.92059e-25  2.46030e-25        00000 
-1.26438e-24        00000        00000 
-8.14240e-09  3.36401e-08        00000 
 5.14413e-10  1.29398e-08        00000 
 3.09570e-09  2.88903e-09        00000 
 2.85505e-09 -8.74401e-09        00000 
-8.17345e-09 -4.34503e-09        00000 
-5.58971e-09 -3.69077e-09        00000 
 1.57191e-09  7.64368e-09        00000 
-2.69519e-08 -4.17864e-09        00000 
-1.21669e-08 -4.15095e-09        00000 
-1.44148e-09 -8.36992e-09        00000 
 2.15956e-09  1.83665e-08        00000 
 2.18049e-09  1.34088e-08        00000 
 1.78961e-08 -3.98695e-09        00000 
-6.45127e-09 -4.00027e-09        00000 
-1.29228e-08 -8.09028e-09        00000 
 7.89880e-09 -2.98709e-10        00000 
 1.34544e-08 -5.49439e-09        00000 
 1.90918e-09 -1.90150e-08        00000 
-6.14241e-09 -9.02361e-09        00000 
-2.33637e-09 -3.43960e-10        00000 
 7.54775e-09  4.08531e-08        00000 
 2.69935e-11  1.18445e-08        00000 
 8.92680e-09  6.25863e-09        00000 
 1.02997e-08  6.65773e-09        00000 
-3.56912e-09 -3.36280e-09        00000 
 3.06469e-08  2.26360e-08        00000 
 8.23716e-09  3.94047e-09        00000 
-7.33002e-09 -9.46734e-10        00000 
 1.73862e-08  6.61026e-09        00000 
-1.51329e-09 -2.56072e-08        00000 
 2.79653e-09  1.28383e-08        00000 
 7.66562e-10  6.24340e-09        00000 
 1.69681e-08 -8.54291e-09        00000 
 2.01934e-08 -1.25109e-08        00000 
-5.92149e-09 -1.78588e-08        00000 
 2.29821e-08  1.78839e-08        00000 
 1.13371e-08  8.23998e-09        00000 
 1.50308e-10 -3.60862e-09        00000 
 3.18549e-09  7.41293e-09        00000 
 1.43904e-09 -3.66126e-08        00000 
 1.58029e-08  2.70379e-08        00000 
 9.53419e-09  1.26048e-08        00000 
 9.30835e-09  1.34290e-08        00000 
 1.26331e-08  1.92934e-08        00000 
-2.07372e-09  5.93252e-09        00000 
 1.78158e-08  2.38798e-08        00000 
 1.80840e-08  5.44758e-09        00000 
 4.69899e-09  9.56673e-09        00000 
-6.66162e-10  1.40998e-09        00000 
-1.75298e-09 -6.64878e-09        00000 
 3.88935e-09 -9.43140e-09        00000 
-2.06970e-09  5.98934e-09        00000 
 1.18928e-08 -5.69429e-11        00000 
-9.17834e-09  8.78136e-09        00000 
 1.41255e-08  1.71667e-09        00000 
 6.08105e-09  1.29361e-08        00000 
 6.95886e-09  1.90360e-08        00000 
 8.67888e-09  2.32223e-09        00000 
 1.95787e-08  1.72855e-08        00000 
 1.18360e-08  1.68064e-08        00000 
-6.21100e-09  3.92072e-09        00000 
 8.78325e-09  7.79799e-09        00000 
 1.02299e-08  2.35367e-09        00000 
 1.23029e-08  1.21233e-08        00000 
 7.78059e-09  1.51165e-08        00000 
 2.40331e-09  9.47055e-09        00000 
-3.18497e-09 -9.07434e-09        00000 
 9.94575e-09 -7.43083e-09        00000 
 9.57925e-09 -8.49420e-09        00000 
-7.68998e-09 -1.01172e-08        00000 
-5.21517e-09 -1.86035e-08        00000 
-7.05489e-09  1.43458e-08        00000 
-1.05758e-08  1.14736e-09        00000 
-2.36305e-08  4.90098e-09        00000 
-9.40179e-09  9.12117e-09        00000 
-1.32388e-10  6.88478e-09        00000 
 9.08148e-09  4.64658e-09        00000 
-1.10722e-08 -2.77166e-09        00000 
-4.16577e-09  6.81585e-09        00000 
-1.83124e-08  1.08599e-08        00000 
-4.29993e-09 -1.38351e-09        00000 
-3.48751e-09  8.76075e-09        00000 
-1.26886e-08 -1.80790e-09        00000 
-7.70365e-09  7.74136e-10        00000 
-1.03562e-08 -4.34102e-09        00000 
-4.12967e-09  7.12502e-09        00000 
 2.95677e-09  1.30346e-08        00000 
-6.92739e-09  1.26174e-08        00000 
-6.38431e-09  1.20232e-08        00000 
-3.48505e-09  9.69379e-09        00000 
 3.08388e-09  3.66569e-09        00000 
-3.53698e-09  1.74459e-08        00000 
 5.88515e-09  9.92812e-09        00000 
 5.12462e-09 -7.81514e-09        00000 
 1.89955e-08 -1.47588e-09        00000 
 2.12277e-08  7.57948e-09        00000 
-4.32101e-09 -1.09628e-08        00000 
-5.32681e-09  1.99876e-09        00000 
 2.52839e-09 -7.04336e-09        00000 
 3.91538e-09  3.01640e-09        00000 
-1.50414e-08  1.02893e-09        00000 
-7.10248e-09 -3.27435e-09        00000 
-8.56719e-09  5.85073e-09        00000 
-2.16741e-09  6.59541e-09        00000 
 7.26639e-09 -3.62374e-09        00000 
-2.25029e-09  6.61325e-09        00000 
-1.01281e-08 -3.40699e-09        00000 
-1.23711e-08 -3.65367e-09        00000 
 7.74349e-09 -5.76826e-09        00000 
-2.60867e-09  7.32361e-09        00000 
 2.02733e-09  1.28471e-08        00000 
 6.60855e-09  1.91878e-08        00000 
-1.57703e-09  1.25062e-08        00000 
 6.72600e-09  2.91655e-09        00000 
 1.93050e-08  1.28720e-08        00000 
-1.59642e-08  1.45449e-09        00000 
 1.32213e-09  7.49420e-09        00000 
 9.54851e-09 -9.84917e-09        00000 
 2.16936e-09  4.12438e-09        00000 
 8.58640e-09  2.17391e-09        00000 
-8.92156e-09  1.06432e-08        00000 
 4.83067e-09  6.13220e-09        00000 
 1.88440e-08  1.55247e-08        00000 
 1.81358e-08  1.44648e-08        00000 
-1.94214e-09 -4.13481e-09        00000 
 1.41031e-09  1.32910e-08        00000 
 1.65006e-08  8.77236e-09        00000 
 1.29082e-08  8.14435e-09        00000 
 1.06555e-08  2.39099e-09        00000 
-4.79994e-09  1.47802e-08        00000 
-3.07992e-10  9.45039e-09        00000 
-2.57231e-10  7.88096e-09        00000 
-7.69376e-09  8.63702e-09        00000 
-1.47675e-08  6.21753e-10        00000 
-7.31781e-09  1.75370e-08        00000 
 1.59104e-08  8.90515e-09        00000 
 8.64421e-09  1.00744e-08        00000 
 2.00587e-08  1.26303e-09        00000 
 1.24738e-08  1.28050e-08        00000 
-1.31821e-08 -3.08986e-09        00000 
 1.05719e-08 -2.54908e-09        00000 
 1.91655e-08  5.68230e-09        00000 
-3.13887e-09 -2.09592e-09        00000 
-1.07091e-08  1.03222e-08        00000 
 4.74943e-09  2.03664e-08        00000 
 7.56120e-09  1.34269e-08        00000 
 7.33510e-09 -3.90655e-09        00000 
-1.50820e-09 -6.77665e-09        00000 
 1.90143e-08  5.92254e-09        00000 
 1.01030e-08  4.30495e-09        00000 
 2.57423e-08  1.71125e-08        00000 
 1.28516e-08  4.50555e-09        00000 
-1.49913e-09  4.27892e-09        00000 
 1.82633e-09  1.10559e-08        00000 
 8.03919e-09  4.79005e-10        00000 
 5.69230e-09 -9.87104e-09        00000 
-2.49730e-09  1.20406e-09        00000 
 1.03586e-09 -3.64243e-09        00000 
-1.08377e-08 -1.04107e-08        00000 
-1.64433e-08 -8.91076e-09        00000 
-1.71407e-08  3.31509e-09        00000 
-1.66530e-08  1.17204e-08        00000 
 2.82718e-09  1.02059e-08        00000 
 7.39021e-10 -3.51771e-09        00000 
-3.73808e-09 -1.10532e-09        00000 
 6.63573e-09 -1.00094e-08        00000 
 1.17828e-08  1.46116e-09        00000 
 9.19403e-09  1.42872e-08        00000 
 7.20638e-09  2.62677e-08        00000 
 5.20453e-09  5.80388e-09        00000 
 2.42130e-09  1.05416e-09        00000 
 5.76354e-25  1.88279e-24        00000 
-8.58254e-09 -1.14879e-08        00000 
-7.59558e-09  1.36862e-09        00000 
 3.67758e-25 -9.41785e-25        00000 
 8.79382e-09  8.08341e-09        00000 
 7.12814e-10 -3.09691e-09        00000 
-1.86116e-24  1.16322e-25        00000 
-1.36658e-08 -2.13872e-09        00000 
 5.24184e-09 -2.07819e-09        00000 
-1.62184e-24 -1.77616e-25        00000 
-3.07523e-09 -1.05380e-08        00000 
 6.81097e-10  1.74751e-09        00000 
-2.79173e-24 -1.86116e-24        00000 
-1.42843e-08 -2.00894e-08        00000 
-3.41618e-09 -2.54803e-09        00000 
 1.54457e-24 -1.73308e-24        00000 
-1.30259e-08 -1.95996e-08        00000 
-2.04737e-08  3.22653e-09        00000 
-9.30578e-25 -9.30578e-25        00000 
-1.15569e-08 -7.72500e-09        00000 
-5.87983e-09 -7.38055e-10        00000 
-9.30578e-25 -4.65289e-25        00000 
-1.18798e-08  5.76564e-09        00000 
-1.58790e-08 -6.16542e-09        00000 
 1.14446e-24 -2.11014e-24        00000 
-1.05894e-08  8.72877e-09        00000 
-1.62176e-09 -1.80507e-08        00000 
 2.63842e-09 -1.49454e-08        00000 
-1.61647e-08 -1.69806e-08        00000 
-1.48904e-08  3.63170e-09        00000 
-1.23882e-09 -1.14690e-08        00000 
-1.44117e-08  9.28346e-09        00000 
-4.17348e-09  2.56371e-09        00000 
 1.44023e-08  5.61450e-10        00000 
-1.24517e-09 -8.17813e-09        00000 
 3.57797e-09 -2.79954e-09        00000 
 1.35943e-08  6.04535e-09        00000 
 8.39774e-09 -1.02148e-08        00000 
-3.84392e-09 -1.79487e-08        00000 
-1.09507e-08  1.89858e-09        00000 
-8.64612e-09 -1.18344e-08        00000 
-1.69079e-09 -4.30941e-09        00000 
-5.96135e-10 -5.48245e-09        00000 
-5.76846e-09 -9.78911e-09        00000 
 4.86195e-09 -1.02156e-08        00000 
 1.74133e-10 -2.28834e-10        00000 
-1.04717e-08 -3.80955e-09        00000 
-9.65860e-09 -9.80218e-09        00000 
-1.58743e-08  1.58960e-09        00000 
-1.35706e-08  1.22062e-08        00000 
-1.84164e-09 -9.20321e-09        00000 
-4.58588e-09  5.70067e-09        00000 
-4.91037e-09 -7.82163e-09        00000 
-8.89789e-09 -1.10134e-08        00000 
-8.63267e-09 -1.83525e-08        00000 
-1.32033e-08 -1.59363e-08        00000 
-6.94555e-09  6.41240e-09        00000 
-3.61637e-09 -9.78009e-09        00000 
-1.38010e-08 -8.33751e-11        00000 
 1.15691e-08  6.39153e-09        00000 
 4.41372e-09  6.78642e-09        00000 
-9.46686e-09  1.86336e-09        00000 
-1.27716e-08 -6.30949e-09        00000 
-8.41748e-09  1.84623e-08        00000 
-1.00274e-08  5.54431e-09        00000 
-5.85889e-09  5.59521e-09        00000 
 6.81425e-10 -6.63453e-09        00000 
 9.57196e-09  1.25976e-08        00000 
-3.66024e-09 -5.99760e-09        00000 
-1.06038e-08 -5.88699e-09        00000 
-9.11908e-09 -7.90959e-09        00000 
-1.66223e-08 -1.05044e-08        00000 
 4.96011e-09 -9.56347e-09        00000 
-1.65875e-08 -7.81879e-09        00000 
-1.30258e-08 -1.07237e-08        00000 
-9.98906e-09 -1.60874e-08        00000 
-5.68008e-10  5.35629e-09        00000 
 2.53925e-09 -5.30691e-09        00000 
-9.72230e-09  2.11083e-09        00000 
-3.38872e-09  3.70572e-09        00000 
-4.53547e-09  1.11538e-09        00000 
 1.94337e-09 -8.95287e-10        00000 
 4.28628e-10 -3.21214e-08        00000 
-6.11834e-09  1.32615e-08        00000 
-4.22733e-09 -6.70602e-09        00000 
 5.15254e-09  1.84020e-09        00000 
 1.72746e-09  1.81495e-08        00000 
 1.29712e-09  7.64586e-09        00000 
 2.01605e-09 -1.16392e-09        00000 
-9.45064e-10 -8.01880e-09        00000 
-6.22904e-10  6.31125e-10        00000 
 5.48071e-09 -1.47253e-08        00000 
 1.04400e-08 -1.39934e-08        00000 
 7.94093e-09 -7.26505e-09        00000 
 4.73432e-09  9.63104e-09        00000 
 1.29779e-08  9.44554e-09        00000 
 9.90328e-09 -1.00148e-09        00000 
 2.45161e-09 -1.28598e-08        00000 
 5.45270e-09  3.89919e-09        00000 
 1.51137e-08  1.03251e-08        00000 
-7.22153e-10  2.92946e-09        00000 
 1.47611e-09 -9.86965e-09        00000 
 4.36181e-10  6.66866e-09        00000 
 1.24877e-08  2.44786e-08        00000 
 1.58077e-08  2.79153e-09        00000 
-1.32824e-09  2.36422e-08        00000 
 1.67842e-09 -1.86760e-08        00000 
 4.74867e-09  4.00158e-08        00000 
 1.06892e-08 -2.02610e-08        00000 
-9.15198e-09 -1.47970e-08        00000 
 1.02991e-08  2.22455e-09        00000 
-9.67430e-09 -4.04555e-09        00000 
-1.34240e-09  3.71941e-09        00000 
 1.81528e-08  4.39098e-09        00000 
 1.13134e-08  1.10672e-08        00000 
 1.57917e-08 -1.63644e-08        00000 
 8.03452e-09 -3.54660e-09        00000 
-8.88704e-09  1.33533e-08        00000 
 9.11557e-09 -9.28134e-09        00000 
-1.03807e-09 -1.98228e-08        00000 
 3.06851e-09 -8.34267e-09        00000 
 7.95323e-09  5.87368e-09        00000 
-6.73552e-09  5.54142e-09        00000 
 8.54425e-09 -1.74804e-08        00000 
-1.90369e-08 -2.16942e-08        00000 
 3.56171e-09  6.49915e-09        00000 
-5.57773e-09  5.73035e-09        00000 
 3.47167e-09  2.58494e-09        00000 
-4.72447e-09 -1.40813e-08        00000 
 1.32024e-08  4.55253e-09        00000 
 2.02369e-08  1.58510e-08        00000 
 5.78004e-09  2.30068e-09        00000 
-8.95443e-09  2.68394e-08        00000 
-1.90583e-09 -1.51897e-08        00000 
-1.27652e-08  4.36384e-08        00000 
 1.97745e-09 -3.26840e-09        00000 
-5.79234e-10 -5.17269e-09        00000 
 1.04138e-08  3.56398e-09        00000 
-2.57995e-09 -2.87375e-09        00000 
 1.04967e-08  1.76708e-09        00000 
 1.21019e-08  1.42911e-08        00000 
-4.39340e-09 -2.23486e-09        00000 
-7.70089e-09 -1.43872e-08        00000 
-8.24289e-09  2.37229e-08        00000 
 7.90612e-09  6.29515e-09        00000 
-1.12762e-08  2.10196e-09        00000 
-6.31795e-09 -1.30130e-08        00000 
-1.37769e-08 -7.77385e-09        00000 
 5.94454e-09  2.54756e-08        00000 
-2.11384e-09  6.32128e-09        00000 
 4.97711e-09 -3.16478e-09        00000 
-4.72224e-09 -4.41792e-09        00000 
-1.11060e-08  1.88046e-09        00000 
 7.10210e-09 -1.16329e-08        00000 
-5.70941e-09  9.70865e-09        00000 
 6.24212e-09 -3.87213e-09        00000 
-6.86519e-09 -5.97235e-09        00000 
 1.70100e-08  9.97864e-09        00000 
 1.53887e-08 -5.00051e-09        00000 
-8.10743e-09 -6.76731e-09        00000 
 8.29138e-09  7.27690e-09        00000 
 7.00777e-09 -1.01519e-08        00000 
 1.48477e-08 -1.62301e-09        00000 
 1.30830e-08  3.04827e-08        00000 
 1.83196e-08  6.09653e-09        00000 
 5.02780e-10  1.40192e-08        00000 
 7.39300e-09  6.53117e-10        00000 
 6.69516e-09 -5.34463e-09        00000 
 1.89615e-09 -1.56810e-09        00000 
 8.77054e-09 -9.77430e-09        00000 
 6.82425e-09 -9.49724e-09        00000 
-2.10551e-09 -3.15984e-09        00000 
 2.49847e-09 -2.00555e-08        00000 
-4.42446e-09 -1.23856e-08        00000 
-1.66750e-09 -1.39092e-08        00000 
-1.01023e-08 -1.76717e-08        00000 
-9.15009e-09  7.05525e-09        00000 
-1.90104e-09  6.77870e-09        00000 
-1.78890e-08 -4.48757e-09        00000 
-1.00088e-08 -1.14992e-08        00000 
-2.24532e-09 -6.22445e-09        00000 
-1.00589e-08  4.92170e-09        00000 
 1.39657e-08  1.22726e-08        00000 
 1.17348e-08 -2.94591e-10        00000 
 1.52303e-08 -5.52681e-09        00000 
 2.51998e-09 -1.01095e-09        00000 
 4.79108e-09 -1.16684e-08        00000 
-1.01067e-08 -1.20623e-08        00000 
 1.65278e-08  4.73938e-09        00000 
-1.47190e-09  7.12312e-09        00000 
-1.23069e-08 -8.41055e-10        00000 
-4.00260e-09  6.03781e-09        00000 
 1.02440e-08 -1.48203e-08        00000 
-6.69652e-09  1.23316e-08        00000 
 1.04717e-08  5.41532e-09        00000 
 1.54227e-08 -8.19507e-09        00000 
 1.93552e-11 -4.93799e-09        00000 
-2.10253e-08 -5.19540e-09        00000 
-1.08566e-08 -1.32472e-08        00000 
-1.47282e-08  1.17001e-08        00000 
-1.21001e-08  8.88605e-10        00000 
-6.50618e-09  5.88005e-09        00000 
-1.45473e-08  6.48470e-10        00000 
-1.59576e-08  4.21733e-09        00000 
-1.65864e-08  2.99366e-10        00000 
-9.64764e-09 -3.91523e-10        00000 
-5.58015e-09  9.88884e-09        00000 
-4.24032e-09  1.14119e-08        00000 
 1.05049e-08 -9.32530e-10        00000 
-1.73664e-08 -1.46341e-08        00000 
 1.24168e-08 -8.72262e-10        00000 
 2.85846e-09  2.53988e-09        00000 
-4.23657e-09  3.05123e-09        00000 
-6.92017e-09  6.10109e-09        00000 
 1.14624e-08 -4.01123e-09        00000 
 4.88086e-09  1.53896e-08        00000 
 2.85297e-10  1.64094e-09        00000 
-3.76576e-09  2.63976e-08        00000 
-3.99370e-09 -1.03591e-09        00000 
-5.76165e-09  5.34328e-11        00000 
-8.72882e-09  8.01265e-10        00000 
-4.21744e-09  7.74767e-09        00000 
 1.98980e-09 -2.96953e-09        00000 
-1.41864e-08 -2.28020e-09        00000 
-3.62246e-09  1.38357e-09        00000 
-4.48239e-09  2.01541e-08        00000 
-1.50135e-08  3.12511e-10        00000 
-1.34124e-08  5.73245e-09        00000 
-7.79465e-09  6.62381e-09        00000 
-6.16023e-09 -4.91987e-09        00000 
 5.20095e-09  1.04030e-08        00000 
-1.15516e-08  9.58082e-09        00000 
-9.13599e-09 -5.20900e-09        00000 
-3.96977e-09  1.03871e-08        00000 
-6.05996e-09 -8.33805e-09        00000 
-3.14039e-08 -1.19646e-08        00000 
 2.32041e-09  7.93179e-09        00000 
-4.07130e-09  8.70675e-09        00000 
-8.49087e-09  1.03152e-09        00000 
-1.36620e-08 -2.19993e-09        00000 
-5.83276e-09  1.42538e-08        00000 
-1.35777e-08  1.63265e-08        00000 
-1.20186e-08  2.00771e-10        00000 
-2.20034e-10  2.69060e-09        00000 
-1.28753e-08  7.81390e-09        00000 
-2.22736e-09 -8.94611e-09        00000 
-1.08049e-08  1.34066e-08        00000 
 1.30278e-08  4.24766e-09        00000 
 5.28535e-09  1.05243e-08        00000 
 4.70305e-09 -9.85979e-09        00000 
-5.23493e-09  2.28998e-09        00000 
-6.20939e-09 -1.24842e-08        00000 
-1.69025e-09  1.07714e-08        00000 
 2.65625e-09  6.09715e-09        00000 
 4.79892e-09  5.16960e-09        00000 
-1.16656e-09 -8.35640e-09        00000 
 6.63198e-11  6.40422e-09        00000 
 5.40871e-09  2.55581e-09        00000 
-6.86231e-09  1.26476e-08        00000 
-1.16994e-10  1.12480e-08        00000 
-1.03977e-09  5.13939e-10        00000 
-6.12280e-09  6.30062e-09        00000 
 3.47171e-09  6.35401e-09        00000 
-4.34634e-09 -2.47765e-09        00000 
 4.08335e-09  1.75641e-08        00000 
 7.30235e-09  1.23301e-08        00000 
 1.27265e-08  3.68551e-08        00000 
-4.66728e-09  4.03147e-09        00000 
 1.28038e-08  3.00685e-08        00000 
 1.07942e-08 -4.63139e-09        00000 
-7.31418e-09  2.53906e-08        00000 
-1.64566e-09  4.61065e-09        00000 
-4.61556e-10 -3.83803e-09        00000 
 1.71660e-09 -5.97425e-09        00000 
-1.17189e-08 -5.23528e-11        00000 
-9.76437e-09 -5.29941e-11        00000 
-1.02680e-08 -2.09937e-09        00000 
-1.04416e-08  2.38447e-09        00000 
-9.41484e-10  1.46250e-09        00000 
 4.57299e-09  1.20889e-09        00000 
-3.04909e-09  5.43690e-09        00000 
-1.35708e-08 -1.66206e-08        00000 
-1.51854e-09 -4.40880e-09        00000 
 2.01089e-09 -4.53845e-09        00000 
-4.76988e-09 -5.14915e-09        00000 
 2.25999e-09 -6.58303e-09        00000 
-1.63754e-09 -3.29547e-09        00000 
-7.47314e-09 -1.39895e-08        00000 
-1.33746e-08  4.72973e-09        00000 
-4.63486e-09 -1.07687e-08        00000 
 8.29477e-09 -2.45139e-09        00000 
 1.35737e-09 -6.32845e-09        00000 
-7.38226e-09 -9.78036e-09        00000 
-1.20758e-08  6.71981e-09        00000 
 1.55650e-08  6.04396e-09        00000 
 7.93182e-09  8.35763e-09        00000 
 1.68672e-08  1.55825e-08        00000 
-4.99713e-09 -7.12993e-09        00000 
-6.84048e-09 -1.58298e-08        00000 
-5.54537e-09 -9.62369e-09        00000 
 2.53849e-09 -1.79297e-08        00000 
-2.39481e-09 -6.51972e-09        00000 
 1.63801e-08 -2.34391e-08        00000 
-5.69287e-11 -2.06079e-08        00000 
 5.58875e-10 -7.59195e-09        00000 
 7.87361e-09 -1.19615e-08        00000 
-2.58202e-08 -1.37896e-09        00000 
 1.35366e-08 -5.89100e-09        00000 
 1.21555e-08  9.17737e-09        00000 
 4.24673e-09 -9.18221e-09        00000 
-1.15733e-08  5.31480e-09        00000 
 5.72541e-10 -4.95377e-09        00000 
 7.81994e-09  1.75312e-08        00000 
 1.22205e-08 -2.21858e-08        00000 
 1.59475e-08  4.92236e-08        00000 
 8.96955e-09 -9.22689e-09        00000 