<?xml version="1.0" encoding="utf-8"?>
<VTKFile byte_order="LittleEndian" type="UnstructuredGrid" version="0.1">
   <UnstructuredGrid>
      <Piece NumberOfCells="1296" NumberOfPoints="685">
         <Points>
            <DataArray Name="Points" NumberOfComponents="3" format="ascii" type="Float32">
0.0000 0.0000 0.0000
0.0000 0.1111 0.0000
0.0000 0.2222 0.0000
0.0000 0.3333 0.0000
0.0000 0.4444 0.0000
0.0000 0.5556 0.0000
0.0000 0.6667 0.0000
0.0000 0.7778 0.0000
0.0000 0.8889 0.0000
0.0000 1.0000 0.0000
0.2222 0.0000 0.0000
0.2222 0.1111 0.0000
0.2222 0.2222 0.0000
0.2222 0.3333 0.0000
0.2222 0.4444 0.0000
0.2222 0.5556 0.0000
0.2222 0.6667 0.0000
0.2222 0.7778 0.0000
0.2222 0.8889 0.0000
0.2222 1.0000 0.0000
0.4444 0.0000 0.0000
0.4444 0.1111 0.0000
0.4444 0.2222 0.0000
0.4444 0.3333 0.0000
0.4444 0.4444 0.0000
0.4444 0.5556 0.0000
0.4444 0.6667 0.0000
0.4444 0.7778 0.0000
0.4444 0.8889 0.0000
0.4444 1.0000 0.0000
0.6667 0.0000 0.0000
0.6667 0.1111 0.0000
0.6667 0.2222 0.0000
0.6667 0.3333 0.0000
0.6667 0.4444 0.0000
0.6667 0.5556 0.0000
0.6667 0.6667 0.0000
0.6667 0.7778 0.0000
0.6667 0.8889 0.0000
0.6667 1.0000 0.0000
0.8889 0.0000 0.0000
0.8889 0.1111 0.0000
0.8889 0.2222 0.0000
0.8889 0.3333 0.0000
0.8889 0.4444 0.0000
0.8889 0.5556 0.0000
0.8889 0.6667 0.0000
0.8889 0.7778 0.0000
0.8889 0.8889 0.0000
0.8889 1.0000 0.0000
1.1111 0.0000 0.0000
1.1111 0.1111 0.0000
1.1111 0.2222 0.0000
1.1111 0.3333 0.0000
1.1111 0.4444 0.0000
1.1111 0.5556 0.0000
1.1111 0.6667 0.0000
1.1111 0.7778 0.0000
1.1111 0.8889 0.0000
1.1111 1.0000 0.0000
1.3333 0.0000 0.0000
1.3333 0.1111 0.0000
1.3333 0.2222 0.0000
1.3333 0.3333 0.0000
1.3333 0.4444 0.0000
1.3333 0.5556 0.0000
1.3333 0.6667 0.0000
1.3333 0.7778 0.0000
1.3333 0.8889 0.0000
1.3333 1.0000 0.0000
1.5556 0.0000 0.0000
1.5556 0.1111 0.0000
1.5556 0.2222 0.0000
1.5556 0.3333 0.0000
1.5556 0.4444 0.0000
1.5556 0.5556 0.0000
1.5556 0.6667 0.0000
1.5556 0.7778 0.0000
1.5556 0.8889 0.0000
1.5556 1.0000 0.0000
1.7778 0.0000 0.0000
1.7778 0.1111 0.0000
1.7778 0.2222 0.0000
1.7778 0.3333 0.0000
1.7778 0.4444 0.0000
1.7778 0.5556 0.0000
1.7778 0.6667 0.0000
1.7778 0.7778 0.0000
1.7778 0.8889 0.0000
1.7778 1.0000 0.0000
2.0000 0.0000 0.0000
2.0000 0.1111 0.0000
2.0000 0.2222 0.0000
2.0000 0.3333 0.0000
2.0000 0.4444 0.0000
2.0000 0.5556 0.0000
2.0000 0.6667 0.0000
2.0000 0.7778 0.0000
2.0000 0.8889 0.0000
2.0000 1.0000 0.0000
0.1111 0.0556 0.0000
0.1111 0.1667 0.0000
0.1111 0.2778 0.0000
0.1111 0.3889 0.0000
0.1111 0.5000 0.0000
0.1111 0.6111 0.0000
0.1111 0.7222 0.0000
0.1111 0.8333 0.0000
0.1111 0.9444 0.0000
0.3333 0.0556 0.0000
0.3333 0.1667 0.0000
0.3333 0.2778 0.0000
0.3333 0.3889 0.0000
0.3333 0.5000 0.0000
0.3333 0.6111 0.0000
0.3333 0.7222 0.0000
0.3333 0.8333 0.0000
0.3333 0.9444 0.0000
0.5556 0.0556 0.0000
0.5556 0.1667 0.0000
0.5556 0.2778 0.0000
0.5556 0.3889 0.0000
0.5556 0.5000 0.0000
0.5556 0.6111 0.0000
0.5556 0.7222 0.0000
0.5556 0.8333 0.0000
0.5556 0.9444 0.0000
0.7778 0.0556 0.0000
0.7778 0.1667 0.0000
0.7778 0.2778 0.0000
0.7778 0.3889 0.0000
0.7778 0.5000 0.0000
0.7778 0.6111 0.0000
0.7778 0.7222 0.0000
0.7778 0.8333 0.0000
0.7778 0.9444 0.0000
1.0000 0.0556 0.0000
1.0000 0.1667 0.0000
1.0000 0.2778 0.0000
1.0000 0.3889 0.0000
1.0000 0.5000 0.0000
1.0000 0.6111 0.0000
1.0000 0.7222 0.0000
1.0000 0.8333 0.0000
1.0000 0.9444 0.0000
1.2222 0.0556 0.0000
1.2222 0.1667 0.0000
1.2222 0.2778 0.0000
1.2222 0.3889 0.0000
1.2222 0.5000 0.0000
1.2222 0.6111 0.0000
1.2222 0.7222 0.0000
1.2222 0.8333 0.0000
1.2222 0.9444 0.0000
1.4444 0.0556 0.0000
1.4444 0.1667 0.0000
1.4444 0.2778 0.0000
1.4444 0.3889 0.0000
1.4444 0.5000 0.0000
1.4444 0.6111 0.0000
1.4444 0.7222 0.0000
1.4444 0.8333 0.0000
1.4444 0.9444 0.0000
1.6667 0.0556 0.0000
1.6667 0.1667 0.0000
1.6667 0.2778 0.0000
1.6667 0.3889 0.0000
1.6667 0.5000 0.0000
1.6667 0.6111 0.0000
1.6667 0.7222 0.0000
1.6667 0.8333 0.0000
1.6667 0.9444 0.0000
1.8889 0.0556 0.0000
1.8889 0.1667 0.0000
1.8889 0.2778 0.0000
1.8889 0.3889 0.0000
1.8889 0.5000 0.0000
1.8889 0.6111 0.0000
1.8889 0.7222 0.0000
1.8889 0.8333 0.0000
1.8889 0.9444 0.0000
0.0000 0.0556 0.0000
0.0556 0.0278 0.0000
0.0556 0.0833 0.0000
0.0000 0.1667 0.0000
0.0556 0.1389 0.0000
0.0556 0.1944 0.0000
0.0000 0.2778 0.0000
0.0556 0.2500 0.0000
0.0556 0.3056 0.0000
0.0000 0.3889 0.0000
0.0556 0.3611 0.0000
0.0556 0.4167 0.0000
0.0000 0.5000 0.0000
0.0556 0.4722 0.0000
0.0556 0.5278 0.0000
0.0000 0.6111 0.0000
0.0556 0.5833 0.0000
0.0556 0.6389 0.0000
0.0000 0.7222 0.0000
0.0556 0.6944 0.0000
0.0556 0.7500 0.0000
0.0000 0.8333 0.0000
0.0556 0.8056 0.0000
0.0556 0.8611 0.0000
0.0000 0.9444 0.0000
0.0556 0.9167 0.0000
0.0556 0.9722 0.0000
0.2222 0.0556 0.0000
0.2778 0.0278 0.0000
0.2778 0.0833 0.0000
0.2222 0.1667 0.0000
0.2778 0.1389 0.0000
0.2778 0.1944 0.0000
0.2222 0.2778 0.0000
0.2778 0.2500 0.0000
0.2778 0.3056 0.0000
0.2222 0.3889 0.0000
0.2778 0.3611 0.0000
0.2778 0.4167 0.0000
0.2222 0.5000 0.0000
0.2778 0.4722 0.0000
0.2778 0.5278 0.0000
0.2222 0.6111 0.0000
0.2778 0.5833 0.0000
0.2778 0.6389 0.0000
0.2222 0.7222 0.0000
0.2778 0.6944 0.0000
0.2778 0.7500 0.0000
0.2222 0.8333 0.0000
0.2778 0.8056 0.0000
0.2778 0.8611 0.0000
0.2222 0.9444 0.0000
0.2778 0.9167 0.0000
0.2778 0.9722 0.0000
0.4444 0.0556 0.0000
0.5000 0.0278 0.0000
0.5000 0.0833 0.0000
0.4444 0.1667 0.0000
0.5000 0.1389 0.0000
0.5000 0.1944 0.0000
0.4444 0.2778 0.0000
0.5000 0.2500 0.0000
0.5000 0.3056 0.0000
0.4444 0.3889 0.0000
0.5000 0.3611 0.0000
0.5000 0.4167 0.0000
0.4444 0.5000 0.0000
0.5000 0.4722 0.0000
0.5000 0.5278 0.0000
0.4444 0.6111 0.0000
0.5000 0.5833 0.0000
0.5000 0.6389 0.0000
0.4444 0.7222 0.0000
0.5000 0.6944 0.0000
0.5000 0.7500 0.0000
0.4444 0.8333 0.0000
0.5000 0.8056 0.0000
0.5000 0.8611 0.0000
0.4444 0.9444 0.0000
0.5000 0.9167 0.0000
0.5000 0.9722 0.0000
0.6667 0.0556 0.0000
0.7222 0.0278 0.0000
0.7222 0.0833 0.0000
0.6667 0.1667 0.0000
0.7222 0.1389 0.0000
0.7222 0.1944 0.0000
0.6667 0.2778 0.0000
0.7222 0.2500 0.0000
0.7222 0.3056 0.0000
0.6667 0.3889 0.0000
0.7222 0.3611 0.0000
0.7222 0.4167 0.0000
0.6667 0.5000 0.0000
0.7222 0.4722 0.0000
0.7222 0.5278 0.0000
0.6667 0.6111 0.0000
0.7222 0.5833 0.0000
0.7222 0.6389 0.0000
0.6667 0.7222 0.0000
0.7222 0.6944 0.0000
0.7222 0.7500 0.0000
0.6667 0.8333 0.0000
0.7222 0.8056 0.0000
0.7222 0.8611 0.0000
0.6667 0.9444 0.0000
0.7222 0.9167 0.0000
0.7222 0.9722 0.0000
0.8889 0.0556 0.0000
0.9444 0.0278 0.0000
0.9444 0.0833 0.0000
0.8889 0.1667 0.0000
0.9444 0.1389 0.0000
0.9444 0.1944 0.0000
0.8889 0.2778 0.0000
0.9444 0.2500 0.0000
0.9444 0.3056 0.0000
0.8889 0.3889 0.0000
0.9444 0.3611 0.0000
0.9444 0.4167 0.0000
0.8889 0.5000 0.0000
0.9444 0.4722 0.0000
0.9444 0.5278 0.0000
0.8889 0.6111 0.0000
0.9444 0.5833 0.0000
0.9444 0.6389 0.0000
0.8889 0.7222 0.0000
0.9444 0.6944 0.0000
0.9444 0.7500 0.0000
0.8889 0.8333 0.0000
0.9444 0.8056 0.0000
0.9444 0.8611 0.0000
0.8889 0.9444 0.0000
0.9444 0.9167 0.0000
0.9444 0.9722 0.0000
1.1111 0.0556 0.0000
1.1667 0.0278 0.0000
1.1667 0.0833 0.0000
1.1111 0.1667 0.0000
1.1667 0.1389 0.0000
1.1667 0.1944 0.0000
1.1111 0.2778 0.0000
1.1667 0.2500 0.0000
1.1667 0.3056 0.0000
1.1111 0.3889 0.0000
1.1667 0.3611 0.0000
1.1667 0.4167 0.0000
1.1111 0.5000 0.0000
1.1667 0.4722 0.0000
1.1667 0.5278 0.0000
1.1111 0.6111 0.0000
1.1667 0.5833 0.0000
1.1667 0.6389 0.0000
1.1111 0.7222 0.0000
1.1667 0.6944 0.0000
1.1667 0.7500 0.0000
1.1111 0.8333 0.0000
1.1667 0.8056 0.0000
1.1667 0.8611 0.0000
1.1111 0.9444 0.0000
1.1667 0.9167 0.0000
1.1667 0.9722 0.0000
1.3333 0.0556 0.0000
1.3889 0.0278 0.0000
1.3889 0.0833 0.0000
1.3333 0.1667 0.0000
1.3889 0.1389 0.0000
1.3889 0.1944 0.0000
1.3333 0.2778 0.0000
1.3889 0.2500 0.0000
1.3889 0.3056 0.0000
1.3333 0.3889 0.0000
1.3889 0.3611 0.0000
1.3889 0.4167 0.0000
1.3333 0.5000 0.0000
1.3889 0.4722 0.0000
1.3889 0.5278 0.0000
1.3333 0.6111 0.0000
1.3889 0.5833 0.0000
1.3889 0.6389 0.0000
1.3333 0.7222 0.0000
1.3889 0.6944 0.0000
1.3889 0.7500 0.0000
1.3333 0.8333 0.0000
1.3889 0.8056 0.0000
1.3889 0.8611 0.0000
1.3333 0.9444 0.0000
1.3889 0.9167 0.0000
1.3889 0.9722 0.0000
1.5556 0.0556 0.0000
1.6111 0.0278 0.0000
1.6111 0.0833 0.0000
1.5556 0.1667 0.0000
1.6111 0.1389 0.0000
1.6111 0.1944 0.0000
1.5556 0.2778 0.0000
1.6111 0.2500 0.0000
1.6111 0.3056 0.0000
1.5556 0.3889 0.0000
1.6111 0.3611 0.0000
1.6111 0.4167 0.0000
1.5556 0.5000 0.0000
1.6111 0.4722 0.0000
1.6111 0.5278 0.0000
1.5556 0.6111 0.0000
1.6111 0.5833 0.0000
1.6111 0.6389 0.0000
1.5556 0.7222 0.0000
1.6111 0.6944 0.0000
1.6111 0.7500 0.0000
1.5556 0.8333 0.0000
1.6111 0.8056 0.0000
1.6111 0.8611 0.0000
1.5556 0.9444 0.0000
1.6111 0.9167 0.0000
1.6111 0.9722 0.0000
1.7778 0.0556 0.0000
1.8333 0.0278 0.0000
1.8333 0.0833 0.0000
1.7778 0.1667 0.0000
1.8333 0.1389 0.0000
1.8333 0.1944 0.0000
1.7778 0.2778 0.0000
1.8333 0.2500 0.0000
1.8333 0.3056 0.0000
1.7778 0.3889 0.0000
1.8333 0.3611 0.0000
1.8333 0.4167 0.0000
1.7778 0.5000 0.0000
1.8333 0.4722 0.0000
1.8333 0.5278 0.0000
1.7778 0.6111 0.0000
1.8333 0.5833 0.0000
1.8333 0.6389 0.0000
1.7778 0.7222 0.0000
1.8333 0.6944 0.0000
1.8333 0.7500 0.0000
1.7778 0.8333 0.0000
1.8333 0.8056 0.0000
1.8333 0.8611 0.0000
1.7778 0.9444 0.0000
1.8333 0.9167 0.0000
1.8333 0.9722 0.0000
0.1111 0.1111 0.0000
0.1667 0.0833 0.0000
0.1111 0.2222 0.0000
0.1667 0.1944 0.0000
0.1111 0.3333 0.0000
0.1667 0.3056 0.0000
0.1111 0.4444 0.0000
0.1667 0.4167 0.0000
0.1111 0.5556 0.0000
0.1667 0.5278 0.0000
0.1111 0.6667 0.0000
0.1667 0.6389 0.0000
0.1111 0.7778 0.0000
0.1667 0.7500 0.0000
0.1111 0.8889 0.0000
0.1667 0.8611 0.0000
0.1111 1.0000 0.0000
0.1667 0.9722 0.0000
0.3333 0.1111 0.0000
0.3889 0.0833 0.0000
0.3333 0.2222 0.0000
0.3889 0.1944 0.0000
0.3333 0.3333 0.0000
0.3889 0.3056 0.0000
0.3333 0.4444 0.0000
0.3889 0.4167 0.0000
0.3333 0.5556 0.0000
0.3889 0.5278 0.0000
0.3333 0.6667 0.0000
0.3889 0.6389 0.0000
0.3333 0.7778 0.0000
0.3889 0.7500 0.0000
0.3333 0.8889 0.0000
0.3889 0.8611 0.0000
0.3333 1.0000 0.0000
0.3889 0.9722 0.0000
0.5556 0.1111 0.0000
[...]
         <PointData>
            <DataArray Name="fValues" NumberOfComponents="3" format="ascii" type="Float64">
       00000  7.00244e-21        00000 
-4.43928e-21 -2.51874e-21        00000 
-3.10252e-21 -6.25028e-21        00000 
 5.01683e-21  8.52860e-21        00000 
-5.95127e-21  2.84751e-21        00000 
       00000        00000        00000 
-5.25670e-21  6.38988e-21        00000 
 3.75922e-21  5.01229e-21        00000 
-3.02321e-21 -4.03095e-21        00000 
-6.27302e-21  1.75061e-21        00000 
-6.46409e-07  8.26455e-05        00000 
 6.79338e-06  3.72637e-05        00000 
 4.09719e-06  3.63352e-05        00000 
-5.67718e-05 -1.57100e-05        00000 
 1.29457e-06  2.05654e-05        00000 
-3.18540e-05 -4.00381e-06        00000 
-2.02449e-05 -2.41051e-06        00000 
-6.02297e-05  3.13930e-05        00000 
-4.10399e-05  1.57204e-05        00000 
-5.54267e-05 -5.40515e-05        00000 
 6.79215e-07  2.69358e-05        00000 
-9.17282e-06  2.26622e-05        00000 
 3.78686e-05 -4.53179e-05        00000 
 1.30168e-05 -3.85374e-05        00000 
-3.07963e-05 -4.89464e-05        00000 
 6.15897e-05  1.69686e-05        00000 
 1.36164e-05  2.13920e-06        00000 
-3.68926e-05 -9.01731e-05        00000 
-2.80297e-05 -2.12510e-05        00000 
 8.79951e-06 -1.05104e-05        00000 
 2.57236e-05  1.85638e-04        00000 
 2.01949e-06  4.17611e-05        00000 
 1.15977e-05  2.76951e-06        00000 
-1.88305e-05  2.01792e-06        00000 
-5.39760e-05  7.62590e-06        00000 
 3.08287e-05  6.37302e-05        00000 
-2.09447e-05  1.98508e-05        00000 
-7.55494e-05 -1.86950e-05        00000 
-3.27464e-05 -1.61122e-05        00000 
-2.64597e-05 -8.25041e-05        00000 
 1.26837e-05  1.03160e-04        00000 
-1.82187e-05  4.62608e-05        00000 
-1.53625e-06 -1.48457e-05        00000 
-1.52579e-05 -2.10140e-05        00000 
-8.98994e-05 -7.84816e-05        00000 
 1.94749e-05  4.23053e-05        00000 
 2.39224e-06  6.31180e-05        00000 
-2.55704e-05  3.56696e-06        00000 
-1.49017e-05  3.78900e-05        00000 
-2.40493e-05 -1.01668e-04        00000 
 6.53569e-05  6.73265e-05        00000 
 1.60762e-05  2.30343e-05        00000 
 2.76525e-05  6.30489e-05        00000 
 1.14802e-05  6.78181e-05        00000 
-2.07217e-05  6.17698e-06        00000 
 5.65313e-06  2.32292e-05        00000 
 3.93128e-05 -1.80645e-05        00000 
-2.59628e-05  4.73336e-05        00000 
-2.88526e-05  9.53979e-06        00000 
-1.39428e-05 -6.31495e-05        00000 
 1.62227e-05 -9.10790e-05        00000 
 1.98976e-07 -4.69854e-05        00000 
 4.92769e-05 -3.47352e-05        00000 
-2.03043e-05  1.34805e-05        00000 
 1.00791e-05  1.67015e-05        00000 
-9.41490e-06  8.58422e-06        00000 
-4.18216e-05 -1.63773e-05        00000 
-2.90494e-05 -6.11956e-05        00000 
-5.15664e-06 -1.08123e-05        00000 
 4.71906e-05 -4.30659e-05        00000 
 6.41385e-07 -2.88078e-05        00000 
 2.44951e-05 -2.21832e-05        00000 
 3.50103e-05  8.96701e-06        00000 
 3.13654e-05  2.86695e-05        00000 
 5.49199e-06 -7.62493e-06        00000 
-1.06969e-05  5.70455e-06        00000 
-2.96295e-05 -3.96391e-06        00000 
 4.49929e-05 -2.80241e-05        00000 
 5.01866e-05 -3.03765e-05        00000 
 2.63574e-05 -7.40318e-05        00000 
-7.04648e-06  7.99064e-05        00000 
-3.55880e-05  8.82404e-05        00000 
-3.74561e-05 -3.90549e-07        00000 
-4.31148e-05 -5.08612e-06        00000 
-5.99638e-05 -7.42819e-05        00000 
-3.78215e-05 -5.91896e-05        00000 
 1.44101e-05 -1.65962e-06        00000 
-3.71930e-05 -8.16443e-06        00000 
-7.10348e-06  5.01675e-06        00000 
-3.41154e-05  4.54306e-05        00000 
 2.32663e-06  3.08345e-05        00000 
 5.33794e-06 -1.16619e-05        00000 
-1.20977e-05 -1.29847e-05        00000 
 2.12726e-07 -3.06608e-07        00000 
-3.90242e-05  2.45779e-05        00000 
 4.30331e-05  1.47304e-05        00000 
-3.03418e-05  5.94667e-05        00000 
 3.56921e-05  9.52145e-06        00000 
 2.02942e-05  2.56078e-05        00000 
-5.41386e-05  1.20605e-05        00000 
 1.76197e-05  3.29283e-05        00000 
-9.52511e-06  6.71071e-05        00000 
 3.13859e-06  2.85320e-05        00000 
 3.56835e-05  9.43920e-06        00000 
 6.08661e-05  6.78427e-06        00000 
 5.94053e-05  3.36371e-05        00000 
 2.62939e-06 -3.10493e-05        00000 
-2.42312e-05 -2.54706e-05        00000 
-9.34784e-07 -1.34198e-05        00000 
 2.48625e-05  1.44120e-05        00000 
-4.31309e-05  1.04406e-05        00000 
-2.87186e-05  1.14208e-05        00000 
-2.51600e-05  2.83924e-05        00000 
-1.70919e-05  3.71930e-05        00000 
 8.21746e-07 -1.25552e-05        00000 
 3.10896e-06 -1.53431e-05        00000 
 3.14790e-06 -5.79114e-07        00000 
-3.59050e-05  1.50999e-05        00000 
 2.75116e-05  1.62307e-05        00000 
-1.19650e-06  5.44927e-05        00000 
 2.93831e-05  5.83515e-05        00000 
 3.09714e-05  3.59808e-05        00000 
-3.91681e-06  1.38514e-05        00000 
 3.14973e-05 -9.38663e-07        00000 
 4.78244e-05  3.22614e-05        00000 
-4.10284e-05  2.07643e-05        00000 
 5.52949e-07  1.14771e-05        00000 
 4.31880e-05 -3.90634e-05        00000 
-1.12140e-05  2.61119e-05        00000 
 2.20417e-05  2.92648e-06        00000 
-6.68153e-05 -3.87274e-05        00000 
-8.54605e-06 -3.38988e-05        00000 
-4.69372e-06  1.43666e-05        00000 
 1.27304e-05  2.14178e-05        00000 
-7.98804e-05 -5.84296e-05        00000 
-3.75833e-05 -4.50713e-05        00000 
 2.62190e-07 -1.84350e-05        00000 
-5.99072e-06 -7.16510e-05        00000 
-5.12707e-06 -5.78215e-05        00000 
-4.24587e-05 -1.80106e-05        00000 
-1.06188e-06 -3.96292e-05        00000 
 6.41288e-06 -2.34163e-05        00000 
 6.38851e-06 -1.77064e-05        00000 
-3.12755e-05 -3.42326e-05        00000 
 7.16855e-06  2.65924e-05        00000 
 2.70340e-05  1.19867e-05        00000 
 4.67680e-05  1.49319e-05        00000 
 7.40186e-05  2.68901e-07        00000 
 6.23079e-05  3.66380e-05        00000 
 6.50979e-06  1.07858e-05        00000 
 7.62305e-06  1.06172e-06        00000 
 4.65663e-05  4.17784e-05        00000 
-3.63052e-05 -6.27046e-05        00000 
-3.49651e-05 -2.29351e-06        00000 
 4.95540e-06  4.17178e-06        00000 
 3.22245e-06  3.51968e-05        00000 
-1.74469e-05  2.39416e-05        00000 
 3.14414e-05  5.73652e-05        00000 
 1.26721e-05  4.37346e-05        00000 
 1.79711e-05  4.46481e-05        00000 
-9.47759e-06 -3.38769e-06        00000 
-3.10495e-05  2.12000e-05        00000 
-4.90431e-05  1.49583e-05        00000 
-3.67584e-05 -2.48854e-05        00000 
 1.66511e-05  8.95936e-06        00000 
-2.07973e-05 -1.84908e-05        00000 
-3.56226e-05 -5.14232e-06        00000 
-5.34670e-05 -2.42896e-05        00000 
-7.23278e-06 -6.34413e-05        00000 
-6.41566e-05 -1.96444e-05        00000 
-3.65422e-05  2.38450e-05        00000 
-2.43340e-05  4.59348e-05        00000 
 3.14312e-05  3.52991e-05        00000 
 6.78761e-07 -2.63254e-05        00000 
-6.21217e-05  1.30178e-05        00000 
-3.58320e-06 -1.13227e-05        00000 
 4.82257e-06 -9.47191e-06        00000 
-2.84314e-05 -1.22778e-05        00000 
-3.79663e-05  5.44290e-06        00000 
-1.05045e-05 -2.03609e-05        00000 
-5.68847e-05 -6.21196e-05        00000 
 4.04182e-21  8.91787e-21        00000 
-7.76247e-05 -5.53664e-05        00000 
-3.40733e-05  1.19903e-05        00000 
-2.34165e-21 -5.62867e-21        00000 
 1.90482e-05  2.56266e-05        00000 
 2.15127e-05  1.70358e-05        00000 
 1.90582e-21  1.33408e-20        00000 
-2.90444e-05  3.60385e-06        00000 
 2.00926e-05  4.80931e-05        00000 
-4.72559e-21  3.33706e-21        00000 
 2.24683e-05 -1.52057e-05        00000 
-2.59528e-05  3.49861e-05        00000 
-1.90582e-21 -1.90582e-21        00000 
-2.23355e-05 -1.15178e-05        00000 
-4.74063e-06 -1.35732e-05        00000 
 1.61433e-22  2.74667e-21        00000 
-5.34414e-06 -3.71565e-05        00000 
-4.93406e-05  3.72324e-05        00000 
 9.52912e-22 -2.85874e-21        00000 
 1.18771e-05  1.88246e-05        00000 
 2.54510e-05 -4.91105e-06        00000 
-7.62330e-21 -1.42937e-21        00000 
 7.35828e-06  4.92276e-05        00000 
-2.87515e-05 -8.70405e-06        00000 
 8.94739e-21 -7.60026e-22        00000 
-3.24359e-05 -9.13508e-06        00000 
-2.26044e-05 -5.31797e-05        00000 
-2.37223e-05 -2.96111e-05        00000 
-7.21394e-05 -4.49427e-05        00000 
-3.28502e-05  5.95160e-06        00000 
-5.10610e-05 -4.96780e-05        00000 
-4.82022e-05  1.86316e-05        00000 
 2.29147e-06  2.22657e-05        00000 
-1.22141e-05  1.57047e-05        00000 
-1.49926e-05 -1.78257e-06        00000 
 2.16621e-05  2.68231e-05        00000 
 1.07772e-05  5.01148e-05        00000 
 2.53919e-05  6.48144e-06        00000 
-1.95951e-05  1.01611e-05        00000 
-2.75150e-05  2.01287e-05        00000 
-1.71691e-06  1.55411e-06        00000 
-2.01973e-05  1.22231e-05        00000 
-5.33473e-05 -9.75927e-06        00000 
-2.22283e-05  7.91715e-06        00000 
-9.62425e-06 -2.43506e-05        00000 
-2.67678e-06  1.96046e-05        00000 
-2.35482e-05  1.46236e-05        00000 
-1.93575e-05 -1.99631e-05        00000 
-3.15561e-05 -8.37072e-07        00000 
-1.87840e-05  5.11085e-05        00000 
 8.12671e-07  2.59715e-05        00000 
-6.55401e-05  2.26604e-05        00000 
-4.05144e-06 -1.35114e-05        00000 
-2.55639e-05  4.25446e-05        00000 
-5.05553e-05 -2.35886e-05        00000 
-2.27106e-05  4.87338e-06        00000 
-1.03984e-05  2.14375e-05        00000 
-4.91447e-05 -1.70107e-05        00000 
 1.15579e-06  3.28879e-05        00000 
 5.19436e-05  3.22845e-05        00000 
-4.71086e-06 -2.58583e-05        00000 
-7.83578e-06  3.83332e-05        00000 
-2.27158e-05 -2.35604e-05        00000 
-5.43959e-05 -1.10448e-05        00000 
 1.57681e-05  1.04343e-05        00000 
-8.65038e-06 -8.45210e-07        00000 
-4.52987e-06 -2.98741e-05        00000 
 4.30946e-05  2.51841e-05        00000 
 2.47236e-05 -1.22419e-05        00000 
-1.94992e-05 -1.52291e-05        00000 
 9.56413e-06 -1.01709e-05        00000 
-2.15972e-05 -1.30214e-06        00000 
-1.20455e-05 -4.54083e-05        00000 
-4.08311e-05 -1.35475e-05        00000 
-2.14045e-05 -1.20762e-06        00000 
-4.18514e-05 -6.66014e-06        00000 
 1.14922e-05  3.68801e-05        00000 
-3.73527e-06 -5.47323e-06        00000 
-3.49134e-05 -2.49997e-05        00000 
-4.28846e-05 -9.04313e-06        00000 
-2.80525e-05 -7.91165e-07        00000 
-1.83414e-05 -5.30556e-05        00000 
 1.54406e-05 -2.15063e-04        00000 
-3.18442e-05  7.08552e-05        00000 
-1.27228e-05  1.86928e-08        00000 
 3.93694e-05  3.09407e-05        00000 
 1.41787e-05  4.29991e-05        00000 
 2.58407e-05  4.32552e-05        00000 
 6.23865e-06  1.44823e-05        00000 
-1.32945e-05 -2.83851e-05        00000 
-4.07050e-05 -9.82267e-06        00000 
-9.74711e-06 -7.71244e-06        00000 
-2.39110e-05 -3.57386e-05        00000 
-1.43104e-05 -3.41145e-05        00000 
-1.86564e-05  6.53634e-05        00000 
-2.24448e-05  5.38467e-05        00000 
 1.30581e-05 -3.30505e-05        00000 
-1.65163e-05 -2.98888e-05        00000 
-1.83984e-05  2.22225e-05        00000 
-1.69313e-05  1.32100e-05        00000 
-4.86900e-05  3.91983e-05        00000 
-6.46401e-05 -1.24098e-05        00000 
-5.63177e-05 -6.31502e-06        00000 
 2.14463e-05  6.94941e-05        00000 
 5.12623e-05  7.78055e-06        00000 
-2.59587e-05  6.15888e-05        00000 
 7.30632e-06  6.35324e-08        00000 
-7.45635e-06 -1.58210e-05        00000 
 5.73996e-05 -7.52444e-05        00000 
-1.23979e-05 -5.37561e-05        00000 
-1.04693e-05 -1.79614e-05        00000 
-3.51508e-05 -5.85802e-05        00000 
-9.77722e-06  2.45134e-05        00000 
 1.45518e-05  4.35530e-06        00000 
 3.66015e-05  2.15441e-05        00000 
-9.96972e-07 -2.55406e-05        00000 
-3.03787e-05 -7.16628e-05        00000 
-2.67040e-05  2.67789e-05        00000 
-1.72572e-05  1.67539e-05        00000 
-2.57204e-05 -1.72523e-05        00000 
-2.08536e-05 -3.30914e-06        00000 
-8.92089e-07  4.07926e-05        00000 
-5.84899e-05  1.14880e-05        00000 
-5.29492e-06 -6.81782e-05        00000 
-3.73160e-05 -1.77963e-05        00000 
 7.17427e-06  4.72951e-05        00000 
-8.25378e-06  1.53568e-05        00000 
-2.11347e-06 -5.57739e-06        00000 
-1.70596e-05  8.98881e-06        00000 
 1.88476e-05  1.12929e-05        00000 
 4.34927e-05  6.01887e-05        00000 
 3.16152e-05  2.90756e-05        00000 
-4.51918e-05  3.13431e-05        00000 
-8.60637e-06 -2.37747e-05        00000 
-4.73459e-05  1.10086e-04        00000 
 4.17057e-05  5.26276e-06        00000 
 1.84474e-05  6.83233e-06        00000 
 2.64576e-06  5.94829e-08        00000 
-2.03407e-05 -6.67232e-06        00000 
 8.27566e-05  1.86370e-05        00000 
 3.81487e-05  5.38100e-05        00000 
-2.29568e-05 -1.75883e-05        00000 
-3.19042e-05 -4.98824e-05        00000 
-2.49998e-05  1.13085e-04        00000 
 6.13023e-05  5.42512e-05        00000 
 1.63317e-05  3.81753e-05        00000 
-1.67582e-06 -4.90854e-06        00000 
-3.20227e-05 -4.98230e-05        00000 
 5.60074e-05  1.17271e-04        00000 
 2.23691e-05  4.16007e-05        00000 
 2.83911e-05 -1.70980e-05        00000 
 3.58615e-07 -9.35266e-06        00000 
-3.15930e-05 -1.20463e-05        00000 
 2.39572e-06 -6.03974e-05        00000 
-3.11843e-06 -2.89689e-05        00000 
 3.07456e-05  1.11736e-05        00000 
-8.62408e-05 -1.80846e-05        00000 
 5.21569e-05  2.06955e-05        00000 
 1.40628e-05  3.19252e-05        00000 
-8.39206e-06  5.12899e-05        00000 
 3.04192e-05  3.24791e-05        00000 
 7.54950e-05  1.76239e-05        00000 
 5.94337e-05 -6.39710e-06        00000 
 8.97359e-05  1.16519e-04        00000 
 7.50228e-05 -1.61260e-05        00000 
 3.16589e-05  9.56957e-06        00000 
 2.52038e-05 -3.94683e-06        00000 
 1.32337e-05 -3.39696e-06        00000 
 9.67642e-06  7.68413e-06        00000 
 2.25985e-05  3.20461e-05        00000 
 1.96677e-05 -1.79200e-05        00000 
 3.06975e-05 -2.08249e-05        00000 
 6.27961e-06 -2.07761e-05        00000 
 3.58552e-05  1.51659e-05        00000 
 2.94652e-05 -7.68935e-06        00000 
 3.91792e-05  9.70663e-06        00000 
 3.03144e-05  7.97888e-06        00000 
 1.54978e-05  3.36054e-05        00000 
 6.99968e-06 -1.45929e-05        00000 
-2.43304e-05 -3.29045e-05        00000 
-3.35158e-05  2.20766e-05        00000 
 6.22417e-06 -2.35115e-05        00000 
 1.98016e-05 -2.88510e-05        00000 
 7.02045e-06  4.81873e-05        00000 
 4.20529e-05  1.03295e-05        00000 
 6.64288e-06 -8.10157e-06        00000 
 4.02312e-05  5.98656e-06        00000 
-3.06991e-05 -4.67598e-05        00000 
 4.26283e-05  9.40965e-05        00000 
 3.91030e-05  6.27880e-05        00000 
 5.51325e-05  4.85905e-06        00000 
 2.48907e-05  2.35558e-05        00000 
 4.20504e-05  2.80947e-05        00000 
 1.83441e-05  2.68228e-05        00000 
 5.88954e-05  9.73831e-06        00000 
 2.02045e-05  1.44307e-05        00000 
 5.83466e-05 -8.78047e-07        00000 
 1.17744e-05  3.26835e-05        00000 
-6.92436e-06  1.62320e-06        00000 
 7.04582e-07  8.24335e-06        00000 
 5.29500e-06 -1.55682e-05        00000 
-2.91384e-05  8.34908e-05        00000 
 6.91053e-05  4.29762e-05        00000 
 2.91748e-05  3.94411e-05        00000 
-5.42101e-06  4.05507e-05        00000 
 2.46141e-05 -5.22584e-05        00000 
 4.46083e-05  4.68495e-05        00000 
-1.42328e-05  2.84703e-05        00000 
 8.37849e-05  2.14895e-05        00000 
-2.36313e-05 -6.63598e-05        00000 
 4.67989e-05  2.28840e-06        00000 
 1.18089e-05 -2.08867e-05        00000 
 1.17307e-05  2.60058e-05        00000 
-1.22701e-06  6.89214e-05        00000 
 2.93975e-05 -8.11388e-05        00000 
 3.47890e-05  1.37740e-04        00000 
-1.83601e-05 -4.51729e-05        00000 
-1.47188e-05 -1.17810e-05        00000 
 3.06979e-05  3.86308e-05        00000 
-2.41682e-05 -8.23173e-06        00000 
-1.52037e-05  1.21645e-05        00000 
-3.37833e-05 -1.24957e-05        00000 
-2.04656e-05 -3.04490e-05        00000 
-2.66978e-05 -1.41294e-05        00000 
 1.86227e-05  8.28537e-06        00000 
-1.64323e-05  4.66366e-05        00000 
-1.46668e-05 -9.56673e-06        00000 
-2.82913e-05  1.36186e-05        00000 
-6.00370e-05  3.59912e-05        00000 
 6.56435e-05 -1.65805e-05        00000 
 3.28063e-05 -2.37304e-05        00000 
-3.77701e-05 -2.64943e-06        00000 
 3.64767e-05 -2.08057e-05        00000 
-2.58042e-05  1.80728e-05        00000 
-2.49923e-05 -1.30131e-05        00000 
-6.15678e-05 -9.09121e-06        00000 
-4.82567e-06 -1.84330e-05        00000 
-3.11092e-05  3.35063e-06        00000 
-1.45285e-05  5.64623e-05        00000 
-3.46861e-05 -8.05126e-06        00000 
-1.69960e-05  2.07043e-05        00000 
-2.32882e-05  4.64894e-05        00000 
-4.75122e-05 -5.35552e-05        00000 
-2.38105e-05  1.49755e-05        00000 
-9.29739e-07 -7.18858e-06        00000 
-4.83268e-05 -6.54736e-05        00000 
-4.36224e-05 -4.41452e-05        00000 
 1.63215e-05  1.19042e-05        00000 
 1.36133e-05 -5.13213e-06        00000 
 3.24626e-05 -3.24386e-05        00000 
-5.00459e-06 -2.29033e-05        00000 
-9.00732e-06 -3.64418e-05        00000 
 2.79579e-05  1.02945e-05        00000 
 2.94163e-06  3.26705e-05        00000 
 7.12653e-06 -2.50977e-05        00000 
-1.86013e-07 -1.89717e-05        00000 
 6.18415e-06 -3.42398e-05        00000 
-1.50303e-05 -5.56398e-06        00000 
-2.20930e-06 -1.64510e-05        00000 
-4.53262e-06  5.87750e-06        00000 
-5.17522e-05  4.21578e-05        00000 
-4.70607e-05 -1.54978e-05        00000 
 3.97987e-06 -2.61093e-05        00000 
-5.87159e-05 -2.34635e-05        00000 
 2.24510e-05 -3.41006e-05        00000 
-4.66174e-06 -4.22125e-06        00000 
 2.86011e-05 -3.25739e-05        00000 
-1.76682e-05 -2.08207e-05        00000 
 3.16204e-05 -3.32117e-05        00000 
 2.70282e-05  6.61500e-06        00000 
 1.99505e-06 -2.27640e-07        00000 
-1.17606e-05 -4.70008e-06        00000 
-1.34352e-05 -4.73711e-05        00000 
 1.82253e-05 -7.64870e-05        00000 
-2.53120e-05 -5.26125e-05        00000 
-1.11796e-05 -4.49527e-06        00000 
-7.32478e-06 -3.85207e-06        00000 
-2.19852e-05 -4.64211e-06        00000 
-1.16853e-05  1.21852e-05        00000 
-1.48444e-05  2.15716e-05        00000 
-8.67192e-06 -1.44403e-05        00000 
-3.34310e-05  6.83051e-06        00000 
 1.67155e-05 -3.05306e-05        00000 
 1.53572e-05  1.91986e-05        00000 
 3.73044e-05 -4.43173e-05        00000 
 1.83548e-06  2.69959e-05        00000 
-1.46796e-05 -6.80602e-05        00000 
-2.02484e-05 -1.39490e-05        00000 
-4.08119e-05 -2.85807e-05        00000 
 1.24754e-05  2.38831e-06        00000 
 2.17514e-05  2.74380e-05        00000 
-7.11831e-06 -1.54979e-06        00000 
-1.56864e-05 -2.23845e-05        00000 
-3.43037e-05 -8.07424e-06        00000 
 5.34829e-06  1.25529e-05        00000 
 3.74699e-06  3.21150e-05        00000 
 1.42953e-05  4.54387e-05        00000 
-1.57027e-05 -9.31712e-06        00000 
-3.29252e-05 -9.07734e-06        00000 
-2.84014e-05 -2.39674e-05        00000 
-3.87984e-05 -1.91080e-05        00000 
-3.58032e-06  5.22158e-05        00000 
 1.46355e-05  1.92486e-06        00000 
-2.97614e-05  2.81098e-05        00000 
-1.70805e-05 -2.26536e-05        00000 
-1.05833e-05  5.46539e-05        00000 
-7.25453e-05  1.09283e-05        00000 
 1.35010e-05  6.37295e-05        00000 
 4.39210e-05  2.50775e-05        00000 
-2.06415e-05  4.47236e-05        00000 
-2.71901e-05  1.09983e-05        00000 
-3.48951e-06  2.30145e-05        00000 
 1.72364e-05  7.95140e-05        00000 
-3.75939e-06 -3.01395e-05        00000 
 9.38586e-05  9.37397e-05        00000 
 4.23791e-05  4.03503e-05        00000 