<?xml version="1.0" encoding="utf-8"?>
<VTKFile byte_order="LittleEndian" type="UnstructuredGrid" version="0.1">
   <UnstructuredGrid>
      <Piece NumberOfCells="1296" NumberOfPoints="685">
         <Points>
            <DataArray Name="Points" NumberOfComponents="3" format="ascii" type="Float32">
0.0000 0.0000 0.0000
0.0000 0.1111 0.0000
0.0000 0.2222 0.0000
0.0000 0.3333 0.0000
0.0000 0.4444 0.0000
0.0000 0.5556 0.0000
0.0000 0.6667 0.0000
0.0000 0.7778 0.0000
0.0000 0.8889 0.0000
0.0000 1.0000 0.0000
0.2222 0.0000 0.0000
0.2222 0.1111 0.0000
0.2222 0.2222 0.0000
0.2222 0.3333 0.0000
0.2222 0.4444 0.0000
0.2222 0.5556 0.0000
0.2222 0.6667 0.0000
0.2222 0.7778 0.0000
0.2222 0.8889 0.0000
0.2222 1.0000 0.0000
0.4444 0.0000 0.0000
0.4444 0.1111 0.0000
0.4444 0.2222 0.0000
0.4444 0.3333 0.0000
0.4444 0.4444 0.0000
0.4444 0.5556 0.0000
0.4444 0.6667 0.0000
0.4444 0.7778 0.0000
0.4444 0.8889 0.0000
0.4444 1.0000 0.0000
0.6667 0.0000 0.0000
0.6667 0.1111 0.0000
0.6667 0.2222 0.0000
0.6667 0.3333 0.0000
0.6667 0.4444 0.0000
0.6667 0.5556 0.0000
0.6667 0.6667 0.0000
0.6667 0.7778 0.0000
0.6667 0.8889 0.0000
0.6667 1.0000 0.0000
0.8889 0.0000 0.0000
0.8889 0.1111 0.0000
0.8889 0.2222 0.0000
0.8889 0.3333 0.0000
0.8889 0.4444 0.0000
0.8889 0.5556 0.0000
0.8889 0.6667 0.0000
0.8889 0.7778 0.0000
0.8889 0.8889 0.0000
0.8889 1.0000 0.0000
1.1111 0.0000 0.0000
1.1111 0.1111 0.0000
1.1111 0.2222 0.0000
1.1111 0.3333 0.0000
1.1111 0.4444 0.0000
1.1111 0.5556 0.0000
1.1111 0.6667 0.0000
1.1111 0.7778 0.0000
1.1111 0.8889 0.0000
1.1111 1.0000 0.0000
1.3333 0.0000 0.0000
1.3333 0.1111 0.0000
1.3333 0.2222 0.0000
1.3333 0.3333 0.0000
1.3333 0.4444 0.0000
1.3333 0.5556 0.0000
1.3333 0.6667 0.0000
1.3333 0.7778 0.0000
1.3333 0.8889 0.0000
1.3333 1.0000 0.0000
1.5556 0.0000 0.0000
1.5556 0.1111 0.0000
1.5556 0.2222 0.0000
1.5556 0.3333 0.0000
1.5556 0.4444 0.0000
1.5556 0.5556 0.0000
1.5556 0.6667 0.0000
1.5556 0.7778 0.0000
1.5556 0.8889 0.0000
1.5556 1.0000 0.0000
1.7778 0.0000 0.0000
1.7778 0.1111 0.0000
1.7778 0.2222 0.0000
1.7778 0.3333 0.0000
1.7778 0.4444 0.0000
1.7778 0.5556 0.0000
1.7778 0.6667 0.0000
1.7778 0.7778 0.0000
1.7778 0.8889 0.0000
1.7778 1.0000 0.0000
2.0000 0.0000 0.0000
2.0000 0.1111 0.0000
2.0000 0.2222 0.0000
2.0000 0.3333 0.0000
2.0000 0.4444 0.0000
2.0000 0.5556 0.0000
2.0000 0.6667 0.0000
2.0000 0.7778 0.0000
2.0000 0.8889 0.0000
2.0000 1.0000 0.0000
0.1111 0.0556 0.0000
0.1111 0.1667 0.0000
0.1111 0.2778 0.0000
0.1111 0.3889 0.0000
0.1111 0.5000 0.0000
0.1111 0.6111 0.0000
0.1111 0.7222 0.0000
0.1111 0.8333 0.0000
0.1111 0.9444 0.0000
0.3333 0.0556 0.0000
0.3333 0.1667 0.0000
0.3333 0.2778 0.0000
0.3333 0.3889 0.0000
0.3333 0.5000 0.0000
0.3333 0.6111 0.0000
0.3333 0.7222 0.0000
0.3333 0.8333 0.0000
0.3333 0.9444 0.0000
0.5556 0.0556 0.0000
0.5556 0.1667 0.0000
0.5556 0.2778 0.0000
0.5556 0.3889 0.0000
0.5556 0.5000 0.0000
0.5556 0.6111 0.0000
0.5556 0.7222 0.0000
0.5556 0.8333 0.0000
0.5556 0.9444 0.0000
0.7778 0.0556 0.0000
0.7778 0.1667 0.0000
0.7778 0.2778 0.0000
0.7778 0.3889 0.0000
0.7778 0.5000 0.0000
0.7778 0.6111 0.0000
0.7778 0.7222 0.0000
0.7778 0.8333 0.0000
0.7778 0.9444 0.0000
1.0000 0.0556 0.0000
1.0000 0.1667 0.0000
1.0000 0.2778 0.0000
1.0000 0.3889 0.0000
1.0000 0.5000 0.0000
1.0000 0.6111 0.0000
1.0000 0.7222 0.0000
1.0000 0.8333 0.0000
1.0000 0.9444 0.0000
1.2222 0.0556 0.0000
1.2222 0.1667 0.0000
1.2222 0.2778 0.0000
1.2222 0.3889 0.0000
1.2222 0.5000 0.0000
1.2222 0.6111 0.0000
1.2222 0.7222 0.0000
1.2222 0.8333 0.0000
1.2222 0.9444 0.0000
1.4444 0.0556 0.0000
1.4444 0.1667 0.0000
1.4444 0.2778 0.0000
1.4444 0.3889 0.0000
1.4444 0.5000 0.0000
1.4444 0.6111 0.0000
1.4444 0.7222 0.0000
1.4444 0.8333 0.0000
1.4444 0.9444 0.0000
1.6667 0.0556 0.0000
1.6667 0.1667 0.0000
1.6667 0.2778 0.0000
1.6667 0.3889 0.0000
1.6667 0.5000 0.0000
1.6667 0.6111 0.0000
1.6667 0.7222 0.0000
1.6667 0.8333 0.0000
1.6667 0.9444 0.0000
1.8889 0.0556 0.0000
1.8889 0.1667 0.0000
1.8889 0.2778 0.0000
1.8889 0.3889 0.0000
1.8889 0.5000 0.0000
1.8889 0.6111 0.0000
1.8889 0.7222 0.0000
1.8889 0.8333 0.0000
1.8889 0.9444 0.0000
0.0000 0.0556 0.0000
0.0556 0.0278 0.0000
0.0556 0.0833 0.0000
0.0000 0.1667 0.0000
0.0556 0.1389 0.0000
0.0556 0.1944 0.0000
0.0000 0.2778 0.0000
0.0556 0.2500 0.0000
0.0556 0.3056 0.0000
0.0000 0.3889 0.0000
0.0556 0.3611 0.0000
0.0556 0.4167 0.0000
0.0000 0.5000 0.0000
0.0556 0.4722 0.0000
0.0556 0.5278 0.0000
0.0000 0.6111 0.0000
0.0556 0.5833 0.0000
0.0556 0.6389 0.0000
0.0000 0.7222 0.0000
0.0556 0.6944 0.0000
0.0556 0.7500 0.0000
0.0000 0.8333 0.0000
0.0556 0.8056 0.0000
0.0556 0.8611 0.0000
0.0000 0.9444 0.0000
0.0556 0.9167 0.0000
0.0556 0.9722 0.0000
0.2222 0.0556 0.0000
0.2778 0.0278 0.0000
0.2778 0.0833 0.0000
0.2222 0.1667 0.0000
0.2778 0.1389 0.0000
0.2778 0.1944 0.0000
0.2222 0.2778 0.0000
0.2778 0.2500 0.0000
0.2778 0.3056 0.0000
0.2222 0.3889 0.0000
0.2778 0.3611 0.0000
0.2778 0.4167 0.0000
0.2222 0.5000 0.0000
0.2778 0.4722 0.0000
0.2778 0.5278 0.0000
0.2222 0.6111 0.0000
0.2778 0.5833 0.0000
0.2778 0.6389 0.0000
0.2222 0.7222 0.0000
0.2778 0.6944 0.0000
0.2778 0.7500 0.0000
0.2222 0.8333 0.0000
0.2778 0.8056 0.0000
0.2778 0.8611 0.0000
0.2222 0.9444 0.0000
0.2778 0.9167 0.0000
0.2778 0.9722 0.0000
0.4444 0.0556 0.0000
0.5000 0.0278 0.0000
0.5000 0.0833 0.0000
0.4444 0.1667 0.0000
0.5000 0.1389 0.0000
0.5000 0.1944 0.0000
0.4444 0.2778 0.0000
0.5000 0.2500 0.0000
0.5000 0.3056 0.0000
0.4444 0.3889 0.0000
0.5000 0.3611 0.0000
0.5000 0.4167 0.0000
0.4444 0.5000 0.0000
0.5000 0.4722 0.0000
0.5000 0.5278 0.0000
0.4444 0.6111 0.0000
0.5000 0.5833 0.0000
0.5000 0.6389 0.0000
0.4444 0.7222 0.0000
0.5000 0.6944 0.0000
0.5000 0.7500 0.0000
0.4444 0.8333 0.0000
0.5000 0.8056 0.0000
0.5000 0.8611 0.0000
0.4444 0.9444 0.0000
0.5000 0.9167 0.0000
0.5000 0.9722 0.0000
0.6667 0.0556 0.0000
0.7222 0.0278 0.0000
0.7222 0.0833 0.0000
0.6667 0.1667 0.0000
0.7222 0.1389 0.0000
0.7222 0.1944 0.0000
0.6667 0.2778 0.0000
0.7222 0.2500 0.0000
0.7222 0.3056 0.0000
0.6667 0.3889 0.0000
0.7222 0.3611 0.0000
0.7222 0.4167 0.0000
0.6667 0.5000 0.0000
0.7222 0.4722 0.0000
0.7222 0.5278 0.0000
0.6667 0.6111 0.0000
0.7222 0.5833 0.0000
0.7222 0.6389 0.0000
0.6667 0.7222 0.0000
0.7222 0.6944 0.0000
0.7222 0.7500 0.0000
0.6667 0.8333 0.0000
0.7222 0.8056 0.0000
0.7222 0.8611 0.0000
0.6667 0.9444 0.0000
0.7222 0.9167 0.0000
0.7222 0.9722 0.0000
0.8889 0.0556 0.0000
0.9444 0.0278 0.0000
0.9444 0.0833 0.0000
0.8889 0.1667 0.0000
0.9444 0.1389 0.0000
0.9444 0.1944 0.0000
0.8889 0.2778 0.0000
0.9444 0.2500 0.0000
0.9444 0.3056 0.0000
0.8889 0.3889 0.0000
0.9444 0.3611 0.0000
0.9444 0.4167 0.0000
0.8889 0.5000 0.0000
0.9444 0.4722 0.0000
0.9444 0.5278 0.0000
0.8889 0.6111 0.0000
0.9444 0.5833 0.0000
0.9444 0.6389 0.0000
0.8889 0.7222 0.0000
0.9444 0.6944 0.0000
0.9444 0.7500 0.0000
0.8889 0.8333 0.0000
0.9444 0.8056 0.0000
0.9444 0.8611 0.0000
0.8889 0.9444 0.0000
0.9444 0.9167 0.0000
0.9444 0.9722 0.0000
1.1111 0.0556 0.0000
1.1667 0.0278 0.0000
1.1667 0.0833 0.0000
1.1111 0.1667 0.0000
1.1667 0.1389 0.0000
1.1667 0.1944 0.0000
1.1111 0.2778 0.0000
1.1667 0.2500 0.0000
1.1667 0.3056 0.0000
1.1111 0.3889 0.0000
1.1667 0.3611 0.0000
1.1667 0.4167 0.0000
1.1111 0.5000 0.0000
1.1667 0.4722 0.0000
1.1667 0.5278 0.0000
1.1111 0.6111 0.0000
1.1667 0.5833 0.0000
1.1667 0.6389 0.0000
1.1111 0.7222 0.0000
1.1667 0.6944 0.0000
1.1667 0.7500 0.0000
1.1111 0.8333 0.0000
1.1667 0.8056 0.0000
1.1667 0.8611 0.0000
1.1111 0.9444 0.0000
1.1667 0.9167 0.0000
1.1667 0.9722 0.0000
1.3333 0.0556 0.0000
1.3889 0.0278 0.0000
1.3889 0.0833 0.0000
1.3333 0.1667 0.0000
1.3889 0.1389 0.0000
1.3889 0.1944 0.0000
1.3333 0.2778 0.0000
1.3889 0.2500 0.0000
1.3889 0.3056 0.0000
1.3333 0.3889 0.0000
1.3889 0.3611 0.0000
1.3889 0.4167 0.0000
1.3333 0.5000 0.0000
1.3889 0.4722 0.0000
1.3889 0.5278 0.0000
1.3333 0.6111 0.0000
1.3889 0.5833 0.0000
1.3889 0.6389 0.0000
1.3333 0.7222 0.0000
1.3889 0.6944 0.0000
1.3889 0.7500 0.0000
1.3333 0.8333 0.0000
1.3889 0.8056 0.0000
1.3889 0.8611 0.0000
1.3333 0.9444 0.0000
1.3889 0.9167 0.0000
1.3889 0.9722 0.0000
1.5556 0.0556 0.0000
1.6111 0.0278 0.0000
1.6111 0.0833 0.0000
1.5556 0.1667 0.0000
1.6111 0.1389 0.0000
1.6111 0.1944 0.0000
1.5556 0.2778 0.0000
1.6111 0.2500 0.0000
1.6111 0.3056 0.0000
1.5556 0.3889 0.0000
1.6111 0.3611 0.0000
1.6111 0.4167 0.0000
1.5556 0.5000 0.0000
1.6111 0.4722 0.0000
1.6111 0.5278 0.0000
1.5556 0.6111 0.0000
1.6111 0.5833 0.0000
1.6111 0.6389 0.0000
1.5556 0.7222 0.0000
1.6111 0.6944 0.0000
1.6111 0.7500 0.0000
1.5556 0.8333 0.0000
1.6111 0.8056 0.0000
1.6111 0.8611 0.0000
1.5556 0.9444 0.0000
1.6111 0.9167 0.0000
1.6111 0.9722 0.0000
1.7778 0.0556 0.0000
1.8333 0.0278 0.0000
1.8333 0.0833 0.0000
1.7778 0.1667 0.0000
1.8333 0.1389 0.0000
1.8333 0.1944 0.0000
1.7778 0.2778 0.0000
1.8333 0.2500 0.0000
1.8333 0.3056 0.0000
1.7778 0.3889 0.0000
1.8333 0.3611 0.0000
1.8333 0.4167 0.0000
1.7778 0.5000 0.0000
1.8333 0.4722 0.0000
1.8333 0.5278 0.0000
1.7778 0.6111 0.0000
1.8333 0.5833 0.0000
1.8333 0.6389 0.0000
1.7778 0.7222 0.0000
1.8333 0.6944 0.0000
1.8333 0.7500 0.0000
1.7778 0.8333 0.0000
1.8333 0.8056 0.0000
1.8333 0.8611 0.0000
1.7778 0.9444 0.0000
1.8333 0.9167 0.0000
1.8333 0.9722 0.0000
0.1111 0.1111 0.0000
0.1667 0.0833 0.0000
0.1111 0.2222 0.0000
0.1667 0.1944 0.0000
0.1111 0.3333 0.0000
0.1667 0.3056 0.0000
0.1111 0.4444 0.0000
0.1667 0.4167 0.0000
0.1111 0.5556 0.0000
0.1667 0.5278 0.0000
0.1111 0.6667 0.0000
0.1667 0.6389 0.0000
0.1111 0.7778 0.0000
0.1667 0.7500 0.0000
0.1111 0.8889 0.0000
0.1667 0.8611 0.0000
0.1111 1.0000 0.0000
0.1667 0.9722 0.0000
0.3333 0.1111 0.0000
0.3889 0.0833 0.0000
0.3333 0.2222 0.0000
0.3889 0.1944 0.0000
0.3333 0.3333 0.0000
0.3889 0.3056 0.0000
0.3333 0.4444 0.0000
0.3889 0.4167 0.0000
0.3333 0.5556 0.0000
0.3889 0.5278 0.0000
0.3333 0.6667 0.0000
0.3889 0.6389 0.0000
0.3333 0.7778 0.0000
0.3889 0.7500 0.0000
0.3333 0.8889 0.0000
0.3889 0.8611 0.0000
0.3333 1.0000 0.0000
0.3889 0.9722 0.0000
0.5556 0.1111 0.0000
[...]
         <PointData>
            <DataArray Name="fValues" NumberOfComponents="3" format="ascii" type="Float64">
-7.29421e-23  2.18826e-22        00000 
 1.10195e-22  1.20034e-22        00000 
-5.98198e-22  1.74603e-23        00000 
-1.25421e-22 -3.13552e-22        00000 
 6.17810e-22  1.96275e-22        00000 
 7.05491e-23  1.25421e-22        00000 
 4.03302e-23  9.39399e-23        00000 
-1.95792e-22 -3.13268e-23        00000 
 4.40885e-22 -5.70789e-23        00000 
       00000 -1.45884e-22        00000 
-1.72674e-06 -2.76095e-07        00000 
 1.11312e-06  2.93503e-06        00000 
 2.13933e-06 -8.14185e-07        00000 
-1.22663e-06  1.23833e-07        00000 
 5.57113e-07 -1.40552e-06        00000 
-3.25919e-08  9.83567e-07        00000 
-2.91221e-07  1.57805e-07        00000 
 9.77288e-07  7.71195e-07        00000 
-7.49609e-07 -2.63681e-07        00000 
-2.11947e-07  8.28278e-07        00000 
 8.29662e-07  2.73780e-07        00000 
 2.47736e-06  2.29296e-07        00000 
 2.07814e-06 -2.11997e-06        00000 
-2.04736e-06 -3.54874e-06        00000 
 2.11102e-06 -1.59536e-06        00000 
 2.75223e-06  1.17467e-06        00000 
 2.40373e-06  1.79402e-06        00000 
 9.80657e-07 -2.98096e-06        00000 
 5.98284e-07 -9.37644e-07        00000 
 4.27642e-07 -1.79001e-06        00000 
 1.50303e-06  1.39329e-06        00000 
 6.26537e-07  2.63529e-06        00000 
 1.37241e-06  5.75758e-07        00000 
-2.69634e-06 -8.79731e-07        00000 
 1.26042e-06 -7.61500e-07        00000 
 3.83693e-06  8.73539e-07        00000 
 5.62532e-07  2.13821e-06        00000 
-7.97016e-07 -1.31202e-07        00000 
-3.42378e-07 -5.77301e-07        00000 
-2.24066e-06  7.61737e-06        00000 
-2.10234e-06  8.98695e-07        00000 
-1.58115e-07  4.26501e-06        00000 
-5.25196e-07 -2.02795e-06        00000 
 8.33033e-07  1.13345e-06        00000 
 2.49858e-08  1.49087e-06        00000 
-1.88453e-06 -7.16164e-07        00000 
-1.23689e-08  3.36424e-06        00000 
 1.75087e-06  5.67648e-07        00000 
-2.17393e-06 -1.36310e-06        00000 
-1.71096e-06  1.25398e-06        00000 
 1.42030e-06 -5.86682e-06        00000 
-5.84565e-07 -5.69254e-07        00000 
-6.71204e-07  2.96326e-06        00000 
-7.29873e-07  8.87724e-07        00000 
-7.08017e-07 -2.95350e-07        00000 
 1.38826e-06  1.48905e-06        00000 
 1.19691e-06  4.75385e-06        00000 
-4.96389e-07  5.45175e-07        00000 
-3.45626e-06 -2.46638e-06        00000 
-4.12754e-06  3.40226e-07        00000 
 6.16347e-07 -2.69569e-06        00000 
 6.88553e-07 -4.58921e-08        00000 
-1.88113e-07 -8.45587e-07        00000 
 1.55421e-06  3.31459e-06        00000 
 1.74915e-07 -1.04744e-07        00000 
 1.79164e-06 -3.81340e-07        00000 
 9.79786e-07  2.29301e-07        00000 
 4.02938e-07  2.21085e-07        00000 
-2.56657e-06  1.04071e-06        00000 
 5.09574e-07  1.27199e-06        00000 
 3.22218e-08 -2.54549e-07        00000 
 1.55825e-07  1.08643e-06        00000 
 3.65308e-06  4.96217e-07        00000 
 3.18808e-06  2.60703e-06        00000 
 7.66028e-07  1.66633e-06        00000 
-2.61570e-08 -1.73407e-06        00000 
 1.90059e-06 -1.76145e-06        00000 
-5.06858e-07  2.67594e-06        00000 
 7.20253e-07 -2.09763e-06        00000 
-3.24195e-07 -2.98924e-06        00000 
 2.78357e-06 -5.34567e-06        00000 
 1.39676e-06 -1.83059e-06        00000 
 8.74826e-07  9.82153e-08        00000 
 1.29351e-06 -2.04331e-07        00000 
 2.79323e-06  6.49375e-07        00000 
 2.31537e-06  1.97941e-07        00000 
 1.23798e-06  2.47390e-06        00000 
 1.28900e-06  1.08437e-06        00000 
-3.10576e-06  1.96631e-06        00000 
-3.57353e-07  1.06133e-05        00000 
 3.48292e-06 -7.61904e-07        00000 
 2.96418e-06  3.37656e-07        00000 
 1.22675e-06  4.64925e-08        00000 
 1.72142e-06  1.62042e-07        00000 
 4.98520e-06 -1.45823e-06        00000 
 2.44640e-06 -9.98368e-08        00000 
 1.37009e-06  2.45005e-06        00000 
 1.06438e-06  2.43779e-06        00000 
 1.45930e-06  1.20817e-06        00000 
 4.94058e-07  4.29976e-07        00000 
-8.03836e-07  1.12482e-06        00000 
 2.23164e-06  6.19559e-07        00000 
 2.11072e-06 -8.17243e-07        00000 
-4.01370e-07  1.44018e-06        00000 
-1.25162e-06  7.36270e-07        00000 
-8.94992e-07 -4.36877e-07        00000 
-2.28670e-07  5.24757e-07        00000 
-4.41338e-07  5.00865e-07        00000 
-1.46987e-06 -3.68217e-07        00000 
-6.77986e-07 -7.87014e-07        00000 
 3.42922e-06  1.39376e-06        00000 
 3.75205e-06 -1.51049e-07        00000 
 2.46701e-07 -1.25584e-06        00000 
-9.70501e-07 -5.27926e-07        00000 
 4.81006e-07  2.65112e-06        00000 
-3.27866e-09  2.30289e-06        00000 
 9.62957e-07  1.09432e-07        00000 
 1.64379e-06  4.25179e-08        00000 
 1.94574e-06  3.45058e-08        00000 
 7.39983e-07 -1.15639e-06        00000 
 2.55424e-08 -1.47612e-06        00000 
 8.44440e-08  8.91012e-08        00000 
-1.14739e-07 -1.83153e-06        00000 
 2.24641e-06  2.07734e-06        00000 
 4.23134e-07  1.09362e-06        00000 
 2.05645e-06  6.12489e-07        00000 
 3.69422e-06 -9.74587e-07        00000 
-1.30941e-06 -1.70885e-06        00000 
-1.13516e-06  6.20857e-07        00000 
-1.88515e-06  4.91192e-07        00000 
 1.83617e-06 -1.33200e-07        00000 
-3.52619e-07 -2.70305e-06        00000 
-1.43871e-07 -1.00572e-06        00000 
 1.04497e-06 -2.60446e-06        00000 
-5.67770e-07 -1.22704e-06        00000 
-2.68553e-06 -1.75662e-06        00000 
-5.31082e-07  1.52418e-06        00000 
 1.04251e-06  2.56882e-06        00000 
-7.33398e-07  2.10853e-06        00000 
 4.26986e-07 -2.20162e-06        00000 
 5.67846e-07 -1.49675e-06        00000 
-1.28968e-07 -1.89435e-06        00000 
-3.00464e-06 -7.56247e-07        00000 
-1.25090e-06  3.73038e-07        00000 
 1.02399e-06  7.71045e-07        00000 
-2.07114e-06  8.93604e-07        00000 
-1.73805e-06 -2.47627e-07        00000 
-1.90895e-06 -1.22319e-06        00000 
 1.78471e-06 -1.85372e-06        00000 
 1.82938e-06 -6.99931e-07        00000 
 3.86536e-07 -6.33366e-08        00000 
-4.93184e-07  1.03034e-06        00000 
 1.54431e-06 -1.67941e-07        00000 
-2.55587e-06 -9.16961e-07        00000 
-6.21816e-07  1.51475e-06        00000 
 3.80911e-07  4.25803e-07        00000 
-2.56451e-06  7.71877e-07        00000 
 1.55768e-06 -8.26712e-07        00000 
-3.47586e-06 -2.36497e-06        00000 
-3.21816e-06 -3.26605e-06        00000 
-1.72844e-07 -6.13360e-07        00000 
-1.41512e-06  1.47396e-06        00000 
-1.90529e-06  2.43186e-06        00000 
 1.39601e-06  4.73366e-06        00000 
 7.64166e-07  3.87175e-07        00000 
 5.22365e-07 -6.89493e-07        00000 
 6.78739e-07 -1.89505e-06        00000 
 6.98538e-07 -5.11950e-07        00000 
 2.12874e-06  2.16072e-06        00000 
 3.60857e-06  1.46857e-06        00000 
 3.51238e-06 -8.89948e-07        00000 
 1.74148e-06  2.65623e-07        00000 
-9.21152e-07  5.85536e-07        00000 
 3.96428e-07  2.08590e-06        00000 
-5.61557e-07 -1.39883e-07        00000 
 1.92933e-06  1.73654e-07        00000 
 1.99576e-06  1.98842e-06        00000 
-1.91139e-07  2.98214e-06        00000 
-3.93230e-08  2.87072e-06        00000 
 1.17264e-06  4.75798e-06        00000 
 1.02386e-09 -1.34601e-06        00000 
 1.62693e-22 -2.08440e-22        00000 
-4.07538e-07  1.03789e-06        00000 
 1.38644e-06 -2.41237e-06        00000 
-1.68307e-22  1.16204e-22        00000 
-4.54009e-07 -8.84720e-07        00000 
 6.92028e-07 -3.09841e-07        00000 
-2.38228e-22 -1.48893e-22        00000 
-3.12718e-06 -7.10348e-07        00000 
 4.48429e-07 -1.85885e-06        00000 
 3.73488e-22 -2.70941e-22        00000 
-1.61022e-06 -1.96380e-06        00000 
 2.12069e-06 -6.32242e-07        00000 
 1.78671e-22  2.97785e-23        00000 
 7.34640e-07  7.10114e-07        00000 
 1.10238e-06 -5.98228e-08        00000 
-5.13895e-23 -3.13442e-22        00000 
-1.34022e-07 -1.10725e-06        00000 
-6.81834e-07 -1.65343e-06        00000 
       00000  2.38228e-22        00000 
-7.16284e-07  1.99067e-06        00000 
 5.71145e-07 -1.34739e-06        00000 
-2.97785e-22  6.14182e-23        00000 
-1.42671e-06  9.65507e-07        00000 
-1.46410e-06 -4.86229e-08        00000 
 1.22006e-22 -9.84812e-23        00000 
-1.02345e-06  8.06142e-07        00000 
-7.21096e-07 -1.50459e-06        00000 
-2.59997e-06  5.53191e-07        00000 
-1.53459e-06  3.54724e-07        00000 
 8.45439e-07  1.86151e-06        00000 
-3.93106e-07 -6.61124e-07        00000 
 6.23642e-07  3.25304e-06        00000 
-2.95967e-06 -5.45239e-07        00000 
-2.08867e-06 -2.90064e-06        00000 
-1.10748e-06  1.56530e-06        00000 
-2.10519e-07 -2.06220e-06        00000 
-1.35157e-06 -2.38101e-07        00000 
 1.65120e-06 -7.19226e-07        00000 
-2.65807e-06 -2.48837e-06        00000 
-3.15283e-06 -1.07620e-06        00000 
-6.98177e-07  1.49693e-06        00000 
-1.70611e-06  2.91800e-06        00000 
-1.11889e-06 -2.26834e-06        00000 
 2.06538e-07  6.31541e-07        00000 
-1.30964e-06  1.11657e-06        00000 
-6.35014e-07 -4.70536e-06        00000 
-1.20200e-06  1.84185e-06        00000 
-1.74764e-06  8.02083e-07        00000 
-1.71836e-06  1.18772e-06        00000 
 7.82090e-07  3.34152e-07        00000 
-1.72313e-06 -3.91024e-07        00000 
-1.68713e-06  2.58306e-06        00000 
-4.20420e-07 -5.41324e-07        00000 
-1.56982e-06  3.44995e-06        00000 
 9.59657e-07 -2.06184e-06        00000 
 2.96952e-06 -3.41284e-06        00000 
 4.95641e-07  1.87124e-07        00000 
 1.09364e-06 -2.06671e-06        00000 
 4.77221e-07 -9.22648e-07        00000 
-1.81083e-06 -2.05958e-06        00000 
-1.14030e-06 -2.02685e-06        00000 
 1.95647e-07  4.47377e-07        00000 
 9.55569e-07 -6.01528e-07        00000 
 2.48821e-06  1.83026e-07        00000 
-3.30763e-08 -6.07831e-07        00000 
-2.19317e-07 -2.25092e-06        00000 
 3.91559e-06  7.37997e-07        00000 
-3.50309e-06  1.28577e-07        00000 
 3.84354e-07 -1.12892e-06        00000 
 1.92826e-06  1.07911e-06        00000 
-1.05267e-06  1.03878e-07        00000 
-3.48488e-06  4.46300e-07        00000 
 3.50057e-07 -2.26426e-06        00000 
-2.58005e-06 -3.53745e-06        00000 
-2.70788e-06  1.72842e-06        00000 
 1.31072e-06 -1.99327e-06        00000 
-2.33133e-06 -3.68239e-07        00000 
-3.57954e-07 -2.79144e-07        00000 
-9.03036e-08  4.12358e-06        00000 
 2.65441e-06 -1.74599e-06        00000 
 1.89129e-06 -2.19728e-06        00000 
-1.02037e-06  1.30711e-07        00000 
 1.42565e-06 -6.13127e-07        00000 
 7.27104e-07  1.59512e-06        00000 
 7.96778e-07 -1.80568e-06        00000 
-8.34446e-07  1.67517e-06        00000 
-1.38863e-06 -1.80678e-06        00000 
-1.46442e-06 -1.07646e-06        00000 
 4.97122e-07  9.53991e-07        00000 
 1.16001e-06  1.48586e-06        00000 
-2.39579e-06 -1.52928e-07        00000 
 6.96002e-07 -2.39524e-06        00000 
 6.05784e-07 -1.61478e-06        00000 
-2.01543e-06 -1.57322e-06        00000 
-8.44436e-07  9.42149e-07        00000 
 1.84037e-07 -7.00411e-07        00000 
-1.02916e-06 -1.17353e-06        00000 
-7.59402e-07 -2.50143e-06        00000 
-9.23915e-07 -9.48288e-07        00000 
-3.37276e-06 -3.86159e-06        00000 
-8.54512e-07 -1.42276e-07        00000 
-5.10317e-06 -1.75464e-06        00000 
-6.49820e-07 -1.08764e-06        00000 
-1.78775e-06  2.28947e-06        00000 
-6.66583e-08 -7.01318e-07        00000 
-3.11673e-06  1.23580e-06        00000 
 3.89839e-06  4.94308e-06        00000 
 6.85016e-07 -4.41698e-06        00000 
-1.63362e-06  5.51082e-08        00000 
 2.44510e-07  1.58262e-06        00000 
-1.20831e-06  9.05116e-07        00000 
 3.71833e-06  2.08527e-06        00000 
 9.17848e-07  2.59041e-06        00000 
-2.44097e-06 -1.12601e-06        00000 
-2.97380e-07  4.03989e-07        00000 
-1.23835e-06  2.67430e-06        00000 
-1.09922e-06  2.70078e-06        00000 
 1.48863e-06  2.63664e-06        00000 
 8.07365e-07 -1.94692e-06        00000 
-2.33047e-06 -8.82281e-07        00000 
-1.89349e-06  8.18658e-08        00000 
-1.67971e-06 -8.56203e-07        00000 
-1.27846e-06 -1.56480e-06        00000 
-2.32263e-06 -9.27857e-07        00000 
-4.91365e-07 -1.41392e-06        00000 
-9.27825e-07 -1.59887e-06        00000 
-8.97414e-07 -4.39715e-07        00000 
-6.53413e-07  6.96535e-08        00000 
-5.94757e-07  2.28555e-06        00000 
-4.96528e-06  7.63405e-07        00000 
 9.95063e-07 -8.47067e-07        00000 
 1.02042e-07 -1.11091e-06        00000 
-1.96919e-06  1.41480e-06        00000 
 3.84100e-06  7.20673e-08        00000 
 9.64536e-07  3.58650e-07        00000 
-1.18268e-06  3.28061e-07        00000 
-2.77225e-07  6.61022e-06        00000 
-3.41960e-08 -1.65313e-06        00000 
 5.98202e-07 -2.13051e-06        00000 
-1.01352e-06  3.66279e-06        00000 
-1.80848e-07 -4.44030e-07        00000 
 8.06793e-07  1.51005e-06        00000 
-1.28069e-06  2.59366e-06        00000 
-7.07559e-07  7.96189e-09        00000 
 6.85734e-07  1.32898e-06        00000 
 7.10749e-07 -4.81612e-07        00000 
-8.21941e-07  3.73491e-07        00000 
 4.17542e-07  2.70789e-06        00000 
-1.20677e-06 -8.42617e-08        00000 
-2.92576e-06 -1.23370e-06        00000 
 1.11533e-06  1.73509e-06        00000 
 6.80879e-07 -2.34893e-06        00000 
-1.17328e-06 -2.59252e-07        00000 
 1.09223e-06  3.34337e-06        00000 
 8.82432e-08  7.18266e-08        00000 
-2.10410e-06 -7.07512e-07        00000 
-2.53961e-06  2.06440e-06        00000 
-1.91546e-06 -2.10422e-07        00000 
 1.23954e-06 -1.45619e-06        00000 
-4.13990e-06 -1.96916e-07        00000 
-1.91325e-06 -1.79500e-07        00000 
-1.12752e-06 -3.96850e-06        00000 
-1.80662e-06  9.06755e-07        00000 
 5.49769e-07  2.23276e-06        00000 
-2.61817e-06  1.64165e-06        00000 
-6.45606e-07  4.19422e-06        00000 
-5.83114e-07 -2.02829e-06        00000 
-1.56382e-07  1.74914e-06        00000 
-2.83018e-06  3.30169e-06        00000 
 6.66708e-08  4.60318e-07        00000 
-1.16927e-06  9.84162e-08        00000 
-1.21415e-06 -4.79160e-09        00000 
-5.40076e-07 -1.27037e-06        00000 
-2.31066e-06  4.76949e-07        00000 
-1.27891e-06  1.90505e-06        00000 
 1.82343e-06 -1.23859e-06        00000 
-3.52727e-06 -4.39534e-07        00000 
-1.91193e-07  1.27635e-06        00000 
-2.83765e-06  8.68977e-07        00000 
-2.59708e-07  3.79897e-07        00000 
-1.04732e-07  8.08249e-07        00000 
-9.97824e-07  2.39650e-06        00000 
-2.88084e-06 -3.73605e-08        00000 
-3.94905e-06  6.38500e-07        00000 
-4.12947e-07  2.51947e-06        00000 
-7.12117e-07  2.88073e-06        00000 
-2.80963e-06 -5.93180e-07        00000 
 1.80130e-06  3.46984e-06        00000 
 6.69039e-08 -2.93044e-07        00000 
 4.81676e-08  1.80816e-06        00000 
-7.28644e-07  4.36306e-06        00000 
 1.07926e-06  2.46481e-06        00000 
 1.15397e-06  2.40743e-06        00000 
 9.97892e-07  3.00845e-06        00000 
-1.19685e-06 -5.33879e-08        00000 
 3.35085e-06  2.70679e-06        00000 
-3.85135e-08  7.35694e-07        00000 
 7.89220e-07 -3.93103e-07        00000 
 2.35400e-06  2.45303e-06        00000 
-1.16212e-07  1.42087e-06        00000 
-6.57838e-06 -1.77775e-07        00000 
 8.57938e-09 -5.04327e-07        00000 
-2.39717e-06  2.15790e-06        00000 
-3.38216e-06  1.92691e-06        00000 
 1.32539e-06 -8.96329e-07        00000 
-2.08898e-06  2.01689e-06        00000 
-2.16140e-06 -9.66848e-07        00000 
 1.75403e-06 -1.03567e-06        00000 
-1.70971e-07  2.63318e-06        00000 
-1.45390e-06  6.02984e-07        00000 
-6.26252e-07 -1.44802e-07        00000 
 1.62720e-07  3.44543e-07        00000 
-2.74393e-06  2.27036e-06        00000 
 2.89448e-06  2.31373e-06        00000 
 3.34774e-07  1.09324e-06        00000 
 3.36778e-07  5.67623e-06        00000 
 5.49355e-07  5.12526e-07        00000 
 2.23368e-06  3.95195e-06        00000 
 1.02245e-06 -2.38813e-06        00000 
 9.46329e-09  2.46861e-07        00000 
-2.18741e-07  5.78449e-07        00000 
 2.69540e-07 -1.28664e-06        00000 
 1.28302e-06  2.40247e-06        00000 
 6.54712e-07  4.29797e-06        00000 
-2.29651e-06  8.15653e-07        00000 
-1.04871e-06  4.84329e-07        00000 
-1.64233e-06  2.94293e-06        00000 
-5.93181e-07  1.44256e-06        00000 
 9.86951e-07  2.67947e-06        00000 
 6.60839e-07  2.65799e-06        00000 
-1.82032e-06  1.51638e-06        00000 
-4.41606e-07 -1.52935e-06        00000 
 4.21058e-07  1.25973e-06        00000 
-6.30941e-07  6.74529e-07        00000 
 6.78981e-07  3.68958e-07        00000 
-2.65919e-06  1.45447e-07        00000 
 1.23173e-06  1.61616e-06        00000 
-1.03090e-07  1.14228e-06        00000 
-7.24956e-07  2.12419e-06        00000 
 1.84899e-06 -3.78761e-06        00000 
 2.04789e-06 -1.62920e-06        00000 
-1.12531e-06  6.83977e-06        00000 
 2.02812e-06 -1.17189e-05        00000 
-1.04783e-06  4.28885e-07        00000 
-1.34722e-06 -2.96964e-06        00000 
 2.42092e-06 -2.58299e-06        00000 
 2.37018e-06  2.17896e-06        00000 
-1.92855e-07 -5.44806e-07        00000 
-5.30458e-08  5.21002e-07        00000 
 1.05614e-07 -2.19090e-06        00000 
-5.81789e-07 -1.63574e-06        00000 
-2.22169e-07  1.83317e-07        00000 
-9.74760e-07  9.63488e-07        00000 
-4.44902e-07  2.19100e-06        00000 
-2.35575e-07  1.15904e-06        00000 
 2.05522e-06 -7.59985e-07        00000 
-1.38866e-06 -8.42226e-07        00000 
-1.18696e-06  2.75634e-07        00000 
 2.20080e-06  1.28971e-06        00000 
-1.42633e-06  1.53940e-06        00000 
 2.08852e-08  2.18145e-06        00000 
 2.16327e-06 -9.70074e-07        00000 
 2.00496e-06 -2.93818e-06        00000 
 1.96594e-06  6.32621e-08        00000 
 1.93638e-06 -1.25049e-06        00000 
-3.54493e-07  6.92541e-07        00000 
-4.92200e-07 -7.28757e-07        00000 
-7.03722e-07  3.81652e-07        00000 
 3.40508e-07 -1.68618e-07        00000 
-1.03593e-06  1.97019e-06        00000 
 2.75798e-08  1.46338e-06        00000 
-1.78627e-06  9.64701e-07        00000 
-1.02468e-06  4.64987e-07        00000 
-2.74337e-07  1.07377e-06        00000 
-1.06822e-06 -1.62953e-07        00000 
-1.46577e-06 -2.48277e-06        00000 
 6.45407e-07  1.51839e-07        00000 
-2.14144e-07 -3.62312e-06        00000 
 2.80455e-06  4.30280e-06        00000 
-4.32296e-07  1.42141e-06        00000 
 3.72162e-07 -4.45006e-07        00000 
 1.08725e-06 -1.52106e-07        00000 
 1.42905e-07  1.87178e-06        00000 
-5.57729e-07  1.68524e-06        00000 
 2.93619e-06  1.59632e-06        00000 
-6.19847e-07 -3.93612e-07        00000 
 1.28431e-06 -1.66754e-06        00000 
-9.03544e-07  6.02995e-07        00000 
 2.42645e-06  1.88877e-06        00000 
-8.44587e-07  1.36692e-06        00000 
 8.95041e-07  2.32992e-06        00000 
 5.78280e-07  1.42325e-06        00000 
-1.85119e-08  1.66465e-06        00000 
 1.65107e-06  1.22409e-06        00000 
 9.62874e-07 -1.07722e-06        00000 
 9.57921e-07  1.79105e-06        00000 
 1.11183e-07 -1.25887e-06        00000 
-7.50451e-09  5.29059e-06        00000 
 1.55241e-07 -7.72070e-07        00000 
 6.87936e-07  2.20603e-06        00000 
-2.06577e-06  3.90812e-06        00000 
-2.21249e-06  1.63355e-06        00000 
-1.39077e-06  1.34912e-06        00000 
 3.26636e-07 -1.07843e-06        00000 
 1.40006e-07 -1.35944e-07        00000 
 1.82132e-06 -3.23620e-07        00000 
 1.00575e-06  2.21694e-06        00000 
 2.54069e-07  2.21511e-06        00000 
-4.38901e-06  2.17285e-06        00000 
-1.57355e-07 -8.36626e-07        00000 
-7.08492e-08  1.17966e-06        00000 
-1.22248e-06  2.48518e-06        00000 
-4.28386e-07 -7.22633e-07        00000 
 3.87358e-07  4.90779e-06        00000 
-1.14899e-06 -3.81613e-06        00000 
-1.10136e-06  2.51930e-06        00000 