<?xml version="1.0" encoding="utf-8"?>
<VTKFile byte_order="LittleEndian" type="UnstructuredGrid" version="0.1">
   <UnstructuredGrid>
      <Piece NumberOfCells="1296" NumberOfPoints="685">
         <Points>
            <DataArray Name="Points" NumberOfComponents="3" format="ascii" type="Float32">
0.0000 0.0000 0.0000
0.0000 0.1111 0.0000
0.0000 0.2222 0.0000
0.0000 0.3333 0.0000
0.0000 0.4444 0.0000
0.0000 0.5556 0.0000
0.0000 0.6667 0.0000
0.0000 0.7778 0.0000
0.0000 0.8889 0.0000
0.0000 1.0000 0.0000
0.2222 0.0000 0.0000
0.2222 0.1111 0.0000
0.2222 0.2222 0.0000
0.2222 0.3333 0.0000
0.2222 0.4444 0.0000
0.2222 0.5556 0.0000
0.2222 0.6667 0.0000
0.2222 0.7778 0.0000
0.2222 0.8889 0.0000
0.2222 1.0000 0.0000
0.4444 0.0000 0.0000
0.4444 0.1111 0.0000
0.4444 0.2222 0.0000
0.4444 0.3333 0.0000
0.4444 0.4444 0.0000
0.4444 0.5556 0.0000
0.4444 0.6667 0.0000
0.4444 0.7778 0.0000
0.4444 0.8889 0.0000
0.4444 1.0000 0.0000
0.6667 0.0000 0.0000
0.6667 0.1111 0.0000
0.6667 0.2222 0.0000
0.6667 0.3333 0.0000
0.6667 0.4444 0.0000
0.6667 0.5556 0.0000
0.6667 0.6667 0.0000
0.6667 0.7778 0.0000
0.6667 0.8889 0.0000
0.6667 1.0000 0.0000
0.8889 0.0000 0.0000
0.8889 0.1111 0.0000
0.8889 0.2222 0.0000
0.8889 0.3333 0.0000
0.8889 0.4444 0.0000
0.8889 0.5556 0.0000
0.8889 0.6667 0.0000
0.8889 0.7778 0.0000
0.8889 0.8889 0.0000
0.8889 1.0000 0.0000
1.1111 0.0000 0.0000
1.1111 0.1111 0.0000
1.1111 0.2222 0.0000
1.1111 0.3333 0.0000
1.1111 0.4444 0.0000
1.1111 0.5556 0.0000
1.1111 0.6667 0.0000
1.1111 0.7778 0.0000
1.1111 0.8889 0.0000
1.1111 1.0000 0.0000
1.3333 0.0000 0.0000
1.3333 0.1111 0.0000
1.3333 0.2222 0.0000
1.3333 0.3333 0.0000
1.3333 0.4444 0.0000
1.3333 0.5556 0.0000
1.3333 0.6667 0.0000
1.3333 0.7778 0.0000
1.3333 0.8889 0.0000
1.3333 1.0000 0.0000
1.5556 0.0000 0.0000
1.5556 0.1111 0.0000
1.5556 0.2222 0.0000
1.5556 0.3333 0.0000
1.5556 0.4444 0.0000
1.5556 0.5556 0.0000
1.5556 0.6667 0.0000
1.5556 0.7778 0.0000
1.5556 0.8889 0.0000
1.5556 1.0000 0.0000
1.7778 0.0000 0.0000
1.7778 0.1111 0.0000
1.7778 0.2222 0.0000
1.7778 0.3333 0.0000
1.7778 0.4444 0.0000
1.7778 0.5556 0.0000
1.7778 0.6667 0.0000
1.7778 0.7778 0.0000
1.7778 0.8889 0.0000
1.7778 1.0000 0.0000
2.0000 0.0000 0.0000
2.0000 0.1111 0.0000
2.0000 0.2222 0.0000
2.0000 0.3333 0.0000
2.0000 0.4444 0.0000
2.0000 0.5556 0.0000
2.0000 0.6667 0.0000
2.0000 0.7778 0.0000
2.0000 0.8889 0.0000
2.0000 1.0000 0.0000
0.1111 0.0556 0.0000
0.1111 0.1667 0.0000
0.1111 0.2778 0.0000
0.1111 0.3889 0.0000
0.1111 0.5000 0.0000
0.1111 0.6111 0.0000
0.1111 0.7222 0.0000
0.1111 0.8333 0.0000
0.1111 0.9444 0.0000
0.3333 0.0556 0.0000
0.3333 0.1667 0.0000
0.3333 0.2778 0.0000
0.3333 0.3889 0.0000
0.3333 0.5000 0.0000
0.3333 0.6111 0.0000
0.3333 0.7222 0.0000
0.3333 0.8333 0.0000
0.3333 0.9444 0.0000
0.5556 0.0556 0.0000
0.5556 0.1667 0.0000
0.5556 0.2778 0.0000
0.5556 0.3889 0.0000
0.5556 0.5000 0.0000
0.5556 0.6111 0.0000
0.5556 0.7222 0.0000
0.5556 0.8333 0.0000
0.5556 0.9444 0.0000
0.7778 0.0556 0.0000
0.7778 0.1667 0.0000
0.7778 0.2778 0.0000
0.7778 0.3889 0.0000
0.7778 0.5000 0.0000
0.7778 0.6111 0.0000
0.7778 0.7222 0.0000
0.7778 0.8333 0.0000
0.7778 0.9444 0.0000
1.0000 0.0556 0.0000
1.0000 0.1667 0.0000
1.0000 0.2778 0.0000
1.0000 0.3889 0.0000
1.0000 0.5000 0.0000
1.0000 0.6111 0.0000
1.0000 0.7222 0.0000
1.0000 0.8333 0.0000
1.0000 0.9444 0.0000
1.2222 0.0556 0.0000
1.2222 0.1667 0.0000
1.2222 0.2778 0.0000
1.2222 0.3889 0.0000
1.2222 0.5000 0.0000
1.2222 0.6111 0.0000
1.2222 0.7222 0.0000
1.2222 0.8333 0.0000
1.2222 0.9444 0.0000
1.4444 0.0556 0.0000
1.4444 0.1667 0.0000
1.4444 0.2778 0.0000
1.4444 0.3889 0.0000
1.4444 0.5000 0.0000
1.4444 0.6111 0.0000
1.4444 0.7222 0.0000
1.4444 0.8333 0.0000
1.4444 0.9444 0.0000
1.6667 0.0556 0.0000
1.6667 0.1667 0.0000
1.6667 0.2778 0.0000
1.6667 0.3889 0.0000
1.6667 0.5000 0.0000
1.6667 0.6111 0.0000
1.6667 0.7222 0.0000
1.6667 0.8333 0.0000
1.6667 0.9444 0.0000
1.8889 0.0556 0.0000
1.8889 0.1667 0.0000
1.8889 0.2778 0.0000
1.8889 0.3889 0.0000
1.8889 0.5000 0.0000
1.8889 0.6111 0.0000
1.8889 0.7222 0.0000
1.8889 0.8333 0.0000
1.8889 0.9444 0.0000
0.0000 0.0556 0.0000
0.0556 0.0278 0.0000
0.0556 0.0833 0.0000
0.0000 0.1667 0.0000
0.0556 0.1389 0.0000
0.0556 0.1944 0.0000
0.0000 0.2778 0.0000
0.0556 0.2500 0.0000
0.0556 0.3056 0.0000
0.0000 0.3889 0.0000
0.0556 0.3611 0.0000
0.0556 0.4167 0.0000
0.0000 0.5000 0.0000
0.0556 0.4722 0.0000
0.0556 0.5278 0.0000
0.0000 0.6111 0.0000
0.0556 0.5833 0.0000
0.0556 0.6389 0.0000
0.0000 0.7222 0.0000
0.0556 0.6944 0.0000
0.0556 0.7500 0.0000
0.0000 0.8333 0.0000
0.0556 0.8056 0.0000
0.0556 0.8611 0.0000
0.0000 0.9444 0.0000
0.0556 0.9167 0.0000
0.0556 0.9722 0.0000
0.2222 0.0556 0.0000
0.2778 0.0278 0.0000
0.2778 0.0833 0.0000
0.2222 0.1667 0.0000
0.2778 0.1389 0.0000
0.2778 0.1944 0.0000
0.2222 0.2778 0.0000
0.2778 0.2500 0.0000
0.2778 0.3056 0.0000
0.2222 0.3889 0.0000
0.2778 0.3611 0.0000
0.2778 0.4167 0.0000
0.2222 0.5000 0.0000
0.2778 0.4722 0.0000
0.2778 0.5278 0.0000
0.2222 0.6111 0.0000
0.2778 0.5833 0.0000
0.2778 0.6389 0.0000
0.2222 0.7222 0.0000
0.2778 0.6944 0.0000
0.2778 0.7500 0.0000
0.2222 0.8333 0.0000
0.2778 0.8056 0.0000
0.2778 0.8611 0.0000
0.2222 0.9444 0.0000
0.2778 0.9167 0.0000
0.2778 0.9722 0.0000
0.4444 0.0556 0.0000
0.5000 0.0278 0.0000
0.5000 0.0833 0.0000
0.4444 0.1667 0.0000
0.5000 0.1389 0.0000
0.5000 0.1944 0.0000
0.4444 0.2778 0.0000
0.5000 0.2500 0.0000
0.5000 0.3056 0.0000
0.4444 0.3889 0.0000
0.5000 0.3611 0.0000
0.5000 0.4167 0.0000
0.4444 0.5000 0.0000
0.5000 0.4722 0.0000
0.5000 0.5278 0.0000
0.4444 0.6111 0.0000
0.5000 0.5833 0.0000
0.5000 0.6389 0.0000
0.4444 0.7222 0.0000
0.5000 0.6944 0.0000
0.5000 0.7500 0.0000
0.4444 0.8333 0.0000
0.5000 0.8056 0.0000
0.5000 0.8611 0.0000
0.4444 0.9444 0.0000
0.5000 0.9167 0.0000
0.5000 0.9722 0.0000
0.6667 0.0556 0.0000
0.7222 0.0278 0.0000
0.7222 0.0833 0.0000
0.6667 0.1667 0.0000
0.7222 0.1389 0.0000
0.7222 0.1944 0.0000
0.6667 0.2778 0.0000
0.7222 0.2500 0.0000
0.7222 0.3056 0.0000
0.6667 0.3889 0.0000
0.7222 0.3611 0.0000
0.7222 0.4167 0.0000
0.6667 0.5000 0.0000
0.7222 0.4722 0.0000
0.7222 0.5278 0.0000
0.6667 0.6111 0.0000
0.7222 0.5833 0.0000
0.7222 0.6389 0.0000
0.6667 0.7222 0.0000
0.7222 0.6944 0.0000
0.7222 0.7500 0.0000
0.6667 0.8333 0.0000
0.7222 0.8056 0.0000
0.7222 0.8611 0.0000
0.6667 0.9444 0.0000
0.7222 0.9167 0.0000
0.7222 0.9722 0.0000
0.8889 0.0556 0.0000
0.9444 0.0278 0.0000
0.9444 0.0833 0.0000
0.8889 0.1667 0.0000
0.9444 0.1389 0.0000
0.9444 0.1944 0.0000
0.8889 0.2778 0.0000
0.9444 0.2500 0.0000
0.9444 0.3056 0.0000
0.8889 0.3889 0.0000
0.9444 0.3611 0.0000
0.9444 0.4167 0.0000
0.8889 0.5000 0.0000
0.9444 0.4722 0.0000
0.9444 0.5278 0.0000
0.8889 0.6111 0.0000
0.9444 0.5833 0.0000
0.9444 0.6389 0.0000
0.8889 0.7222 0.0000
0.9444 0.6944 0.0000
0.9444 0.7500 0.0000
0.8889 0.8333 0.0000
0.9444 0.8056 0.0000
0.9444 0.8611 0.0000
0.8889 0.9444 0.0000
0.9444 0.9167 0.0000
0.9444 0.9722 0.0000
1.1111 0.0556 0.0000
1.1667 0.0278 0.0000
1.1667 0.0833 0.0000
1.1111 0.1667 0.0000
1.1667 0.1389 0.0000
1.1667 0.1944 0.0000
1.1111 0.2778 0.0000
1.1667 0.2500 0.0000
1.1667 0.3056 0.0000
1.1111 0.3889 0.0000
1.1667 0.3611 0.0000
1.1667 0.4167 0.0000
1.1111 0.5000 0.0000
1.1667 0.4722 0.0000
1.1667 0.5278 0.0000
1.1111 0.6111 0.0000
1.1667 0.5833 0.0000
1.1667 0.6389 0.0000
1.1111 0.7222 0.0000
1.1667 0.6944 0.0000
1.1667 0.7500 0.0000
1.1111 0.8333 0.0000
1.1667 0.8056 0.0000
1.1667 0.8611 0.0000
1.1111 0.9444 0.0000
1.1667 0.9167 0.0000
1.1667 0.9722 0.0000
1.3333 0.0556 0.0000
1.3889 0.0278 0.0000
1.3889 0.0833 0.0000
1.3333 0.1667 0.0000
1.3889 0.1389 0.0000
1.3889 0.1944 0.0000
1.3333 0.2778 0.0000
1.3889 0.2500 0.0000
1.3889 0.3056 0.0000
1.3333 0.3889 0.0000
1.3889 0.3611 0.0000
1.3889 0.4167 0.0000
1.3333 0.5000 0.0000
1.3889 0.4722 0.0000
1.3889 0.5278 0.0000
1.3333 0.6111 0.0000
1.3889 0.5833 0.0000
1.3889 0.6389 0.0000
1.3333 0.7222 0.0000
1.3889 0.6944 0.0000
1.3889 0.7500 0.0000
1.3333 0.8333 0.0000
1.3889 0.8056 0.0000
1.3889 0.8611 0.0000
1.3333 0.9444 0.0000
1.3889 0.9167 0.0000
1.3889 0.9722 0.0000
1.5556 0.0556 0.0000
1.6111 0.0278 0.0000
1.6111 0.0833 0.0000
1.5556 0.1667 0.0000
1.6111 0.1389 0.0000
1.6111 0.1944 0.0000
1.5556 0.2778 0.0000
1.6111 0.2500 0.0000
1.6111 0.3056 0.0000
1.5556 0.3889 0.0000
1.6111 0.3611 0.0000
1.6111 0.4167 0.0000
1.5556 0.5000 0.0000
1.6111 0.4722 0.0000
1.6111 0.5278 0.0000
1.5556 0.6111 0.0000
1.6111 0.5833 0.0000
1.6111 0.6389 0.0000
1.5556 0.7222 0.0000
1.6111 0.6944 0.0000
1.6111 0.7500 0.0000
1.5556 0.8333 0.0000
1.6111 0.8056 0.0000
1.6111 0.8611 0.0000
1.5556 0.9444 0.0000
1.6111 0.9167 0.0000
1.6111 0.9722 0.0000
1.7778 0.0556 0.0000
1.8333 0.0278 0.0000
1.8333 0.0833 0.0000
1.7778 0.1667 0.0000
1.8333 0.1389 0.0000
1.8333 0.1944 0.0000
1.7778 0.2778 0.0000
1.8333 0.2500 0.0000
1.8333 0.3056 0.0000
1.7778 0.3889 0.0000
1.8333 0.3611 0.0000
1.8333 0.4167 0.0000
1.7778 0.5000 0.0000
1.8333 0.4722 0.0000
1.8333 0.5278 0.0000
1.7778 0.6111 0.0000
1.8333 0.5833 0.0000
1.8333 0.6389 0.0000
1.7778 0.7222 0.0000
1.8333 0.6944 0.0000
1.8333 0.7500 0.0000
1.7778 0.8333 0.0000
1.8333 0.8056 0.0000
1.8333 0.8611 0.0000
1.7778 0.9444 0.0000
1.8333 0.9167 0.0000
1.8333 0.9722 0.0000
0.1111 0.1111 0.0000
0.1667 0.0833 0.0000
0.1111 0.2222 0.0000
0.1667 0.1944 0.0000
0.1111 0.3333 0.0000
0.1667 0.3056 0.0000
0.1111 0.4444 0.0000
0.1667 0.4167 0.0000
0.1111 0.5556 0.0000
0.1667 0.5278 0.0000
0.1111 0.6667 0.0000
0.1667 0.6389 0.0000
0.1111 0.7778 0.0000
0.1667 0.7500 0.0000
0.1111 0.8889 0.0000
0.1667 0.8611 0.0000
0.1111 1.0000 0.0000
0.1667 0.9722 0.0000
0.3333 0.1111 0.0000
0.3889 0.0833 0.0000
0.3333 0.2222 0.0000
0.3889 0.1944 0.0000
0.3333 0.3333 0.0000
0.3889 0.3056 0.0000
0.3333 0.4444 0.0000
0.3889 0.4167 0.0000
0.3333 0.5556 0.0000
0.3889 0.5278 0.0000
0.3333 0.6667 0.0000
0.3889 0.6389 0.0000
0.3333 0.7778 0.0000
0.3889 0.7500 0.0000
0.3333 0.8889 0.0000
0.3889 0.8611 0.0000
0.3333 1.0000 0.0000
0.3889 0.9722 0.0000
0.5556 0.1111 0.0000
[...]
         <PointData>
            <DataArray Name="fValues" NumberOfComponents="3" format="ascii" type="Float64">
-4.45203e-27  5.34244e-26        00000 
 4.03546e-26  9.24793e-27        00000 
-4.50892e-26  2.00905e-26        00000 
 1.05257e-25 -3.06203e-26        00000 
 3.45489e-25  3.47176e-26        00000 
-1.91377e-26  1.07171e-25        00000 
-1.08549e-25 -2.17338e-26        00000 
-4.20648e-26 -7.64814e-27        00000 
-3.07537e-26  3.07537e-26        00000 
-3.56163e-26  1.78081e-26        00000 
-1.57934e-10  1.37928e-09        00000 
-1.54905e-10  8.60724e-10        00000 
 5.79560e-10 -4.13913e-10        00000 
 3.03491e-11 -2.05008e-10        00000 
-2.78320e-11 -1.06844e-09        00000 
-1.71934e-11  4.61757e-10        00000 
 2.02323e-10  2.08719e-10        00000 
 6.39798e-10  4.00952e-10        00000 
 2.56914e-11 -3.76632e-11        00000 
 2.31933e-10  7.44457e-10        00000 
-1.21558e-10  1.83928e-09        00000 
 6.51671e-10  4.50511e-10        00000 
-8.64517e-11 -2.65286e-10        00000 
-1.31406e-09 -8.95668e-10        00000 
 4.26844e-10 -4.35259e-10        00000 
 2.99927e-10 -4.99895e-10        00000 
 1.85345e-10  5.27262e-10        00000 
 2.44945e-10 -3.41579e-10        00000 
 8.15561e-11  4.78757e-10        00000 
 6.55751e-10  1.12200e-09        00000 
 2.39014e-10  4.31882e-10        00000 
 1.05210e-10  2.51152e-10        00000 
 3.79984e-10  4.87940e-10        00000 
-1.02467e-09 -2.17515e-10        00000 
 6.37193e-10 -2.34984e-10        00000 
 7.55513e-10  3.27876e-10        00000 
-6.14406e-11  8.39083e-10        00000 
-5.03505e-10 -2.51404e-10        00000 
 3.36087e-12 -3.92898e-10        00000 
-3.40357e-10  8.39862e-11        00000 
-8.73065e-10 -7.21627e-11        00000 
 4.28813e-10  1.11067e-09        00000 
-2.06825e-10 -1.61684e-11        00000 
-6.19139e-10 -2.95394e-10        00000 
-1.37248e-10  3.13840e-10        00000 
-8.59714e-10 -3.48976e-10        00000 
-5.80357e-10  6.34127e-10        00000 
-5.43011e-10 -1.78968e-10        00000 
-8.55707e-10 -4.59103e-10        00000 
-1.13928e-09  5.60192e-11        00000 
 6.15579e-10 -1.50948e-09        00000 
-5.23755e-10 -3.00666e-10        00000 
 1.74353e-10  8.29701e-11        00000 
-1.47736e-10  1.63283e-11        00000 
-2.29022e-10 -1.43217e-10        00000 
-8.27924e-11  1.63226e-10        00000 
-5.66146e-10  3.54603e-10        00000 
-4.31626e-10  3.33088e-10        00000 
-7.44663e-10  7.22693e-11        00000 
-8.18098e-10  1.66372e-09        00000 
 1.96152e-10 -3.34069e-10        00000 
-5.83128e-10  6.79563e-11        00000 
-2.06427e-10 -3.71990e-10        00000 
 2.83961e-10  6.66077e-10        00000 
 3.57375e-10  5.59140e-10        00000 
-8.68852e-11  9.28111e-11        00000 
-3.51008e-11  1.97652e-10        00000 
-8.30283e-10 -8.47322e-11        00000 
-6.75129e-10  4.59679e-10        00000 
 3.36957e-10  2.47843e-09        00000 
-7.79238e-10 -1.06706e-09        00000 
 1.70104e-10 -1.32133e-10        00000 
-1.58792e-10 -1.57428e-10        00000 
-6.51710e-11 -2.63100e-10        00000 
-2.10235e-10  3.48820e-10        00000 
-2.94563e-10  1.29035e-10        00000 
-3.95204e-10  4.88726e-10        00000 
-1.17723e-10  8.53433e-10        00000 
 1.34435e-10  4.96669e-11        00000 
-5.32488e-10 -4.83340e-10        00000 
-3.62022e-11 -1.14858e-09        00000 
-2.47383e-10 -1.80719e-10        00000 
-7.04063e-10 -4.36273e-11        00000 
-1.82524e-10 -2.04636e-11        00000 
-7.03210e-10 -3.74911e-10        00000 
-4.32465e-10 -1.43530e-12        00000 
-7.57211e-10  2.01695e-10        00000 
-5.08692e-10  6.73111e-10        00000 
-8.97103e-10  9.76300e-10        00000 
-4.65228e-10 -3.89434e-10        00000 
-3.65574e-11  5.29042e-10        00000 
 2.39822e-10  2.23423e-10        00000 
 4.89649e-10  2.16431e-11        00000 
 1.74396e-10  5.96998e-11        00000 
 4.80156e-10 -4.00078e-10        00000 
-8.72546e-11  7.63407e-11        00000 
-1.25453e-10  6.59426e-10        00000 
-2.46473e-10  2.99195e-10        00000 
 3.53054e-10 -2.04992e-10        00000 
-7.93015e-10  1.35572e-10        00000 
 3.36953e-11 -2.28038e-10        00000 
 2.27821e-10 -4.49165e-11        00000 
 6.21727e-10 -4.58433e-12        00000 
 5.03251e-11  6.25296e-10        00000 
-1.00294e-10  3.33235e-10        00000 
-2.22498e-10  4.73028e-11        00000 
-2.19604e-10  2.51339e-10        00000 
-2.48733e-10  4.13495e-10        00000 
 4.90322e-10 -9.30900e-12        00000 
-4.21497e-10 -6.58218e-10        00000 
 4.93710e-10  2.62268e-10        00000 
 4.34550e-10 -7.47988e-11        00000 
 2.61380e-10 -4.67484e-11        00000 
 1.98288e-10 -1.18654e-10        00000 
-4.69385e-11  3.59512e-10        00000 
 3.19140e-10  3.96684e-10        00000 
-1.86741e-10 -1.42341e-10        00000 
-7.93641e-11 -2.14106e-10        00000 
 4.95718e-10 -1.29575e-10        00000 
-5.11662e-11 -9.52021e-11        00000 
-3.46091e-10 -6.26095e-11        00000 
-4.77627e-11 -2.96897e-10        00000 
-1.35692e-10  3.55229e-10        00000 
 9.93793e-10  1.30481e-10        00000 
 6.45031e-10 -7.30157e-10        00000 
 5.27265e-10 -3.02450e-10        00000 
 4.76390e-10 -6.29782e-10        00000 
-4.32713e-10 -1.39522e-10        00000 
 4.80341e-10  9.18526e-10        00000 
 6.76295e-11  5.05253e-10        00000 
 6.65096e-10  7.00933e-10        00000 
-4.04540e-10  4.18275e-10        00000 
 6.89781e-10  8.58449e-10        00000 
 1.06319e-09  4.11866e-10        00000 
 7.41522e-11 -1.73131e-10        00000 
-5.81508e-11 -9.90923e-11        00000 
 3.25215e-11  6.38522e-10        00000 
 1.24368e-09  9.54643e-10        00000 
 1.83704e-10  3.24263e-10        00000 
 3.40407e-10 -2.49138e-10        00000 
 3.43690e-10  6.35339e-10        00000 
 1.20613e-09  1.27126e-09        00000 
 4.27477e-10  9.26448e-10        00000 
 6.65636e-11  5.05764e-10        00000 
 6.00977e-11  2.34685e-10        00000 
-3.23159e-10  2.82910e-10        00000 
-2.54687e-10 -4.95660e-10        00000 
 3.17442e-10 -1.40517e-10        00000 
 4.70180e-10 -9.69891e-11        00000 
 2.59178e-10  5.08265e-10        00000 
 2.14868e-11  4.28344e-10        00000 
-6.40881e-10  2.86029e-10        00000 
-6.90932e-11  3.69624e-11        00000 
-4.50086e-10 -9.28793e-10        00000 
 4.51045e-10 -2.25782e-10        00000 
-9.58067e-10 -7.28676e-10        00000 
-1.70445e-10 -1.38044e-10        00000 
 3.00844e-10  3.51008e-11        00000 
-3.23553e-10  2.33811e-10        00000 
-1.06655e-09  2.09909e-10        00000 
-3.92191e-10 -1.29290e-10        00000 
-6.89255e-10  3.85725e-10        00000 
-6.10896e-10 -2.69566e-10        00000 
-1.06230e-10  9.99194e-10        00000 
 5.00791e-11  2.71370e-10        00000 
-2.16687e-10  6.74206e-10        00000 
-4.50143e-10  4.52445e-10        00000 
 1.85764e-10  6.09845e-10        00000 
-6.98719e-10  4.83311e-10        00000 
 9.37348e-11  7.88376e-10        00000 
 3.58796e-10  5.95747e-10        00000 
-3.79146e-11  1.08064e-09        00000 
-1.35390e-10  4.00178e-10        00000 
 1.15108e-10  1.18001e-09        00000 
 2.56819e-10  7.15275e-10        00000 
 1.77465e-10  8.72689e-10        00000 
-2.35730e-10  9.07605e-10        00000 
-7.49878e-10  4.23341e-10        00000 
-7.42943e-11  1.00771e-09        00000 
 6.83258e-11  1.08172e-09        00000 
 2.44768e-10  4.01982e-10        00000 
-3.54049e-27  4.76758e-26        00000 
 2.35367e-12 -5.88162e-10        00000 
 3.54810e-10  1.21114e-10        00000 
-2.15657e-26  4.02724e-26        00000 
 4.96031e-10 -2.20945e-10        00000 
 2.77822e-12  3.67679e-11        00000 
       00000  7.27014e-27        00000 
 1.61942e-11  1.07543e-10        00000 
 4.98917e-10 -3.55051e-10        00000 
-1.03255e-26  7.78204e-26        00000 
 5.45390e-11 -5.38898e-11        00000 
 4.41386e-10  7.10732e-10        00000 
 1.16322e-25  1.09052e-26        00000 
 6.76145e-10 -8.84219e-11        00000 
-3.47229e-11  3.87452e-10        00000 
-1.82592e-26 -2.54583e-26        00000 
 6.93277e-11 -3.50622e-10        00000 
-6.35724e-10 -1.45185e-10        00000 
 7.27014e-27  1.45403e-26        00000 
 1.41980e-10  2.25129e-10        00000 
-3.49276e-12 -2.45095e-10        00000 
-5.81611e-26  5.81611e-26        00000 
-3.27173e-10 -2.02343e-10        00000 
-3.26559e-10  2.71277e-10        00000 
 2.07784e-26 -3.59652e-26        00000 
-2.89899e-10  1.29381e-11        00000 
-1.24441e-10 -5.36112e-10        00000 
-6.44409e-10 -4.81339e-11        00000 
 3.32406e-10 -1.39855e-09        00000 
 2.80593e-11  4.48065e-10        00000 
 1.19320e-10 -5.11386e-10        00000 
 3.27773e-10  5.15104e-10        00000 
-5.53204e-10 -2.29928e-10        00000 
 2.44234e-10 -6.83721e-10        00000 
 3.57890e-10  5.92767e-10        00000 
 9.37312e-10 -2.63749e-10        00000 
 3.64905e-10  4.13181e-10        00000 
 1.08195e-09 -6.54288e-10        00000 
 3.00791e-10 -6.88872e-10        00000 
-1.15659e-10 -1.68616e-11        00000 
 2.33481e-10 -9.70868e-12        00000 
 4.33985e-10  4.21649e-10        00000 
-1.19053e-10  4.37584e-10        00000 
 4.81123e-10 -2.65058e-10        00000 
 2.84182e-10 -7.47677e-11        00000 
 2.28947e-10 -5.60204e-10        00000 
 5.59847e-10 -3.47820e-11        00000 
 6.10115e-10  5.80696e-10        00000 
 3.93809e-11  1.59193e-10        00000 
 7.38702e-10  3.55810e-10        00000 
-3.09573e-10 -6.87123e-10        00000 
 3.34467e-10  4.03843e-10        00000 
 2.14779e-10  3.71585e-10        00000 
 3.01387e-10 -6.35552e-10        00000 
 4.37552e-10 -2.48100e-10        00000 
 9.73742e-10 -1.22776e-09        00000 
 7.55939e-10  5.70623e-10        00000 
 1.76573e-10 -5.28237e-10        00000 
-8.55707e-11 -1.61510e-10        00000 
-5.53577e-10 -2.03645e-10        00000 
-6.86551e-10  2.43586e-10        00000 
-4.96456e-11  6.94698e-11        00000 
 1.81799e-10 -1.60146e-10        00000 
 2.98265e-10  2.05215e-10        00000 
 2.96126e-10 -4.56087e-10        00000 
-1.62515e-10 -3.30783e-10        00000 
 5.56710e-12  2.36367e-10        00000 
-1.10968e-09 -6.22450e-10        00000 
-1.19925e-10 -1.22819e-10        00000 
-7.90514e-11 -1.80552e-10        00000 
-1.19350e-10 -4.46148e-10        00000 
 1.80236e-10  4.77367e-10        00000 
-1.46745e-10 -6.88033e-10        00000 
-3.71109e-10 -1.12205e-09        00000 
-6.08743e-10 -4.31225e-10        00000 
-9.93658e-11 -3.50408e-10        00000 
 1.86184e-10  1.57765e-10        00000 
 2.59682e-10  4.11468e-10        00000 
-3.76613e-10  1.21663e-09        00000 
 7.30516e-10  4.30756e-10        00000 
 7.48031e-10 -8.56829e-10        00000 
-2.18741e-10  1.23421e-10        00000 
-5.96145e-11  3.23098e-10        00000 
 5.42926e-10 -1.17911e-10        00000 
 5.42641e-11 -9.25944e-11        00000 
 2.12893e-10  3.74211e-10        00000 
 9.71056e-10  6.90132e-10        00000 
-6.22606e-10 -2.10015e-10        00000 
 3.84219e-10  4.74355e-10        00000 
 3.52131e-10  3.20046e-10        00000 
 2.89212e-10  4.93369e-10        00000 
 3.92959e-10  8.03514e-10        00000 
 2.23935e-10  7.00524e-11        00000 
-3.69404e-10  2.87219e-10        00000 
 3.08248e-10  1.07730e-09        00000 
-3.41771e-11  2.53937e-10        00000 
-6.00799e-10  4.17721e-10        00000 
-9.40190e-11 -1.43380e-10        00000 
 4.08420e-11  5.27638e-10        00000 
-6.39936e-10 -1.51001e-10        00000 
 1.03256e-10  4.94598e-10        00000 
-3.09498e-10 -8.53646e-11        00000 
-3.93861e-10 -8.04512e-11        00000 
-1.47594e-10  3.89100e-10        00000 
-7.87139e-11  2.35474e-10        00000 
-5.82197e-10  3.98487e-10        00000 
 9.97233e-10 -1.61151e-10        00000 
 1.11447e-09  5.90717e-10        00000 
-1.41560e-09 -9.16472e-10        00000 
 1.00528e-10 -6.72912e-10        00000 
-6.29612e-10  7.67180e-10        00000 
 4.14417e-10  3.82840e-10        00000 
 8.94005e-11  3.23979e-10        00000 
-6.78583e-10  5.59069e-10        00000 
 1.14085e-10  1.48304e-10        00000 
 7.52465e-11  5.21155e-10        00000 
 1.66196e-10 -9.44382e-11        00000 
 4.36700e-11  3.91953e-10        00000 
 5.62238e-10 -3.64437e-11        00000 
-9.62629e-10 -5.73102e-10        00000 
-7.10557e-10  6.99920e-11        00000 
-8.26361e-11  2.88473e-10        00000 
-5.11662e-10 -2.89937e-10        00000 
-2.01808e-10 -2.98250e-11        00000 
 6.63789e-11 -5.76463e-11        00000 
 1.09949e-09  5.24125e-10        00000 
-2.80949e-11 -6.05809e-11        00000 
 4.70777e-10  3.59158e-10        00000 
 7.95964e-10  8.63125e-10        00000 
-2.19458e-10  1.72971e-10        00000 
 2.29221e-11  1.25446e-10        00000 
 3.30729e-10 -3.47043e-10        00000 
 6.58957e-11  4.64389e-10        00000 
 4.46747e-10  1.43487e-10        00000 
 2.50395e-10  6.35680e-10        00000 
-3.25826e-10  4.34731e-10        00000 
 5.23215e-10  1.44763e-09        00000 
-1.47395e-10 -8.38739e-10        00000 
 3.13335e-10 -1.01636e-10        00000 
-1.10333e-10  2.67370e-10        00000 
-9.31379e-11  5.88400e-11        00000 
 3.17712e-10  1.56469e-10        00000 
-8.82494e-11  4.97899e-10        00000 
 1.17609e-10  5.30704e-11        00000 
 1.83178e-11  1.41853e-10        00000 
 1.48816e-10  9.88862e-11        00000 
 5.03348e-11 -7.33003e-10        00000 
-3.64537e-10 -1.88550e-10        00000 
 1.41227e-10  8.37517e-11        00000 
 2.02050e-10 -6.20801e-11        00000 
 2.21064e-10  3.25443e-10        00000 
 2.59689e-10  1.06517e-10        00000 
 4.07681e-10  3.27347e-10        00000 
-1.35572e-10  2.63917e-10        00000 
-3.73149e-10  8.59046e-11        00000 
-5.15087e-10  2.34408e-11        00000 
-1.24757e-10  2.91003e-10        00000 
-4.32493e-10 -1.80478e-12        00000 
 2.23139e-10  1.22938e-10        00000 
-2.78149e-10  4.50392e-10        00000 
-1.01039e-10  8.02558e-10        00000 
-5.10170e-11 -1.63573e-09        00000 
-5.64484e-10  4.78799e-10        00000 
 4.00263e-10  1.11186e-09        00000 
-1.64192e-10  1.58778e-10        00000 
-6.46793e-10  6.94094e-10        00000 
-1.17097e-10 -2.95870e-10        00000 
 1.53761e-11  5.62395e-10        00000 
-7.60309e-10  2.94101e-10        00000 
 5.55929e-11 -4.04654e-10        00000 
-1.14369e-10  7.18018e-10        00000 
-7.79153e-10 -8.50427e-10        00000 
 5.78893e-10  3.07722e-10        00000 
 2.36298e-10  5.81636e-10        00000 
-5.09885e-10  1.15456e-10        00000 
 8.15021e-10  4.97366e-10        00000 
 2.10093e-10 -4.81251e-10        00000 
-5.06901e-10  1.42748e-10        00000 
 5.85487e-12  1.28314e-09        00000 
 5.54138e-10  1.59247e-10        00000 
-7.62441e-10  6.39645e-10        00000 
 2.79641e-10  1.25745e-09        00000 
-8.23889e-10  6.43325e-11        00000 
-1.34929e-09  5.97119e-10        00000 
 9.53833e-11  2.14499e-10        00000 
 2.52129e-10  6.16566e-10        00000 
-5.54678e-10 -2.15152e-10        00000 
 6.31701e-10  6.47347e-10        00000 
-1.64846e-11 -1.39175e-09        00000 
 6.34969e-10  6.52577e-10        00000 
-1.39636e-10  1.96508e-09        00000 
-1.38158e-10 -6.14378e-10        00000 
 7.79949e-10  2.09965e-10        00000 
-1.51118e-10  9.37490e-10        00000 
-3.39924e-11  4.87859e-11        00000 
 6.35197e-10  5.78154e-10        00000 
-7.17421e-10 -1.33269e-10        00000 
 1.62771e-10  4.35648e-10        00000 
 2.95273e-10  1.68612e-10        00000 
 2.31068e-10  1.12720e-10        00000 
-3.11502e-10  6.66134e-10        00000 
-2.66965e-10 -1.38542e-10        00000 
-2.68614e-10 -2.87812e-10        00000 
 1.24913e-10  6.53969e-10        00000 
-3.94778e-10 -3.03785e-10        00000 
-4.08420e-11 -2.43062e-10        00000 
 4.69640e-10 -1.67248e-10        00000 
 4.99341e-10  9.30953e-10        00000 
 6.71776e-10  4.09912e-10        00000 
 1.07312e-09 -1.61720e-11        00000 
-4.22176e-10 -2.93980e-10        00000 
 1.14852e-10 -1.31195e-10        00000 
-8.51230e-11  5.49321e-10        00000 
-6.85390e-10  2.62446e-10        00000 
-2.29278e-10 -8.91873e-11        00000 
 3.89207e-10  9.15293e-10        00000 
-3.56522e-10 -3.66072e-11        00000 
 1.00442e-10  9.85096e-10        00000 
 1.07104e-09 -4.50612e-10        00000 
-8.15874e-10 -1.10532e-10        00000 
 7.34076e-10  6.92637e-11        00000 
 7.48059e-10 -2.70333e-10        00000 
-6.01119e-10  1.92117e-10        00000 
 3.24235e-10  3.82144e-10        00000 
 2.87628e-10 -7.31148e-11        00000 
-1.38414e-10  1.36907e-10        00000 
-2.85581e-10 -3.78847e-10        00000 
 1.05501e-10 -1.58025e-11        00000 
-6.36078e-11  4.84121e-10        00000 
-3.86081e-10  1.26761e-11        00000 
 1.03967e-10  1.08187e-10        00000 
-1.56888e-11  3.73035e-10        00000 
-1.44780e-10 -8.83773e-11        00000 
 3.38503e-10  1.45590e-10        00000 
-9.27116e-11  1.12912e-09        00000 
-2.45223e-10 -1.58849e-10        00000 
 8.12520e-10  6.84778e-10        00000 
-4.73563e-10  9.24587e-10        00000 
-4.53042e-11  5.15286e-11        00000 
 1.10947e-09  5.96330e-10        00000 
-3.07182e-10  7.81597e-12        00000 
 1.25624e-11 -1.91136e-11        00000 
-2.28113e-10  3.50497e-10        00000 
-7.71276e-10 -2.44298e-11        00000 
-2.62445e-10 -3.86805e-10        00000 
 3.73900e-10 -2.81092e-10        00000 
 5.86000e-10 -4.03677e-10        00000 
 2.31763e-10  2.75053e-10        00000 
 1.44743e-10 -2.45576e-10        00000 
 1.09156e-10  2.44583e-10        00000 
 4.18282e-10  1.65851e-10        00000 
 2.28281e-10  5.05705e-10        00000 
 6.13421e-10  2.90779e-10        00000 
 3.87067e-10  7.31479e-10        00000 
 3.38947e-10  2.51822e-10        00000 
 5.09612e-10 -2.37849e-10        00000 
-1.32593e-10 -6.69047e-11        00000 
 2.07690e-10  1.69265e-10        00000 
 5.63087e-10  1.69173e-10        00000 
 7.36209e-10  4.00604e-10        00000 
 1.39743e-10 -1.39270e-10        00000 
 3.74587e-10  6.01631e-10        00000 
 6.91950e-10  4.54136e-10        00000 
 9.94547e-11  8.28061e-10        00000 
 3.32346e-10 -2.59547e-10        00000 
 2.66382e-10  1.21825e-09        00000 
 5.01577e-10  1.86517e-10        00000 
 4.25985e-10  8.72399e-10        00000 
 6.12957e-10 -2.83578e-11        00000 
 4.06345e-10  8.75882e-10        00000 
 3.33647e-10  2.12374e-10        00000 
 1.57918e-10  5.19377e-10        00000 
-2.00617e-10  1.61791e-11        00000 
 5.65635e-10  7.54481e-10        00000 
-3.85235e-11  2.09226e-10        00000 
 1.46976e-11 -3.29619e-10        00000 
 5.15612e-11 -4.36927e-10        00000 
 3.16405e-11  5.33461e-10        00000 
 8.58076e-10 -6.63235e-10        00000 
 1.28168e-10  3.94486e-10        00000 
 1.66570e-10 -4.12967e-11        00000 
 3.77412e-10 -1.08368e-10        00000 
-2.49063e-10  5.30179e-10        00000 
-2.48285e-10  9.05274e-10        00000 
 3.13209e-10  3.94749e-10        00000 
-3.41451e-10 -4.72358e-10        00000 
 5.48547e-10 -4.92363e-10        00000 
 5.21993e-10 -1.36115e-10        00000 
 8.84112e-10  6.13554e-10        00000 
 2.09027e-10 -2.23249e-10        00000 
 5.42828e-10  1.94788e-10        00000 
 7.20682e-10 -2.43219e-10        00000 
 2.09123e-12 -2.19444e-10        00000 
 3.26686e-10  5.94831e-11        00000 
 4.45947e-10 -5.07185e-10        00000 
 9.84130e-10  2.71086e-10        00000 
 1.41673e-10  2.57643e-10        00000 
 1.28821e-10  2.88274e-10        00000 
 2.79755e-10 -9.21972e-10        00000 
 7.04233e-10  2.85972e-10        00000 
-5.08920e-10  6.74049e-10        00000 
 4.76319e-10  3.58693e-10        00000 
-1.95069e-10  5.58487e-11        00000 
 3.86905e-10 -8.52349e-10        00000 
-6.25702e-10 -7.47349e-10        00000 
 4.75524e-10 -4.48786e-10        00000 
 3.63225e-11 -1.34690e-10        00000 
 3.96611e-10 -7.67670e-11        00000 
-6.99317e-10 -1.60270e-10        00000 
-5.37597e-11 -9.12028e-10        00000 
-4.30725e-10 -1.77124e-10        00000 
-7.96291e-10  5.45484e-11        00000 
-8.60183e-11 -6.45940e-10        00000 
 5.05423e-10 -1.10509e-09        00000 
 3.13950e-10  4.18197e-10        00000 
-2.50282e-10  2.96183e-10        00000 