<?xml version="1.0" encoding="utf-8"?>
<VTKFile byte_order="LittleEndian" type="UnstructuredGrid" version="0.1">
   <UnstructuredGrid>
      <Piece NumberOfCells="1296" NumberOfPoints="685">
         <Points>
            <DataArray Name="Points" NumberOfComponents="3" format="ascii" type="Float32">
0.0000 0.0000 0.0000
0.0000 0.1111 0.0000
0.0000 0.2222 0.0000
0.0000 0.3333 0.0000
0.0000 0.4444 0.0000
0.0000 0.5556 0.0000
0.0000 0.6667 0.0000
0.0000 0.7778 0.0000
0.0000 0.8889 0.0000
0.0000 1.0000 0.0000
0.2222 0.0000 0.0000
0.2222 0.1111 0.0000
0.2222 0.2222 0.0000
0.2222 0.3333 0.0000
0.2222 0.4444 0.0000
0.2222 0.5556 0.0000
0.2222 0.6667 0.0000
0.2222 0.7778 0.0000
0.2222 0.8889 0.0000
0.2222 1.0000 0.0000
0.4444 0.0000 0.0000
0.4444 0.1111 0.0000
0.4444 0.2222 0.0000
0.4444 0.3333 0.0000
0.4444 0.4444 0.0000
0.4444 0.5556 0.0000
0.4444 0.6667 0.0000
0.4444 0.7778 0.0000
0.4444 0.8889 0.0000
0.4444 1.0000 0.0000
0.6667 0.0000 0.0000
0.6667 0.1111 0.0000
0.6667 0.2222 0.0000
0.6667 0.3333 0.0000
0.6667 0.4444 0.0000
0.6667 0.5556 0.0000
0.6667 0.6667 0.0000
0.6667 0.7778 0.0000
0.6667 0.8889 0.0000
0.6667 1.0000 0.0000
0.8889 0.0000 0.0000
0.8889 0.1111 0.0000
0.8889 0.2222 0.0000
0.8889 0.3333 0.0000
0.8889 0.4444 0.0000
0.8889 0.5556 0.0000
0.8889 0.6667 0.0000
0.8889 0.7778 0.0000
0.8889 0.8889 0.0000
0.8889 1.0000 0.0000
1.1111 0.0000 0.0000
1.1111 0.1111 0.0000
1.1111 0.2222 0.0000
1.1111 0.3333 0.0000
1.1111 0.4444 0.0000
1.1111 0.5556 0.0000
1.1111 0.6667 0.0000
1.1111 0.7778 0.0000
1.1111 0.8889 0.0000
1.1111 1.0000 0.0000
1.3333 0.0000 0.0000
1.3333 0.1111 0.0000
1.3333 0.2222 0.0000
1.3333 0.3333 0.0000
1.3333 0.4444 0.0000
1.3333 0.5556 0.0000
1.3333 0.6667 0.0000
1.3333 0.7778 0.0000
1.3333 0.8889 0.0000
1.3333 1.0000 0.0000
1.5556 0.0000 0.0000
1.5556 0.1111 0.0000
1.5556 0.2222 0.0000
1.5556 0.3333 0.0000
1.5556 0.4444 0.0000
1.5556 0.5556 0.0000
1.5556 0.6667 0.0000
1.5556 0.7778 0.0000
1.5556 0.8889 0.0000
1.5556 1.0000 0.0000
1.7778 0.0000 0.0000
1.7778 0.1111 0.0000
1.7778 0.2222 0.0000
1.7778 0.3333 0.0000
1.7778 0.4444 0.0000
1.7778 0.5556 0.0000
1.7778 0.6667 0.0000
1.7778 0.7778 0.0000
1.7778 0.8889 0.0000
1.7778 1.0000 0.0000
2.0000 0.0000 0.0000
2.0000 0.1111 0.0000
2.0000 0.2222 0.0000
2.0000 0.3333 0.0000
2.0000 0.4444 0.0000
2.0000 0.5556 0.0000
2.0000 0.6667 0.0000
2.0000 0.7778 0.0000
2.0000 0.8889 0.0000
2.0000 1.0000 0.0000
0.1111 0.0556 0.0000
0.1111 0.1667 0.0000
0.1111 0.2778 0.0000
0.1111 0.3889 0.0000
0.1111 0.5000 0.0000
0.1111 0.6111 0.0000
0.1111 0.7222 0.0000
0.1111 0.8333 0.0000
0.1111 0.9444 0.0000
0.3333 0.0556 0.0000
0.3333 0.1667 0.0000
0.3333 0.2778 0.0000
0.3333 0.3889 0.0000
0.3333 0.5000 0.0000
0.3333 0.6111 0.0000
0.3333 0.7222 0.0000
0.3333 0.8333 0.0000
0.3333 0.9444 0.0000
0.5556 0.0556 0.0000
0.5556 0.1667 0.0000
0.5556 0.2778 0.0000
0.5556 0.3889 0.0000
0.5556 0.5000 0.0000
0.5556 0.6111 0.0000
0.5556 0.7222 0.0000
0.5556 0.8333 0.0000
0.5556 0.9444 0.0000
0.7778 0.0556 0.0000
0.7778 0.1667 0.0000
0.7778 0.2778 0.0000
0.7778 0.3889 0.0000
0.7778 0.5000 0.0000
0.7778 0.6111 0.0000
0.7778 0.7222 0.0000
0.7778 0.8333 0.0000
0.7778 0.9444 0.0000
1.0000 0.0556 0.0000
1.0000 0.1667 0.0000
1.0000 0.2778 0.0000
1.0000 0.3889 0.0000
1.0000 0.5000 0.0000
1.0000 0.6111 0.0000
1.0000 0.7222 0.0000
1.0000 0.8333 0.0000
1.0000 0.9444 0.0000
1.2222 0.0556 0.0000
1.2222 0.1667 0.0000
1.2222 0.2778 0.0000
1.2222 0.3889 0.0000
1.2222 0.5000 0.0000
1.2222 0.6111 0.0000
1.2222 0.7222 0.0000
1.2222 0.8333 0.0000
1.2222 0.9444 0.0000
1.4444 0.0556 0.0000
1.4444 0.1667 0.0000
1.4444 0.2778 0.0000
1.4444 0.3889 0.0000
1.4444 0.5000 0.0000
1.4444 0.6111 0.0000
1.4444 0.7222 0.0000
1.4444 0.8333 0.0000
1.4444 0.9444 0.0000
1.6667 0.0556 0.0000
1.6667 0.1667 0.0000
1.6667 0.2778 0.0000
1.6667 0.3889 0.0000
1.6667 0.5000 0.0000
1.6667 0.6111 0.0000
1.6667 0.7222 0.0000
1.6667 0.8333 0.0000
1.6667 0.9444 0.0000
1.8889 0.0556 0.0000
1.8889 0.1667 0.0000
1.8889 0.2778 0.0000
1.8889 0.3889 0.0000
1.8889 0.5000 0.0000
1.8889 0.6111 0.0000
1.8889 0.7222 0.0000
1.8889 0.8333 0.0000
1.8889 0.9444 0.0000
0.0000 0.0556 0.0000
0.0556 0.0278 0.0000
0.0556 0.0833 0.0000
0.0000 0.1667 0.0000
0.0556 0.1389 0.0000
0.0556 0.1944 0.0000
0.0000 0.2778 0.0000
0.0556 0.2500 0.0000
0.0556 0.3056 0.0000
0.0000 0.3889 0.0000
0.0556 0.3611 0.0000
0.0556 0.4167 0.0000
0.0000 0.5000 0.0000
0.0556 0.4722 0.0000
0.0556 0.5278 0.0000
0.0000 0.6111 0.0000
0.0556 0.5833 0.0000
0.0556 0.6389 0.0000
0.0000 0.7222 0.0000
0.0556 0.6944 0.0000
0.0556 0.7500 0.0000
0.0000 0.8333 0.0000
0.0556 0.8056 0.0000
0.0556 0.8611 0.0000
0.0000 0.9444 0.0000
0.0556 0.9167 0.0000
0.0556 0.9722 0.0000
0.2222 0.0556 0.0000
0.2778 0.0278 0.0000
0.2778 0.0833 0.0000
0.2222 0.1667 0.0000
0.2778 0.1389 0.0000
0.2778 0.1944 0.0000
0.2222 0.2778 0.0000
0.2778 0.2500 0.0000
0.2778 0.3056 0.0000
0.2222 0.3889 0.0000
0.2778 0.3611 0.0000
0.2778 0.4167 0.0000
0.2222 0.5000 0.0000
0.2778 0.4722 0.0000
0.2778 0.5278 0.0000
0.2222 0.6111 0.0000
0.2778 0.5833 0.0000
0.2778 0.6389 0.0000
0.2222 0.7222 0.0000
0.2778 0.6944 0.0000
0.2778 0.7500 0.0000
0.2222 0.8333 0.0000
0.2778 0.8056 0.0000
0.2778 0.8611 0.0000
0.2222 0.9444 0.0000
0.2778 0.9167 0.0000
0.2778 0.9722 0.0000
0.4444 0.0556 0.0000
0.5000 0.0278 0.0000
0.5000 0.0833 0.0000
0.4444 0.1667 0.0000
0.5000 0.1389 0.0000
0.5000 0.1944 0.0000
0.4444 0.2778 0.0000
0.5000 0.2500 0.0000
0.5000 0.3056 0.0000
0.4444 0.3889 0.0000
0.5000 0.3611 0.0000
0.5000 0.4167 0.0000
0.4444 0.5000 0.0000
0.5000 0.4722 0.0000
0.5000 0.5278 0.0000
0.4444 0.6111 0.0000
0.5000 0.5833 0.0000
0.5000 0.6389 0.0000
0.4444 0.7222 0.0000
0.5000 0.6944 0.0000
0.5000 0.7500 0.0000
0.4444 0.8333 0.0000
0.5000 0.8056 0.0000
0.5000 0.8611 0.0000
0.4444 0.9444 0.0000
0.5000 0.9167 0.0000
0.5000 0.9722 0.0000
0.6667 0.0556 0.0000
0.7222 0.0278 0.0000
0.7222 0.0833 0.0000
0.6667 0.1667 0.0000
0.7222 0.1389 0.0000
0.7222 0.1944 0.0000
0.6667 0.2778 0.0000
0.7222 0.2500 0.0000
0.7222 0.3056 0.0000
0.6667 0.3889 0.0000
0.7222 0.3611 0.0000
0.7222 0.4167 0.0000
0.6667 0.5000 0.0000
0.7222 0.4722 0.0000
0.7222 0.5278 0.0000
0.6667 0.6111 0.0000
0.7222 0.5833 0.0000
0.7222 0.6389 0.0000
0.6667 0.7222 0.0000
0.7222 0.6944 0.0000
0.7222 0.7500 0.0000
0.6667 0.8333 0.0000
0.7222 0.8056 0.0000
0.7222 0.8611 0.0000
0.6667 0.9444 0.0000
0.7222 0.9167 0.0000
0.7222 0.9722 0.0000
0.8889 0.0556 0.0000
0.9444 0.0278 0.0000
0.9444 0.0833 0.0000
0.8889 0.1667 0.0000
0.9444 0.1389 0.0000
0.9444 0.1944 0.0000
0.8889 0.2778 0.0000
0.9444 0.2500 0.0000
0.9444 0.3056 0.0000
0.8889 0.3889 0.0000
0.9444 0.3611 0.0000
0.9444 0.4167 0.0000
0.8889 0.5000 0.0000
0.9444 0.4722 0.0000
0.9444 0.5278 0.0000
0.8889 0.6111 0.0000
0.9444 0.5833 0.0000
0.9444 0.6389 0.0000
0.8889 0.7222 0.0000
0.9444 0.6944 0.0000
0.9444 0.7500 0.0000
0.8889 0.8333 0.0000
0.9444 0.8056 0.0000
0.9444 0.8611 0.0000
0.8889 0.9444 0.0000
0.9444 0.9167 0.0000
0.9444 0.9722 0.0000
1.1111 0.0556 0.0000
1.1667 0.0278 0.0000
1.1667 0.0833 0.0000
1.1111 0.1667 0.0000
1.1667 0.1389 0.0000
1.1667 0.1944 0.0000
1.1111 0.2778 0.0000
1.1667 0.2500 0.0000
1.1667 0.3056 0.0000
1.1111 0.3889 0.0000
1.1667 0.3611 0.0000
1.1667 0.4167 0.0000
1.1111 0.5000 0.0000
1.1667 0.4722 0.0000
1.1667 0.5278 0.0000
1.1111 0.6111 0.0000
1.1667 0.5833 0.0000
1.1667 0.6389 0.0000
1.1111 0.7222 0.0000
1.1667 0.6944 0.0000
1.1667 0.7500 0.0000
1.1111 0.8333 0.0000
1.1667 0.8056 0.0000
1.1667 0.8611 0.0000
1.1111 0.9444 0.0000
1.1667 0.9167 0.0000
1.1667 0.9722 0.0000
1.3333 0.0556 0.0000
1.3889 0.0278 0.0000
1.3889 0.0833 0.0000
1.3333 0.1667 0.0000
1.3889 0.1389 0.0000
1.3889 0.1944 0.0000
1.3333 0.2778 0.0000
1.3889 0.2500 0.0000
1.3889 0.3056 0.0000
1.3333 0.3889 0.0000
1.3889 0.3611 0.0000
1.3889 0.4167 0.0000
1.3333 0.5000 0.0000
1.3889 0.4722 0.0000
1.3889 0.5278 0.0000
1.3333 0.6111 0.0000
1.3889 0.5833 0.0000
1.3889 0.6389 0.0000
1.3333 0.7222 0.0000
1.3889 0.6944 0.0000
1.3889 0.7500 0.0000
1.3333 0.8333 0.0000
1.3889 0.8056 0.0000
1.3889 0.8611 0.0000
1.3333 0.9444 0.0000
1.3889 0.9167 0.0000
1.3889 0.9722 0.0000
1.5556 0.0556 0.0000
1.6111 0.0278 0.0000
1.6111 0.0833 0.0000
1.5556 0.1667 0.0000
1.6111 0.1389 0.0000
1.6111 0.1944 0.0000
1.5556 0.2778 0.0000
1.6111 0.2500 0.0000
1.6111 0.3056 0.0000
1.5556 0.3889 0.0000
1.6111 0.3611 0.0000
1.6111 0.4167 0.0000
1.5556 0.5000 0.0000
1.6111 0.4722 0.0000
1.6111 0.5278 0.0000
1.5556 0.6111 0.0000
1.6111 0.5833 0.0000
1.6111 0.6389 0.0000
1.5556 0.7222 0.0000
1.6111 0.6944 0.0000
1.6111 0.7500 0.0000
1.5556 0.8333 0.0000
1.6111 0.8056 0.0000
1.6111 0.8611 0.0000
1.5556 0.9444 0.0000
1.6111 0.9167 0.0000
1.6111 0.9722 0.0000
1.7778 0.0556 0.0000
1.8333 0.0278 0.0000
1.8333 0.0833 0.0000
1.7778 0.1667 0.0000
1.8333 0.1389 0.0000
1.8333 0.1944 0.0000
1.7778 0.2778 0.0000
1.8333 0.2500 0.0000
1.8333 0.3056 0.0000
1.7778 0.3889 0.0000
1.8333 0.3611 0.0000
1.8333 0.4167 0.0000
1.7778 0.5000 0.0000
1.8333 0.4722 0.0000
1.8333 0.5278 0.0000
1.7778 0.6111 0.0000
1.8333 0.5833 0.0000
1.8333 0.6389 0.0000
1.7778 0.7222 0.0000
1.8333 0.6944 0.0000
1.8333 0.7500 0.0000
1.7778 0.8333 0.0000
1.8333 0.8056 0.0000
1.8333 0.8611 0.0000
1.7778 0.9444 0.0000
1.8333 0.9167 0.0000
1.8333 0.9722 0.0000
0.1111 0.1111 0.0000
0.1667 0.0833 0.0000
0.1111 0.2222 0.0000
0.1667 0.1944 0.0000
0.1111 0.3333 0.0000
0.1667 0.3056 0.0000
0.1111 0.4444 0.0000
0.1667 0.4167 0.0000
0.1111 0.5556 0.0000
0.1667 0.5278 0.0000
0.1111 0.6667 0.0000
0.1667 0.6389 0.0000
0.1111 0.7778 0.0000
0.1667 0.7500 0.0000
0.1111 0.8889 0.0000
0.1667 0.8611 0.0000
0.1111 1.0000 0.0000
0.1667 0.9722 0.0000
0.3333 0.1111 0.0000
0.3889 0.0833 0.0000
0.3333 0.2222 0.0000
0.3889 0.1944 0.0000
0.3333 0.3333 0.0000
0.3889 0.3056 0.0000
0.3333 0.4444 0.0000
0.3889 0.4167 0.0000
0.3333 0.5556 0.0000
0.3889 0.5278 0.0000
0.3333 0.6667 0.0000
0.3889 0.6389 0.0000
0.3333 0.7778 0.0000
0.3889 0.7500 0.0000
0.3333 0.8889 0.0000
0.3889 0.8611 0.0000
0.3333 1.0000 0.0000
0.3889 0.9722 0.0000
0.5556 0.1111 0.0000
[...]
         <PointData>
            <DataArray Name="fValues" NumberOfComponents="3" format="ascii" type="Float64">
-1.40049e-20 -1.86732e-20        00000 
-3.65217e-21 -2.41799e-20        00000 
-4.42261e-21 -1.04663e-20        00000 
 1.20404e-20        00000        00000 
-7.71757e-20  5.43031e-20        00000 
 4.01346e-21 -8.02692e-21        00000 
-2.61261e-20 -2.14045e-21        00000 
 2.85700e-20  2.00492e-20        00000 
-6.44952e-20 -1.81393e-20        00000 
 4.66830e-21 -3.73464e-20        00000 
 2.65730e-05  2.89307e-04        00000 
-3.69791e-06  1.27663e-04        00000 
 3.71433e-05  2.41276e-04        00000 
-5.07752e-04 -1.78409e-04        00000 
-1.63060e-04  4.48982e-05        00000 
-2.03798e-04  1.00876e-04        00000 
-1.07004e-04  4.32937e-05        00000 
-4.68726e-04  2.81736e-04        00000 
-2.20019e-04  8.89955e-05        00000 
-2.78906e-04 -1.13631e-03        00000 
 9.47472e-05  5.89047e-04        00000 
-9.81431e-05  2.29972e-04        00000 
 1.59432e-04 -3.89621e-04        00000 
 9.18439e-05 -4.16330e-04        00000 
-5.19054e-04 -4.94438e-04        00000 
 5.22993e-04  1.63551e-04        00000 
 1.84043e-04 -6.22758e-05        00000 
-1.93057e-04 -6.49627e-04        00000 
-8.56410e-05 -2.36174e-04        00000 
 1.39577e-04 -4.14429e-04        00000 
 8.82622e-05  1.37613e-03        00000 
 6.45191e-05  3.46980e-04        00000 
 1.32365e-04  1.18807e-04        00000 
-2.69252e-04 -5.14708e-07        00000 
-2.29260e-04  3.88543e-05        00000 
 2.92952e-04  3.86228e-04        00000 
-1.96487e-04  5.57686e-05        00000 
-5.35345e-04 -2.40413e-04        00000 
-2.77340e-04 -1.10049e-04        00000 
-1.93614e-04 -2.78126e-05        00000 
 1.03811e-04  5.24893e-04        00000 
-1.10365e-04  3.15135e-04        00000 
-3.28239e-05 -1.31240e-04        00000 
-1.07461e-04 -1.40360e-04        00000 
-6.89443e-04 -4.61709e-04        00000 
 9.70591e-05  3.08281e-04        00000 
 3.32727e-05  3.76964e-04        00000 
-1.89975e-04 -7.47261e-06        00000 
-2.92531e-05  3.51758e-04        00000 
-2.30601e-04 -8.07437e-04        00000 
 5.30006e-04  1.72300e-04        00000 
 1.81033e-04  8.38682e-05        00000 
 1.57216e-04  3.23275e-04        00000 
 4.10974e-05  5.91020e-04        00000 
-4.20962e-05  1.21492e-04        00000 
 1.08677e-04  1.94140e-04        00000 
 2.28009e-04 -9.94799e-05        00000 
-1.73125e-04  1.95464e-04        00000 
-2.37467e-04  4.65879e-05        00000 
-1.28911e-04 -4.63343e-04        00000 
 3.78590e-05 -1.57314e-04        00000 
 4.21201e-05 -2.64508e-04        00000 
 3.63173e-04 -1.88701e-04        00000 
-1.35438e-04  2.78818e-04        00000 
 1.17404e-04  2.48985e-04        00000 
-1.90494e-04  5.58531e-05        00000 
-5.04824e-04 -1.20859e-04        00000 
-3.79245e-04 -5.13222e-04        00000 
 9.60287e-05  1.81725e-05        00000 
 3.60185e-04 -3.86503e-04        00000 
-3.30050e-06 -3.22598e-04        00000 
 1.25102e-04 -2.54655e-04        00000 
 2.45037e-04  1.00277e-04        00000 
 2.67081e-04  2.28454e-04        00000 
 4.93883e-05  6.56688e-05        00000 
-5.44698e-05  2.08081e-05        00000 
-1.81597e-04  3.15379e-05        00000 
 3.50224e-04 -1.62367e-04        00000 
 3.51122e-04 -2.41938e-04        00000 
 1.50531e-04 -5.44232e-04        00000 
-2.18885e-04  3.34885e-04        00000 
-4.05645e-04  6.13772e-04        00000 
-3.91596e-04  1.66664e-05        00000 
-4.13492e-04 -7.76324e-05        00000 
-4.70724e-04 -4.80914e-04        00000 
-2.18762e-04 -3.31735e-04        00000 
 8.35716e-06  4.60363e-05        00000 
-2.64073e-04  1.78418e-04        00000 
-3.94995e-05  1.69687e-04        00000 
-3.51538e-04  7.56052e-04        00000 
-7.90947e-05  9.77977e-05        00000 
 1.65581e-04  7.77677e-06        00000 
 8.09993e-05 -1.54188e-04        00000 
-4.80037e-05  8.69198e-06        00000 
-2.98135e-04  1.95841e-04        00000 
 2.35082e-04  9.35393e-05        00000 
-3.58973e-04  3.47838e-04        00000 
 3.44787e-04  1.51063e-05        00000 
-1.28416e-05  1.51478e-04        00000 
-2.49409e-04 -2.06011e-05        00000 
 3.12123e-04  3.11920e-04        00000 
 3.49075e-05  5.15449e-04        00000 
-1.20570e-05  3.92320e-04        00000 
 2.55498e-04  1.98163e-04        00000 
 5.46775e-04 -1.94951e-05        00000 
 3.73609e-04  2.18404e-04        00000 
 6.23003e-05 -1.89206e-04        00000 
-8.04417e-05 -1.75979e-04        00000 
-7.57178e-05 -2.70967e-05        00000 
-7.23146e-06  2.04449e-04        00000 
-4.75143e-04  1.47931e-04        00000 
-1.36721e-04  1.96363e-04        00000 
-2.47506e-04  3.53277e-04        00000 
-1.25175e-04  3.72542e-04        00000 
-4.37258e-05 -3.08270e-05        00000 
-3.98859e-06 -4.26792e-05        00000 
 1.25775e-05  4.98972e-05        00000 
-3.20637e-04  4.16880e-04        00000 
 2.72843e-04 -6.29558e-05        00000 
 9.89994e-05  3.66767e-04        00000 
 3.04669e-04  3.87740e-04        00000 
 2.70734e-04  4.60184e-04        00000 
 6.97178e-05  1.72838e-04        00000 
 2.79290e-04  2.24035e-04        00000 
 2.31181e-04  3.86996e-04        00000 
-2.91740e-04  1.70864e-04        00000 
 3.42920e-05 -1.63032e-05        00000 
 3.32435e-04 -3.23308e-04        00000 
-1.98126e-04  6.98479e-05        00000 
 8.73110e-06  2.02133e-05        00000 
-5.89400e-04 -3.54746e-04        00000 
 1.56213e-04 -3.23919e-05        00000 
 7.29680e-06  1.58749e-04        00000 
 1.10710e-04  1.82416e-04        00000 
-5.66557e-04 -4.44377e-04        00000 
-3.75571e-04 -5.17097e-04        00000 
-3.87027e-05 -7.19862e-05        00000 
-1.28807e-04 -5.01479e-04        00000 
 9.25366e-05 -3.74658e-04        00000 
-3.04165e-04 -6.49030e-05        00000 
-1.19138e-04 -3.58927e-04        00000 
 8.72548e-05 -3.16125e-04        00000 
 8.57935e-05 -9.80159e-05        00000 
-2.51162e-04 -3.37560e-04        00000 
-3.58680e-05  2.09287e-04        00000 
 1.13128e-04  4.11891e-05        00000 
 5.32230e-04  1.45115e-04        00000 
 5.14127e-04 -9.55319e-06        00000 
 5.44884e-04  2.61422e-04        00000 
 2.10439e-04  2.15909e-04        00000 
 1.72466e-05  1.02666e-04        00000 
 4.56184e-04  3.35495e-04        00000 
-2.14121e-04 -2.81533e-04        00000 
-1.24176e-04 -2.18156e-05        00000 
 3.29803e-05 -3.87623e-05        00000 
-1.68021e-04  2.45861e-04        00000 
-1.72840e-04  1.53151e-04        00000 
 2.08699e-04  4.47772e-04        00000 
 1.26546e-04  5.85041e-04        00000 
 1.07083e-04  5.37500e-04        00000 
-1.08121e-04  1.45179e-04        00000 
-2.47815e-04  2.73204e-04        00000 
-2.48800e-04  6.05177e-05        00000 
-3.06139e-04 -2.77737e-04        00000 
 7.36529e-05  2.29465e-05        00000 
-4.21497e-05 -1.54050e-04        00000 
-2.58160e-04  8.08428e-06        00000 
-2.83501e-04 -5.13212e-05        00000 
-7.12377e-05 -3.47130e-04        00000 
-4.97721e-04  1.56711e-05        00000 
-3.66795e-04  2.66719e-04        00000 
-1.97587e-04  3.21598e-04        00000 
 2.40856e-04  5.24900e-04        00000 
 1.41070e-04  2.40606e-05        00000 
-2.94013e-04  1.19958e-04        00000 
-6.92645e-05 -1.17721e-05        00000 
-2.58120e-05 -1.37154e-04        00000 
-2.57229e-04 -1.97505e-04        00000 
-3.35744e-04 -3.75330e-06        00000 
 8.99380e-06 -2.71021e-04        00000 
-4.08591e-04 -5.86264e-04        00000 
 4.64517e-21  1.43492e-20        00000 
-5.03962e-04 -4.35161e-04        00000 
-3.43347e-04  7.22252e-05        00000 
 7.37102e-22 -2.11255e-20        00000 
 1.28391e-04  1.09299e-04        00000 
 1.04688e-04  1.89128e-04        00000 
 7.62330e-21  9.91029e-20        00000 
-1.37283e-04  4.14681e-05        00000 
 2.03158e-04  2.40706e-04        00000 
-1.76306e-20 -9.05052e-21        00000 
 1.13411e-04 -1.56108e-04        00000 
-2.74431e-04  1.91393e-04        00000 
-4.57398e-20 -3.04932e-20        00000 
-1.80406e-04 -1.62291e-04        00000 
-1.71352e-04 -2.21854e-04        00000 
-1.08922e-20  1.56033e-20        00000 
-1.16310e-04 -2.46447e-04        00000 
-3.38627e-04  3.47168e-05        00000 
 6.67038e-21        00000        00000 
 2.12084e-05  1.68593e-04        00000 
 1.54256e-04 -6.32270e-06        00000 
-3.04932e-20 -3.81165e-21        00000 
 7.68780e-05  3.14392e-04        00000 
-2.40005e-04 -5.87338e-05        00000 
-2.20758e-21 -8.64536e-21        00000 
-2.35663e-04 -6.95768e-05        00000 
-1.52754e-04 -1.82120e-04        00000 
-4.53667e-05 -1.71063e-04        00000 
-4.40937e-04 -2.56630e-04        00000 
-2.19509e-04 -1.42113e-04        00000 
-4.34932e-04 -4.29692e-04        00000 
-2.85869e-04  2.43632e-04        00000 
-2.91268e-05  7.22333e-05        00000 
-3.64964e-05  2.18396e-04        00000 
-4.50683e-05  1.25056e-04        00000 
 9.10005e-05  1.71763e-04        00000 
-3.67536e-05  5.07851e-04        00000 
 1.92161e-04  1.29524e-04        00000 
-1.25763e-04  6.71416e-05        00000 
-2.48500e-04  2.06061e-04        00000 
 1.21548e-04  1.14510e-04        00000 
-1.90351e-04  1.34894e-04        00000 
-4.10976e-04 -5.87007e-05        00000 
-8.13362e-05  1.44611e-04        00000 
-3.53131e-05 -1.95151e-04        00000 
-1.35266e-04  1.13091e-04        00000 
-1.55866e-04  1.44149e-04        00000 
-1.81104e-04 -2.38147e-04        00000 
-2.72492e-04 -1.29537e-04        00000 
-8.09035e-05  3.95391e-04        00000 
 1.48510e-04  1.47326e-04        00000 
-4.36316e-04  3.68179e-04        00000 
 9.33625e-05 -3.50220e-04        00000 
-1.01307e-04  1.03688e-03        00000 
-3.48181e-04 -2.34784e-04        00000 
-3.03864e-04 -4.24066e-04        00000 
-1.45447e-04  2.59601e-04        00000 
-6.34312e-04 -2.66322e-04        00000 
 5.34472e-05  1.80903e-04        00000 
 5.24893e-04  2.75366e-04        00000 
-1.45321e-04 -2.86729e-05        00000 
-7.26402e-05  2.12854e-04        00000 
-1.89982e-04 -3.73440e-04        00000 
-4.73911e-04  2.65367e-05        00000 
 1.72859e-05  1.37349e-04        00000 
-2.26177e-04 -9.33719e-05        00000 
-1.91524e-04 -2.40340e-04        00000 
 3.91325e-04  3.21609e-04        00000 
 2.72908e-04 -2.40330e-05        00000 
-9.84695e-05 -2.00450e-04        00000 
 1.35871e-04 -4.50764e-05        00000 
-2.27972e-04  5.50528e-05        00000 
-4.13382e-05 -3.76740e-04        00000 
-3.53612e-04 -7.79417e-05        00000 
-2.52733e-04  1.25549e-04        00000 
-2.02703e-04 -5.81871e-05        00000 
 1.40287e-04  3.45637e-04        00000 
-1.71436e-05 -1.89643e-05        00000 
-5.11309e-05 -7.80912e-05        00000 
-1.88671e-04 -4.82188e-05        00000 
-2.71732e-04 -1.24961e-04        00000 
-1.90324e-04 -4.99846e-04        00000 
 5.64584e-05 -1.49353e-03        00000 
-2.80162e-04  4.44797e-04        00000 
-1.49210e-05 -3.55377e-05        00000 
 2.35879e-04  1.60102e-04        00000 
 1.17448e-04  2.94197e-04        00000 
 2.48367e-04  2.38558e-04        00000 
-5.92542e-05  5.53221e-05        00000 
-8.14018e-05 -2.08624e-04        00000 
-4.33716e-04 -1.45177e-04        00000 
 3.08202e-05 -1.58829e-04        00000 
-6.76766e-05 -3.06354e-04        00000 
 1.58964e-04 -3.29277e-04        00000 
-1.32067e-04  4.04665e-04        00000 
-1.35964e-04  4.50034e-04        00000 
 9.95788e-05 -2.43968e-04        00000 
-1.41829e-04 -1.44278e-04        00000 
-1.63523e-04  2.68549e-04        00000 
-2.25214e-04  1.04362e-04        00000 
-4.39728e-04  3.51955e-04        00000 
-5.93754e-04  8.80740e-05        00000 
-3.76815e-04 -1.56765e-04        00000 
 5.39220e-06  4.25491e-04        00000 
 1.39956e-04 -1.29002e-06        00000 
-2.75020e-04  2.25695e-04        00000 
-1.57719e-04  2.79187e-04        00000 
-1.37198e-04 -4.74072e-04        00000 
 4.37362e-04 -4.12205e-04        00000 
-1.41934e-04 -3.84278e-06        00000 
-1.16900e-04 -1.74328e-04        00000 
-2.07453e-04 -4.22456e-04        00000 
-2.66076e-05  1.79843e-04        00000 
 8.18834e-05  2.26924e-04        00000 
 3.02874e-04  5.20610e-05        00000 
-2.23611e-04 -3.24935e-04        00000 
-3.52974e-04 -2.03254e-04        00000 
-2.14324e-04  9.30789e-06        00000 
-2.60003e-04  1.05512e-04        00000 
-1.23614e-04 -1.33567e-05        00000 
-2.72322e-04 -7.88220e-05        00000 
-1.54934e-04  2.90225e-04        00000 
-3.79283e-04  2.71780e-04        00000 
-1.31310e-04 -3.42221e-04        00000 
-3.29834e-04 -2.59836e-04        00000 
-4.27383e-05  5.11052e-04        00000 
-1.03420e-04  1.36950e-04        00000 
-5.27139e-05 -1.39074e-04        00000 
-1.19729e-04  1.10937e-04        00000 
-6.37760e-05 -1.28845e-04        00000 
 3.25064e-04  3.06136e-04        00000 
 2.92234e-04  2.80342e-04        00000 
-3.29207e-04  1.18078e-04        00000 
-1.87119e-04 -4.30745e-04        00000 
-4.07194e-04  8.97999e-04        00000 
 8.05218e-05 -6.34349e-05        00000 
 1.76780e-04 -9.79381e-05        00000 
-6.43021e-05 -1.21211e-04        00000 
-1.87081e-04 -8.74919e-05        00000 
 6.12108e-04  9.47843e-05        00000 
 3.73008e-04  3.99401e-04        00000 
-2.04055e-04 -2.30540e-04        00000 
-2.77474e-04 -3.13484e-04        00000 
-2.97697e-04  7.21081e-04        00000 
 3.48656e-04  8.23267e-05        00000 
-1.94080e-05  2.80322e-04        00000 
-1.93550e-06  2.15974e-04        00000 
-1.28850e-04 -3.07198e-04        00000 
 1.93514e-04  6.34371e-04        00000 
 4.98725e-05  4.02747e-04        00000 
 8.04576e-05 -2.61995e-04        00000 
-1.24867e-04 -2.58009e-04        00000 
-1.95277e-04 -2.09905e-05        00000 
 3.21334e-05 -3.99838e-04        00000 
-1.14710e-04 -4.53380e-04        00000 
 3.42746e-04  6.61229e-05        00000 
-6.01044e-04 -8.90856e-05        00000 
 4.36564e-04 -8.10560e-05        00000 
 2.29919e-04  3.44762e-04        00000 
 7.40971e-05  4.17150e-04        00000 
 2.20761e-04 -3.51545e-05        00000 
 6.12236e-04  3.46900e-04        00000 
 4.01060e-04 -8.87232e-05        00000 
 5.99802e-04  4.68939e-04        00000 
 4.99704e-04  9.50437e-05        00000 
 2.45469e-04  1.38394e-04        00000 
 2.07929e-04  1.06988e-05        00000 
 1.34221e-04  6.38911e-05        00000 
 1.24881e-04 -2.04565e-05        00000 
 1.87166e-04  2.93873e-04        00000 
 2.34071e-04  3.95464e-06        00000 
 1.69365e-04 -2.53289e-04        00000 
 1.54977e-04 -2.40536e-05        00000 
 1.86710e-04  1.18828e-04        00000 
 1.55514e-04 -1.85479e-04        00000 
 2.60457e-04  9.47929e-05        00000 
 1.81136e-04  1.01829e-04        00000 
-4.29361e-05  2.85087e-04        00000 
-5.39445e-05 -1.44078e-04        00000 
-2.39634e-04 -2.64394e-04        00000 
-3.39448e-04  1.93461e-04        00000 
 5.13201e-05 -2.33053e-04        00000 
 2.05392e-04 -1.77954e-04        00000 
 1.71693e-04  4.11673e-04        00000 
 3.88958e-04  1.33439e-04        00000 
 1.56057e-04  4.88227e-05        00000 
 3.84880e-04  1.44931e-04        00000 
-1.90404e-04 -4.58895e-04        00000 
 3.23527e-04  9.46483e-04        00000 
 2.78253e-04  4.91379e-04        00000 
 3.42267e-04  1.29015e-04        00000 
 2.19126e-04  1.26885e-05        00000 
 2.18566e-04  3.09313e-04        00000 
 1.20850e-04  2.52701e-05        00000 
 3.10356e-04  2.05186e-06        00000 
 1.58152e-04 -4.99119e-05        00000 
 3.08425e-04 -7.47794e-05        00000 
 1.05829e-04  1.81963e-04        00000 
-5.49428e-05 -1.42447e-04        00000 
-6.64539e-05 -1.01327e-06        00000 
 7.71033e-05 -1.04598e-04        00000 
-3.30571e-04  4.56477e-04        00000 
 4.28043e-04  3.91910e-04        00000 
 4.41005e-04  2.21212e-04        00000 
 3.73120e-05  2.22824e-04        00000 
 3.91066e-04 -1.79481e-04        00000 
 3.77734e-04  1.68821e-04        00000 
-6.47429e-05  1.28241e-05        00000 
 6.25389e-04  2.15813e-04        00000 
-7.63103e-05 -3.44999e-04        00000 
 3.76951e-04  9.70927e-05        00000 
 2.37707e-04 -1.31615e-04        00000 
 2.28705e-04  1.58203e-04        00000 
 1.40000e-05  3.87174e-04        00000 
 3.80553e-04 -4.88962e-04        00000 
 1.00431e-04  8.31483e-04        00000 
-1.05234e-04 -2.04052e-04        00000 
-1.74602e-04  5.39304e-04        00000 
 1.84074e-04  4.43213e-05        00000 
-1.88173e-04 -1.23676e-04        00000 
-1.04419e-04  2.56391e-04        00000 
-1.89936e-05 -7.13604e-05        00000 
-1.45165e-04 -2.24620e-04        00000 
-5.09532e-05 -2.68373e-05        00000 
 2.43977e-04 -9.11957e-07        00000 
-2.38268e-04  3.31283e-04        00000 
 8.95329e-05 -9.81613e-05        00000 
-2.44527e-04  9.85348e-06        00000 
-4.46604e-04  2.89215e-04        00000 
 4.09117e-04 -7.56402e-05        00000 
 2.64580e-04 -2.10040e-04        00000 
-1.71253e-04  1.76521e-04        00000 
 2.63215e-04 -1.12428e-04        00000 
-8.29731e-05  4.50360e-05        00000 
-2.29891e-04 -1.53715e-05        00000 
-2.65203e-04  1.13887e-04        00000 
 3.10712e-05 -5.62926e-05        00000 
-1.82194e-04 -1.46794e-04        00000 
-8.38985e-05  4.32810e-04        00000 
-1.98841e-04 -9.50311e-05        00000 
-3.17615e-05 -1.14194e-04        00000 
-2.44612e-04  6.15887e-04        00000 
-4.27786e-04 -9.74219e-04        00000 
-2.59082e-04 -3.53964e-05        00000 
-7.97595e-05 -3.01781e-04        00000 
-3.05982e-04 -4.72474e-04        00000 
-5.01512e-04 -4.45888e-04        00000 
 4.24836e-06 -1.09354e-04        00000 
 5.92550e-05 -1.14743e-04        00000 
 3.24507e-04 -4.10078e-04        00000 
-7.99449e-05 -9.11297e-05        00000 
 3.45588e-05 -2.55714e-04        00000 
 1.20357e-04  7.96514e-05        00000 
 1.36908e-05  2.65981e-04        00000 
 2.68668e-05 -2.39554e-04        00000 
 1.09991e-04 -1.05609e-04        00000 
-1.28647e-05 -2.15698e-04        00000 
-9.83132e-05 -4.92226e-05        00000 
-4.51581e-05 -6.61271e-05        00000 
 7.61172e-05 -2.62616e-04        00000 
-2.78365e-04  6.68774e-04        00000 
-2.91010e-04 -1.37897e-04        00000 
-3.16438e-05  1.45263e-05        00000 
-3.62171e-04 -2.36244e-04        00000 
 2.15808e-04 -2.22776e-04        00000 
-8.33209e-06 -9.04342e-05        00000 
 1.78766e-04 -2.54940e-04        00000 
-1.40428e-04 -1.42734e-04        00000 
 1.97181e-04 -2.54656e-04        00000 
 2.34450e-04  1.27920e-04        00000 
 2.04029e-05  1.24779e-04        00000 
-2.20761e-04 -2.89060e-05        00000 
-9.24447e-05 -4.10009e-04        00000 
 1.04483e-04 -5.55181e-04        00000 
-1.84491e-04 -3.93198e-04        00000 
-9.33477e-05 -1.50446e-04        00000 
-1.04978e-04  1.70079e-06        00000 
-1.02474e-04 -6.97383e-04        00000 
-1.62040e-04  5.48342e-04        00000 
-6.10314e-05  1.91546e-04        00000 
-1.35610e-04 -1.89114e-04        00000 
-6.30573e-05 -4.47415e-05        00000 
 7.02554e-05 -3.19727e-04        00000 
 1.33894e-04  1.76387e-04        00000 
 1.23068e-04 -2.28193e-04        00000 
 1.45848e-05  2.48045e-04        00000 
-1.29582e-04 -5.30112e-04        00000 
-4.72282e-05 -1.10070e-04        00000 
-3.11292e-04 -2.99909e-04        00000 
 6.54059e-05  3.31212e-05        00000 
 1.31228e-04  5.89360e-05        00000 
-1.34066e-04  1.41834e-05        00000 
-2.73843e-04 -4.30128e-04        00000 
-1.55594e-04  6.29261e-05        00000 
 1.45367e-04 -7.25632e-05        00000 
-1.17415e-04  4.55206e-04        00000 
 1.53888e-04 -2.20208e-04        00000 
-5.95107e-05  5.10186e-05        00000 
-1.47960e-04  5.56122e-05        00000 
-3.54627e-04 -1.16199e-04        00000 
-2.69923e-04  8.00973e-05        00000 
-1.28060e-04  5.51469e-04        00000 
 1.29196e-04  1.85010e-04        00000 
-1.51298e-04  3.05729e-04        00000 
-5.47335e-05  5.50315e-06        00000 
 4.94658e-06  4.68433e-04        00000 
-4.65268e-04  2.68697e-04        00000 
 1.08026e-04  5.99776e-04        00000 
 3.78426e-04  3.02404e-04        00000 
-1.14675e-04  3.02484e-04        00000 
-2.48652e-04  1.07392e-04        00000 
 4.96640e-05  2.87166e-04        00000 
 1.94436e-04  5.39974e-04        00000 
-8.41769e-06  3.40334e-05        00000 
 7.19318e-04  5.43505e-04        00000 
 2.81318e-04  3.21798e-04        00000 