<?xml version="1.0" encoding="utf-8"?>
<VTKFile byte_order="LittleEndian" type="UnstructuredGrid" version="0.1">
   <UnstructuredGrid>
      <Piece NumberOfCells="1296" NumberOfPoints="685">
         <Points>
            <DataArray Name="Points" NumberOfComponents="3" format="ascii" type="Float32">
0.0000 0.0000 0.0000
0.0000 0.1111 0.0000
0.0000 0.2222 0.0000
0.0000 0.3333 0.0000
0.0000 0.4444 0.0000
0.0000 0.5556 0.0000
0.0000 0.6667 0.0000
0.0000 0.7778 0.0000
0.0000 0.8889 0.0000
0.0000 1.0000 0.0000
0.2222 0.0000 0.0000
0.2222 0.1111 0.0000
0.2222 0.2222 0.0000
0.2222 0.3333 0.0000
0.2222 0.4444 0.0000
0.2222 0.5556 0.0000
0.2222 0.6667 0.0000
0.2222 0.7778 0.0000
0.2222 0.8889 0.0000
0.2222 1.0000 0.0000
0.4444 0.0000 0.0000
0.4444 0.1111 0.0000
0.4444 0.2222 0.0000
0.4444 0.3333 0.0000
0.4444 0.4444 0.0000
0.4444 0.5556 0.0000
0.4444 0.6667 0.0000
0.4444 0.7778 0.0000
0.4444 0.8889 0.0000
0.4444 1.0000 0.0000
0.6667 0.0000 0.0000
0.6667 0.1111 0.0000
0.6667 0.2222 0.0000
0.6667 0.3333 0.0000
0.6667 0.4444 0.0000
0.6667 0.5556 0.0000
0.6667 0.6667 0.0000
0.6667 0.7778 0.0000
0.6667 0.8889 0.0000
0.6667 1.0000 0.0000
0.8889 0.0000 0.0000
0.8889 0.1111 0.0000
0.8889 0.2222 0.0000
0.8889 0.3333 0.0000
0.8889 0.4444 0.0000
0.8889 0.5556 0.0000
0.8889 0.6667 0.0000
0.8889 0.7778 0.0000
0.8889 0.8889 0.0000
0.8889 1.0000 0.0000
1.1111 0.0000 0.0000
1.1111 0.1111 0.0000
1.1111 0.2222 0.0000
1.1111 0.3333 0.0000
1.1111 0.4444 0.0000
1.1111 0.5556 0.0000
1.1111 0.6667 0.0000
1.1111 0.7778 0.0000
1.1111 0.8889 0.0000
1.1111 1.0000 0.0000
1.3333 0.0000 0.0000
1.3333 0.1111 0.0000
1.3333 0.2222 0.0000
1.3333 0.3333 0.0000
1.3333 0.4444 0.0000
1.3333 0.5556 0.0000
1.3333 0.6667 0.0000
1.3333 0.7778 0.0000
1.3333 0.8889 0.0000
1.3333 1.0000 0.0000
1.5556 0.0000 0.0000
1.5556 0.1111 0.0000
1.5556 0.2222 0.0000
1.5556 0.3333 0.0000
1.5556 0.4444 0.0000
1.5556 0.5556 0.0000
1.5556 0.6667 0.0000
1.5556 0.7778 0.0000
1.5556 0.8889 0.0000
1.5556 1.0000 0.0000
1.7778 0.0000 0.0000
1.7778 0.1111 0.0000
1.7778 0.2222 0.0000
1.7778 0.3333 0.0000
1.7778 0.4444 0.0000
1.7778 0.5556 0.0000
1.7778 0.6667 0.0000
1.7778 0.7778 0.0000
1.7778 0.8889 0.0000
1.7778 1.0000 0.0000
2.0000 0.0000 0.0000
2.0000 0.1111 0.0000
2.0000 0.2222 0.0000
2.0000 0.3333 0.0000
2.0000 0.4444 0.0000
2.0000 0.5556 0.0000
2.0000 0.6667 0.0000
2.0000 0.7778 0.0000
2.0000 0.8889 0.0000
2.0000 1.0000 0.0000
0.1111 0.0556 0.0000
0.1111 0.1667 0.0000
0.1111 0.2778 0.0000
0.1111 0.3889 0.0000
0.1111 0.5000 0.0000
0.1111 0.6111 0.0000
0.1111 0.7222 0.0000
0.1111 0.8333 0.0000
0.1111 0.9444 0.0000
0.3333 0.0556 0.0000
0.3333 0.1667 0.0000
0.3333 0.2778 0.0000
0.3333 0.3889 0.0000
0.3333 0.5000 0.0000
0.3333 0.6111 0.0000
0.3333 0.7222 0.0000
0.3333 0.8333 0.0000
0.3333 0.9444 0.0000
0.5556 0.0556 0.0000
0.5556 0.1667 0.0000
0.5556 0.2778 0.0000
0.5556 0.3889 0.0000
0.5556 0.5000 0.0000
0.5556 0.6111 0.0000
0.5556 0.7222 0.0000
0.5556 0.8333 0.0000
0.5556 0.9444 0.0000
0.7778 0.0556 0.0000
0.7778 0.1667 0.0000
0.7778 0.2778 0.0000
0.7778 0.3889 0.0000
0.7778 0.5000 0.0000
0.7778 0.6111 0.0000
0.7778 0.7222 0.0000
0.7778 0.8333 0.0000
0.7778 0.9444 0.0000
1.0000 0.0556 0.0000
1.0000 0.1667 0.0000
1.0000 0.2778 0.0000
1.0000 0.3889 0.0000
1.0000 0.5000 0.0000
1.0000 0.6111 0.0000
1.0000 0.7222 0.0000
1.0000 0.8333 0.0000
1.0000 0.9444 0.0000
1.2222 0.0556 0.0000
1.2222 0.1667 0.0000
1.2222 0.2778 0.0000
1.2222 0.3889 0.0000
1.2222 0.5000 0.0000
1.2222 0.6111 0.0000
1.2222 0.7222 0.0000
1.2222 0.8333 0.0000
1.2222 0.9444 0.0000
1.4444 0.0556 0.0000
1.4444 0.1667 0.0000
1.4444 0.2778 0.0000
1.4444 0.3889 0.0000
1.4444 0.5000 0.0000
1.4444 0.6111 0.0000
1.4444 0.7222 0.0000
1.4444 0.8333 0.0000
1.4444 0.9444 0.0000
1.6667 0.0556 0.0000
1.6667 0.1667 0.0000
1.6667 0.2778 0.0000
1.6667 0.3889 0.0000
1.6667 0.5000 0.0000
1.6667 0.6111 0.0000
1.6667 0.7222 0.0000
1.6667 0.8333 0.0000
1.6667 0.9444 0.0000
1.8889 0.0556 0.0000
1.8889 0.1667 0.0000
1.8889 0.2778 0.0000
1.8889 0.3889 0.0000
1.8889 0.5000 0.0000
1.8889 0.6111 0.0000
1.8889 0.7222 0.0000
1.8889 0.8333 0.0000
1.8889 0.9444 0.0000
0.0000 0.0556 0.0000
0.0556 0.0278 0.0000
0.0556 0.0833 0.0000
0.0000 0.1667 0.0000
0.0556 0.1389 0.0000
0.0556 0.1944 0.0000
0.0000 0.2778 0.0000
0.0556 0.2500 0.0000
0.0556 0.3056 0.0000
0.0000 0.3889 0.0000
0.0556 0.3611 0.0000
0.0556 0.4167 0.0000
0.0000 0.5000 0.0000
0.0556 0.4722 0.0000
0.0556 0.5278 0.0000
0.0000 0.6111 0.0000
0.0556 0.5833 0.0000
0.0556 0.6389 0.0000
0.0000 0.7222 0.0000
0.0556 0.6944 0.0000
0.0556 0.7500 0.0000
0.0000 0.8333 0.0000
0.0556 0.8056 0.0000
0.0556 0.8611 0.0000
0.0000 0.9444 0.0000
0.0556 0.9167 0.0000
0.0556 0.9722 0.0000
0.2222 0.0556 0.0000
0.2778 0.0278 0.0000
0.2778 0.0833 0.0000
0.2222 0.1667 0.0000
0.2778 0.1389 0.0000
0.2778 0.1944 0.0000
0.2222 0.2778 0.0000
0.2778 0.2500 0.0000
0.2778 0.3056 0.0000
0.2222 0.3889 0.0000
0.2778 0.3611 0.0000
0.2778 0.4167 0.0000
0.2222 0.5000 0.0000
0.2778 0.4722 0.0000
0.2778 0.5278 0.0000
0.2222 0.6111 0.0000
0.2778 0.5833 0.0000
0.2778 0.6389 0.0000
0.2222 0.7222 0.0000
0.2778 0.6944 0.0000
0.2778 0.7500 0.0000
0.2222 0.8333 0.0000
0.2778 0.8056 0.0000
0.2778 0.8611 0.0000
0.2222 0.9444 0.0000
0.2778 0.9167 0.0000
0.2778 0.9722 0.0000
0.4444 0.0556 0.0000
0.5000 0.0278 0.0000
0.5000 0.0833 0.0000
0.4444 0.1667 0.0000
0.5000 0.1389 0.0000
0.5000 0.1944 0.0000
0.4444 0.2778 0.0000
0.5000 0.2500 0.0000
0.5000 0.3056 0.0000
0.4444 0.3889 0.0000
0.5000 0.3611 0.0000
0.5000 0.4167 0.0000
0.4444 0.5000 0.0000
0.5000 0.4722 0.0000
0.5000 0.5278 0.0000
0.4444 0.6111 0.0000
0.5000 0.5833 0.0000
0.5000 0.6389 0.0000
0.4444 0.7222 0.0000
0.5000 0.6944 0.0000
0.5000 0.7500 0.0000
0.4444 0.8333 0.0000
0.5000 0.8056 0.0000
0.5000 0.8611 0.0000
0.4444 0.9444 0.0000
0.5000 0.9167 0.0000
0.5000 0.9722 0.0000
0.6667 0.0556 0.0000
0.7222 0.0278 0.0000
0.7222 0.0833 0.0000
0.6667 0.1667 0.0000
0.7222 0.1389 0.0000
0.7222 0.1944 0.0000
0.6667 0.2778 0.0000
0.7222 0.2500 0.0000
0.7222 0.3056 0.0000
0.6667 0.3889 0.0000
0.7222 0.3611 0.0000
0.7222 0.4167 0.0000
0.6667 0.5000 0.0000
0.7222 0.4722 0.0000
0.7222 0.5278 0.0000
0.6667 0.6111 0.0000
0.7222 0.5833 0.0000
0.7222 0.6389 0.0000
0.6667 0.7222 0.0000
0.7222 0.6944 0.0000
0.7222 0.7500 0.0000
0.6667 0.8333 0.0000
0.7222 0.8056 0.0000
0.7222 0.8611 0.0000
0.6667 0.9444 0.0000
0.7222 0.9167 0.0000
0.7222 0.9722 0.0000
0.8889 0.0556 0.0000
0.9444 0.0278 0.0000
0.9444 0.0833 0.0000
0.8889 0.1667 0.0000
0.9444 0.1389 0.0000
0.9444 0.1944 0.0000
0.8889 0.2778 0.0000
0.9444 0.2500 0.0000
0.9444 0.3056 0.0000
0.8889 0.3889 0.0000
0.9444 0.3611 0.0000
0.9444 0.4167 0.0000
0.8889 0.5000 0.0000
0.9444 0.4722 0.0000
0.9444 0.5278 0.0000
0.8889 0.6111 0.0000
0.9444 0.5833 0.0000
0.9444 0.6389 0.0000
0.8889 0.7222 0.0000
0.9444 0.6944 0.0000
0.9444 0.7500 0.0000
0.8889 0.8333 0.0000
0.9444 0.8056 0.0000
0.9444 0.8611 0.0000
0.8889 0.9444 0.0000
0.9444 0.9167 0.0000
0.9444 0.9722 0.0000
1.1111 0.0556 0.0000
1.1667 0.0278 0.0000
1.1667 0.0833 0.0000
1.1111 0.1667 0.0000
1.1667 0.1389 0.0000
1.1667 0.1944 0.0000
1.1111 0.2778 0.0000
1.1667 0.2500 0.0000
1.1667 0.3056 0.0000
1.1111 0.3889 0.0000
1.1667 0.3611 0.0000
1.1667 0.4167 0.0000
1.1111 0.5000 0.0000
1.1667 0.4722 0.0000
1.1667 0.5278 0.0000
1.1111 0.6111 0.0000
1.1667 0.5833 0.0000
1.1667 0.6389 0.0000
1.1111 0.7222 0.0000
1.1667 0.6944 0.0000
1.1667 0.7500 0.0000
1.1111 0.8333 0.0000
1.1667 0.8056 0.0000
1.1667 0.8611 0.0000
1.1111 0.9444 0.0000
1.1667 0.9167 0.0000
1.1667 0.9722 0.0000
1.3333 0.0556 0.0000
1.3889 0.0278 0.0000
1.3889 0.0833 0.0000
1.3333 0.1667 0.0000
1.3889 0.1389 0.0000
1.3889 0.1944 0.0000
1.3333 0.2778 0.0000
1.3889 0.2500 0.0000
1.3889 0.3056 0.0000
1.3333 0.3889 0.0000
1.3889 0.3611 0.0000
1.3889 0.4167 0.0000
1.3333 0.5000 0.0000
1.3889 0.4722 0.0000
1.3889 0.5278 0.0000
1.3333 0.6111 0.0000
1.3889 0.5833 0.0000
1.3889 0.6389 0.0000
1.3333 0.7222 0.0000
1.3889 0.6944 0.0000
1.3889 0.7500 0.0000
1.3333 0.8333 0.0000
1.3889 0.8056 0.0000
1.3889 0.8611 0.0000
1.3333 0.9444 0.0000
1.3889 0.9167 0.0000
1.3889 0.9722 0.0000
1.5556 0.0556 0.0000
1.6111 0.0278 0.0000
1.6111 0.0833 0.0000
1.5556 0.1667 0.0000
1.6111 0.1389 0.0000
1.6111 0.1944 0.0000
1.5556 0.2778 0.0000
1.6111 0.2500 0.0000
1.6111 0.3056 0.0000
1.5556 0.3889 0.0000
1.6111 0.3611 0.0000
1.6111 0.4167 0.0000
1.5556 0.5000 0.0000
1.6111 0.4722 0.0000
1.6111 0.5278 0.0000
1.5556 0.6111 0.0000
1.6111 0.5833 0.0000
1.6111 0.6389 0.0000
1.5556 0.7222 0.0000
1.6111 0.6944 0.0000
1.6111 0.7500 0.0000
1.5556 0.8333 0.0000
1.6111 0.8056 0.0000
1.6111 0.8611 0.0000
1.5556 0.9444 0.0000
1.6111 0.9167 0.0000
1.6111 0.9722 0.0000
1.7778 0.0556 0.0000
1.8333 0.0278 0.0000
1.8333 0.0833 0.0000
1.7778 0.1667 0.0000
1.8333 0.1389 0.0000
1.8333 0.1944 0.0000
1.7778 0.2778 0.0000
1.8333 0.2500 0.0000
1.8333 0.3056 0.0000
1.7778 0.3889 0.0000
1.8333 0.3611 0.0000
1.8333 0.4167 0.0000
1.7778 0.5000 0.0000
1.8333 0.4722 0.0000
1.8333 0.5278 0.0000
1.7778 0.6111 0.0000
1.8333 0.5833 0.0000
1.8333 0.6389 0.0000
1.7778 0.7222 0.0000
1.8333 0.6944 0.0000
1.8333 0.7500 0.0000
1.7778 0.8333 0.0000
1.8333 0.8056 0.0000
1.8333 0.8611 0.0000
1.7778 0.9444 0.0000
1.8333 0.9167 0.0000
1.8333 0.9722 0.0000
0.1111 0.1111 0.0000
0.1667 0.0833 0.0000
0.1111 0.2222 0.0000
0.1667 0.1944 0.0000
0.1111 0.3333 0.0000
0.1667 0.3056 0.0000
0.1111 0.4444 0.0000
0.1667 0.4167 0.0000
0.1111 0.5556 0.0000
0.1667 0.5278 0.0000
0.1111 0.6667 0.0000
0.1667 0.6389 0.0000
0.1111 0.7778 0.0000
0.1667 0.7500 0.0000
0.1111 0.8889 0.0000
0.1667 0.8611 0.0000
0.1111 1.0000 0.0000
0.1667 0.9722 0.0000
0.3333 0.1111 0.0000
0.3889 0.0833 0.0000
0.3333 0.2222 0.0000
0.3889 0.1944 0.0000
0.3333 0.3333 0.0000
0.3889 0.3056 0.0000
0.3333 0.4444 0.0000
0.3889 0.4167 0.0000
0.3333 0.5556 0.0000
0.3889 0.5278 0.0000
0.3333 0.6667 0.0000
0.3889 0.6389 0.0000
0.3333 0.7778 0.0000
0.3889 0.7500 0.0000
0.3333 0.8889 0.0000
0.3889 0.8611 0.0000
0.3333 1.0000 0.0000
0.3889 0.9722 0.0000
0.5556 0.1111 0.0000
[...]
         <PointData>
            <DataArray Name="fValues" NumberOfComponents="3" format="ascii" type="Float64">
-3.64711e-23        00000        00000 
-7.08396e-23 -2.44003e-22        00000 
-3.27933e-22 -1.62307e-23        00000 
 1.41098e-22 -3.76262e-22        00000 
-1.21177e-22  7.66626e-22        00000 
       00000  1.25421e-22        00000 
-3.54058e-22 -3.73792e-23        00000 
       00000  9.39804e-23        00000 
-3.77902e-22 -6.29836e-23        00000 
 1.36767e-23  2.91769e-22        00000 
-9.77930e-07  5.52865e-06        00000 
 2.47311e-07  2.05858e-06        00000 
 6.63158e-07  5.84183e-07        00000 
 4.17190e-07 -1.32970e-06        00000 
-1.36332e-06 -6.25166e-07        00000 
-6.02872e-07 -4.47011e-07        00000 
 5.15764e-07  1.05696e-06        00000 
-3.64784e-06 -6.24669e-07        00000 
-1.63371e-06 -9.16224e-07        00000 
 1.67250e-08 -1.03920e-06        00000 
 8.82289e-08  2.71658e-06        00000 
 5.49282e-07  2.19559e-06        00000 
 2.51166e-06 -4.62490e-07        00000 
-1.12828e-06 -7.18731e-07        00000 
-2.03300e-06 -1.26734e-06        00000 
 9.13582e-07 -2.24316e-07        00000 
 2.08610e-06 -7.53951e-07        00000 
 6.37092e-07 -2.72258e-06        00000 
-7.33204e-07 -1.49517e-06        00000 
-3.92309e-07 -1.24524e-07        00000 
 8.69396e-07  6.26161e-06        00000 
-3.14307e-07  1.68078e-06        00000 
 9.85355e-07  8.55888e-07        00000 
 1.27040e-06  9.04179e-07        00000 
-4.77161e-07 -6.59480e-07        00000 
 4.80679e-06  3.00190e-06        00000 
 1.31200e-06  2.74388e-07        00000 
-9.79634e-07 -2.55813e-07        00000 
 2.98600e-06  1.18192e-06        00000 
-9.21381e-08 -3.06746e-06        00000 
 3.88899e-07  1.63150e-06        00000 
-1.57127e-07  5.75293e-07        00000 
 2.34724e-06 -1.52066e-06        00000 
 3.01918e-06 -1.98174e-06        00000 
-1.06636e-06 -2.61037e-06        00000 
 3.68934e-06  2.34670e-06        00000 
 1.25024e-06  6.04430e-07        00000 
-1.07017e-07 -6.36487e-07        00000 
 4.05627e-07  5.52845e-07        00000 
 4.38958e-07 -5.80730e-06        00000 
 2.20942e-06  4.19780e-06        00000 
 1.12184e-06  1.72738e-06        00000 
 7.98622e-07  1.70252e-06        00000 
 1.84348e-06  2.70887e-06        00000 
-4.49705e-07  8.57884e-07        00000 
 2.53442e-06  3.40093e-06        00000 
 2.59493e-06  8.87136e-07        00000 
 8.28265e-07  1.25983e-06        00000 
-1.56454e-07 -7.84901e-08        00000 
-3.24126e-07 -1.34587e-06        00000 
 4.35733e-07 -1.95003e-06        00000 
-1.19449e-07  7.77142e-07        00000 
 1.96197e-06 -5.94812e-08        00000 
-1.36482e-06  1.08810e-06        00000 
 1.95477e-06  3.54209e-07        00000 
 9.29817e-07  2.13447e-06        00000 
 1.23664e-06  2.67743e-06        00000 
 1.33241e-06  1.60855e-07        00000 
 3.15973e-06  2.54526e-06        00000 
 2.03847e-06  3.16885e-06        00000 
-8.16036e-07  7.22442e-07        00000 
 1.34682e-06  1.60967e-06        00000 
 1.67121e-06  3.45751e-07        00000 
 1.91396e-06  1.81187e-06        00000 
 1.09431e-06  2.44654e-06        00000 
 3.14927e-07  1.72930e-06        00000 
-2.63228e-07 -1.04576e-06        00000 
 1.69980e-06 -1.05647e-06        00000 
 1.67345e-06 -1.14253e-06        00000 
-1.18698e-06 -1.50619e-06        00000 
-6.62970e-07 -1.97371e-06        00000 
-1.16519e-06  2.67250e-06        00000 
-1.81003e-06  3.16225e-07        00000 
-3.71742e-06  8.24638e-07        00000 
-1.74438e-06  1.36571e-06        00000 
 6.84450e-08  1.00457e-06        00000 
 1.71117e-06  1.01150e-06        00000 
-1.48287e-06 -3.47781e-07        00000 
-4.20043e-07  1.30775e-06        00000 
-2.70361e-06  2.30752e-06        00000 
-8.68514e-07  2.45107e-07        00000 
-3.90394e-07  1.71785e-06        00000 
-1.79276e-06 -1.48380e-07        00000 
-1.25112e-06  1.43732e-08        00000 
-1.76186e-06 -7.81905e-07        00000 
-5.70344e-07  8.28076e-07        00000 
 7.74251e-07  1.92395e-06        00000 
-5.62284e-07  1.78637e-06        00000 
-7.04164e-07  1.50371e-06        00000 
-5.91148e-07  1.45003e-06        00000 
 3.84811e-07  5.26300e-07        00000 
-6.50610e-07  2.92520e-06        00000 
 6.94601e-07  1.64022e-06        00000 
 7.65838e-07 -1.09149e-06        00000 
 2.68668e-06 -1.65419e-07        00000 
 3.18018e-06  1.08316e-06        00000 
-5.96428e-07 -1.39025e-06        00000 
-4.89606e-07  5.96752e-07        00000 
 5.06630e-07 -9.74163e-07        00000 
 6.35238e-07  5.13960e-07        00000 
-2.23098e-06  4.58505e-07        00000 
-1.27918e-06 -3.90634e-07        00000 
-1.43313e-06  8.27132e-07        00000 
-6.99489e-07  7.89249e-07        00000 
 8.86392e-07 -7.31701e-07        00000 
-2.81383e-07  1.03670e-06        00000 
-1.35168e-06 -3.74801e-07        00000 
-1.91893e-06 -2.46847e-07        00000 
 7.72745e-07 -1.37204e-06        00000 
-2.30498e-07  7.23447e-07        00000 
-1.19647e-07  1.55739e-06        00000 
 1.07563e-06  2.45587e-06        00000 
-1.09002e-07  1.74692e-06        00000 
 9.98826e-07  7.89227e-08        00000 
 2.97517e-06  1.67850e-06        00000 
-2.06121e-06  2.92868e-07        00000 
 4.15638e-07  1.12218e-06        00000 
 1.31089e-06 -1.74791e-06        00000 
 3.52878e-07  2.20622e-07        00000 
 9.96126e-07  6.54211e-08        00000 
-1.52993e-06  9.72773e-07        00000 
 6.81799e-07  4.31542e-07        00000 
 2.74190e-06  1.99679e-06        00000 
 2.68680e-06  1.78856e-06        00000 
-2.09231e-07 -8.66484e-07        00000 
 1.16402e-07  1.74603e-06        00000 
 2.09975e-06  1.39816e-06        00000 
 1.75838e-06  9.93893e-07        00000 
 1.52911e-06  2.45672e-07        00000 
-5.00962e-07  2.29190e-06        00000 
-5.77912e-08  1.39935e-06        00000 
 9.86950e-08  1.14132e-06        00000 
-1.09286e-06  1.07616e-06        00000 
-1.81715e-06  3.19151e-08        00000 
-9.20978e-07  2.29109e-06        00000 
 2.39057e-06  1.62313e-06        00000 
 1.48233e-06  1.76773e-06        00000 
 2.99350e-06  5.80916e-07        00000 
 1.70354e-06  2.22357e-06        00000 
-2.19007e-06 -6.65463e-07        00000 
 1.92052e-06 -2.74801e-07        00000 
 3.12992e-06  6.83767e-07        00000 
 1.44960e-07 -1.77607e-07        00000 
-1.17321e-06  2.11854e-06        00000 
 6.48366e-07  3.24000e-06        00000 
 1.15181e-06  2.44135e-06        00000 
 9.11558e-07 -2.62919e-07        00000 
-6.10942e-07 -8.72700e-07        00000 
 2.78571e-06  6.02269e-07        00000 
 1.15542e-06  8.21835e-07        00000 
 3.63421e-06  2.87504e-06        00000 
 1.92709e-06  6.62013e-07        00000 
-1.60137e-07  8.43955e-07        00000 
-3.12352e-08  1.42208e-06        00000 
 1.07310e-06 -2.95738e-07        00000 
 7.79019e-07 -1.45505e-06        00000 
-3.88330e-07  4.14556e-07        00000 
 2.65174e-07 -3.77148e-07        00000 
-1.67755e-06 -1.47831e-06        00000 
-2.16047e-06 -1.19027e-06        00000 
-2.50023e-06  4.65195e-07        00000 
-2.15614e-06  1.75683e-06        00000 
 3.11139e-07  1.47434e-06        00000 
 1.73818e-07 -4.70436e-07        00000 
-5.34743e-07 -6.77251e-08        00000 
 8.97996e-07 -1.67112e-06        00000 
 1.51688e-06 -4.62370e-08        00000 
 1.51553e-06  2.00173e-06        00000 
 1.17353e-06  3.61559e-06        00000 
 9.24808e-07  5.76362e-07        00000 
 6.17828e-07  1.32669e-08        00000 
 4.39826e-23  1.37672e-22        00000 
-1.07896e-06 -2.02855e-06        00000 
-8.85008e-07  5.17167e-07        00000 
 5.46555e-23 -1.16409e-22        00000 
 1.34956e-06  1.12943e-06        00000 
 4.41352e-07 -4.69689e-07        00000 
-1.19114e-22  2.97785e-23        00000 
-1.92156e-06 -6.37818e-07        00000 
 8.07847e-07 -3.67177e-07        00000 
-3.93608e-23 -2.46885e-22        00000 
-3.34256e-07 -1.78600e-06        00000 
 3.35022e-07  2.08518e-07        00000 
-4.76456e-22  4.76456e-22        00000 
-2.01610e-06 -3.13885e-06        00000 
-5.29741e-07 -5.18711e-07        00000 
-1.79218e-22  4.82686e-22        00000 
-1.93997e-06 -3.04725e-06        00000 
-2.99199e-06  5.70126e-07        00000 
 5.95570e-23 -1.78671e-22        00000 
-1.45855e-06 -1.13557e-06        00000 
-6.05211e-07 -1.12736e-07        00000 
-1.19114e-22 -2.97785e-22        00000 
-1.63912e-06  7.60294e-07        00000 
-2.36966e-06 -8.85469e-07        00000 
 9.98120e-23 -2.06267e-22        00000 
-1.71163e-06  1.33920e-06        00000 
-1.98407e-07 -2.84635e-06        00000 
 1.18213e-07 -2.45134e-06        00000 
-2.39164e-06 -2.86632e-06        00000 
-2.18620e-06  1.14059e-06        00000 
-1.86506e-07 -1.59644e-06        00000 
-2.35417e-06  1.46910e-06        00000 
-7.68495e-07  6.99138e-07        00000 
 1.91299e-06  2.78768e-07        00000 
-1.99723e-07 -1.16756e-06        00000 
 4.68848e-07 -1.19662e-07        00000 
 1.66472e-06  6.66748e-07        00000 
 1.12824e-06 -1.59090e-06        00000 
-8.45087e-07 -2.41859e-06        00000 
-1.80939e-06  3.07462e-07        00000 
-1.33484e-06 -1.70831e-06        00000 
-5.52518e-07 -4.69651e-07        00000 
-1.01547e-08 -5.82928e-07        00000 
-8.09662e-07 -1.18762e-06        00000 
 7.36901e-07 -1.08888e-06        00000 
 6.93211e-08 -4.89670e-07        00000 
-1.52181e-06 -3.38963e-07        00000 
-1.47555e-06 -1.34888e-06        00000 
-2.13976e-06 -2.61743e-08        00000 
-2.18141e-06  1.85699e-06        00000 
-4.59956e-07 -1.23748e-06        00000 
-9.12578e-07  6.20005e-07        00000 
-7.88934e-07 -1.21016e-06        00000 
-1.42910e-06 -1.58295e-06        00000 
-1.68485e-06 -2.56085e-06        00000 
-2.03545e-06 -2.57785e-06        00000 
-9.95074e-07  8.79577e-07        00000 
-4.44466e-07 -1.52638e-06        00000 
-2.05882e-06  8.44173e-08        00000 
 1.69665e-06  7.70830e-07        00000 
 2.42087e-07  9.02747e-07        00000 
-1.63389e-06  2.68715e-07        00000 
-2.06537e-06 -8.88515e-07        00000 
-1.50389e-06  2.58797e-06        00000 
-1.59845e-06  6.13676e-07        00000 
-1.20335e-06  8.64881e-07        00000 
-8.81380e-08 -1.02683e-06        00000 
 1.11974e-06  1.56522e-06        00000 
-6.77114e-07 -8.32236e-07        00000 
-1.70309e-06 -7.37968e-07        00000 
-1.33895e-06 -1.20573e-06        00000 
-2.46413e-06 -1.33189e-06        00000 
 8.69790e-07 -1.00259e-06        00000 
-2.39937e-06 -1.37184e-06        00000 
-1.88706e-06 -1.44705e-06        00000 
-1.17018e-06 -2.35591e-06        00000 
-8.88688e-08  6.53481e-07        00000 
 3.25210e-07 -7.53917e-07        00000 
-1.16351e-06  1.86262e-07        00000 
-4.04411e-07  5.80919e-07        00000 
-7.25405e-07  7.68715e-08        00000 
-7.75281e-08 -3.33484e-08        00000 
-2.57682e-08 -4.81839e-06        00000 
-1.24922e-06  1.90765e-06        00000 
-4.18921e-07 -8.51215e-07        00000 
 7.47777e-07  1.43577e-07        00000 
 7.68233e-09  2.85424e-06        00000 
 1.52930e-07  7.82028e-07        00000 
 2.03865e-07 -2.89233e-07        00000 
-2.93778e-07 -1.29364e-06        00000 
 7.77895e-08 -2.12108e-07        00000 
 6.86641e-07 -2.10959e-06        00000 
 1.50956e-06 -2.29069e-06        00000 
 1.61440e-06 -1.04741e-06        00000 
 1.12606e-06  1.42141e-06        00000 
 2.03045e-06  1.08369e-06        00000 
 1.76343e-06 -5.61787e-08        00000 
 3.58195e-07 -2.08909e-06        00000 
 6.73971e-07  5.28940e-07        00000 
 2.79803e-06  1.73657e-06        00000 
 6.28442e-08  5.97284e-07        00000 
 1.62509e-07 -1.72540e-06        00000 
 5.50481e-07  1.20211e-06        00000 
 2.00251e-06  3.97998e-06        00000 
 2.27092e-06  4.55489e-07        00000 
 9.72183e-08  3.35789e-06        00000 
 3.10544e-07 -2.37365e-06        00000 
 9.50137e-07  4.95140e-06        00000 
 1.43962e-06 -2.85026e-06        00000 
-1.83449e-06 -1.90209e-06        00000 
 1.25029e-06 -3.00083e-08        00000 
-1.22976e-06 -3.79825e-07        00000 
-2.53637e-07  6.58897e-07        00000 
 2.36693e-06  3.48167e-07        00000 
 1.58771e-06  1.67302e-06        00000 
 2.03728e-06 -2.40713e-06        00000 
 1.03314e-06 -5.60537e-07        00000 
-1.02484e-06  2.09125e-06        00000 
 1.20281e-06 -1.21633e-06        00000 
-1.26355e-07 -2.77983e-06        00000 
 9.40161e-07 -1.13855e-06        00000 
 9.40321e-07  1.03005e-06        00000 
-1.02951e-06  1.08965e-06        00000 
 1.61309e-06 -2.29292e-06        00000 
-2.88369e-06 -3.01552e-06        00000 
 5.97024e-07  7.44356e-07        00000 
-5.38191e-07  1.12105e-06        00000 
 5.96073e-07  8.12554e-07        00000 
-7.23229e-07 -1.97280e-06        00000 
 2.19958e-06  8.92305e-07        00000 
 2.92522e-06  2.56153e-06        00000 
 7.97131e-07  6.41714e-07        00000 
-9.99997e-07  4.25254e-06        00000 
 8.87278e-08 -2.43196e-06        00000 
-1.61853e-06  6.58683e-06        00000 
 2.44239e-07 -5.96569e-07        00000 
-4.38968e-07 -1.22070e-06        00000 
 1.63517e-06  5.03181e-07        00000 
-4.82196e-07 -4.22206e-07        00000 
 1.52895e-06 -2.09100e-08        00000 
 1.72820e-06  1.81312e-06        00000 
-1.12854e-06 -5.70810e-07        00000 
-1.16399e-06 -2.41105e-06        00000 
-1.26699e-06  3.53741e-06        00000 
 1.09559e-06  8.22391e-07        00000 
-2.22371e-06 -1.53560e-07        00000 
-1.18557e-06 -2.44363e-06        00000 
-2.25270e-06 -8.45063e-07        00000 
 8.52564e-07  3.79645e-06        00000 
-5.01131e-07  6.83213e-07        00000 
 7.92191e-07 -4.64502e-07        00000 
-8.34220e-07 -9.31488e-07        00000 
-1.68835e-06 -1.71015e-07        00000 
 1.19340e-06 -1.92428e-06        00000 
-7.11957e-07  1.34350e-06        00000 
 1.19667e-06 -6.50515e-07        00000 
-6.05051e-07 -7.66911e-07        00000 
 2.89626e-06  1.42048e-06        00000 
 2.47204e-06 -1.12644e-06        00000 
-1.18369e-06 -1.43688e-06        00000 
 1.29695e-06  1.18291e-06        00000 
 1.40911e-06 -1.35223e-06        00000 
 2.09833e-06 -2.05633e-07        00000 
 1.76500e-06  5.34967e-06        00000 
 2.92312e-06  4.49295e-07        00000 
-2.46514e-07  1.91847e-06        00000 
 9.60058e-07  5.84968e-07        00000 
 1.16382e-06 -8.64046e-07        00000 
 3.25756e-07 -7.88870e-08        00000 
 1.26829e-06 -1.33364e-06        00000 
 1.01338e-06 -1.45232e-06        00000 
-7.12285e-07 -3.02729e-07        00000 
 4.11116e-07 -2.74308e-06        00000 
-5.73147e-07 -1.77040e-06        00000 
-7.41701e-07 -1.98870e-06        00000 
-1.28668e-06 -2.46877e-06        00000 
-1.52227e-06  1.02519e-06        00000 
-4.61676e-07  1.19895e-06        00000 
-2.61714e-06 -4.59956e-07        00000 
-1.23710e-06 -2.00036e-06        00000 
-2.89953e-07 -8.55728e-07        00000 
-1.14307e-06  7.84077e-07        00000 
 2.28746e-06  1.47921e-06        00000 
 2.01769e-06  2.35924e-07        00000 
 2.58959e-06 -6.94841e-07        00000 
 5.24294e-07 -3.21807e-07        00000 
 7.05885e-07 -2.19651e-06        00000 
-1.24708e-06 -1.77762e-06        00000 
 2.72531e-06  6.35599e-08        00000 
-6.06315e-07  1.06624e-06        00000 
-1.70983e-06 -6.41754e-07        00000 
-4.20264e-07  1.02832e-06        00000 
 1.27685e-06 -2.34198e-06        00000 
-1.23702e-06  1.56900e-06        00000 
 1.40283e-06  9.46459e-07        00000 
 2.26927e-06 -9.67699e-07        00000 
-5.19381e-08 -9.33451e-07        00000 
-3.28634e-06 -9.62832e-07        00000 
-2.01618e-06 -1.91342e-06        00000 
-2.38221e-06  2.02599e-06        00000 
-2.06236e-06  2.96437e-07        00000 
-1.35126e-06  9.21052e-07        00000 
-2.53391e-06 -1.64363e-08        00000 
-2.48779e-06  7.74237e-07        00000 
-2.79442e-06 -2.01018e-07        00000 
-1.46519e-06 -1.05657e-07        00000 
-7.58180e-07  1.81696e-06        00000 
-3.19744e-07  1.72513e-06        00000 
 1.45884e-06 -1.22370e-07        00000 
-2.49814e-06 -2.36074e-06        00000 
 1.73130e-06  3.46399e-08        00000 
 5.62986e-07  6.04273e-07        00000 
-7.32554e-07  7.71766e-07        00000 
-1.25136e-06  9.58447e-07        00000 
 1.78085e-06 -6.86238e-07        00000 
 8.10453e-07  2.45361e-06        00000 
 1.90520e-07  7.25880e-08        00000 
-5.31524e-07  3.28837e-06        00000 
-8.30483e-07  3.79866e-07        00000 
-9.22694e-07  3.54646e-07        00000 
-1.41906e-06  2.52889e-07        00000 
-6.16425e-07  1.50328e-06        00000 
 2.18402e-07 -5.91709e-08        00000 
-2.19892e-06 -4.13061e-07        00000 
-3.59350e-07  3.04064e-07        00000 
-8.42025e-07  3.06721e-06        00000 
-1.88056e-06 -4.42821e-08        00000 
-2.05777e-06  8.67504e-07        00000 
-1.25845e-06  1.03556e-06        00000 
-9.51071e-07 -6.78778e-07        00000 
 7.02077e-07  1.30070e-06        00000 
-1.89043e-06  1.42787e-06        00000 
-1.07243e-06 -7.15573e-07        00000 
-4.66978e-07  1.73397e-06        00000 
-7.57837e-07 -1.11957e-06        00000 
-4.42351e-06 -1.95058e-06        00000 
 5.46648e-07  1.35830e-06        00000 
-6.37429e-07  1.59078e-06        00000 
-1.00310e-06  2.75988e-07        00000 
-2.06266e-06 -1.45998e-07        00000 
-6.42356e-07  2.11815e-06        00000 
-1.71890e-06  2.97612e-06        00000 
-1.47118e-06 -5.57908e-07        00000 
-3.26104e-07  3.90983e-08        00000 
-1.96676e-06  9.85776e-07        00000 
-6.03787e-07 -1.37894e-06        00000 
-1.69636e-06  1.48348e-06        00000 
 1.69192e-06  5.06341e-07        00000 
 7.12095e-07  1.24935e-06        00000 
 4.22305e-07 -1.44521e-06        00000 
-9.24025e-07  2.73197e-07        00000 
-1.03781e-06 -1.64293e-06        00000 
-6.00722e-08  1.59898e-06        00000 
 3.73173e-07  8.93664e-07        00000 
 7.35187e-07  6.51095e-07        00000 
-2.24697e-07 -1.12022e-06        00000 
-8.29496e-08  6.83058e-07        00000 
 8.44714e-07  3.02929e-07        00000 
-1.14029e-06  1.35328e-06        00000 
 1.52259e-07  1.92778e-06        00000 
 9.99934e-08 -5.20611e-07        00000 
-1.10774e-06  1.19762e-06        00000 
 6.16938e-07  7.65059e-07        00000 
-7.84947e-07 -1.37461e-07        00000 
 6.01534e-07  2.37910e-06        00000 
 6.07150e-07  2.17648e-06        00000 
 1.83476e-06  5.25590e-06        00000 
-8.63433e-07  9.52606e-07        00000 
 1.90108e-06  4.32016e-06        00000 
 1.62794e-06 -5.47819e-07        00000 
-1.06519e-06  3.93699e-06        00000 
-1.94230e-07  8.53964e-07        00000 
-3.03453e-07 -3.06855e-07        00000 
 4.84903e-07 -7.33037e-07        00000 
-1.53217e-06  3.74943e-07        00000 
-1.24592e-06  3.34330e-07        00000 
-1.56206e-06  8.47153e-08        00000 
-1.72665e-06  2.74155e-07        00000 
-2.53172e-07  6.02986e-07        00000 
 8.88210e-07  4.96327e-07        00000 
-4.92772e-07  1.30868e-06        00000 
-1.98381e-06 -2.07607e-06        00000 
-1.07186e-07 -3.02823e-07        00000 
 3.31364e-07 -2.07199e-07        00000 
-7.08192e-07 -6.04428e-07        00000 
 5.97263e-07 -6.88870e-07        00000 
-7.61983e-08 -3.06087e-07        00000 
-9.88810e-07 -1.69796e-06        00000 
-1.78089e-06  1.03990e-06        00000 
-6.09939e-07 -1.75457e-06        00000 
 1.33506e-06  1.59459e-07        00000 
 3.53156e-07 -9.52377e-07        00000 
-8.71382e-07 -1.00533e-06        00000 
-1.49191e-06  9.33578e-07        00000 
 2.38089e-06  1.13419e-06        00000 
 1.00354e-06  1.26631e-06        00000 
 2.60675e-06  2.23962e-06        00000 
-1.11093e-06 -8.71655e-07        00000 
-1.16409e-06 -2.16208e-06        00000 
-1.02939e-06 -1.20285e-06        00000 
 3.10961e-07 -2.26549e-06        00000 
-1.29964e-07 -7.99622e-07        00000 
 2.59221e-06 -2.94376e-06        00000 
 1.35675e-07 -2.56641e-06        00000 
 3.92172e-07 -6.56888e-07        00000 
 1.36592e-06 -1.44894e-06        00000 
-3.59558e-06  3.80579e-07        00000 
 2.28136e-06 -5.60860e-07        00000 
 2.14019e-06  1.85202e-06        00000 
 9.87303e-07 -1.05169e-06        00000 
-1.28854e-06  1.11332e-06        00000 
 3.97495e-07 -2.88435e-07        00000 
 1.30924e-06  2.92335e-06        00000 
 2.23577e-06 -2.96276e-06        00000 
 2.92546e-06  7.31334e-06        00000 
 1.29298e-06 -1.42677e-06        00000 