<?xml version="1.0" encoding="utf-8"?>
<VTKFile byte_order="LittleEndian" type="UnstructuredGrid" version="0.1">
   <UnstructuredGrid>
      <Piece NumberOfCells="1296" NumberOfPoints="685">
         <Points>
            <DataArray Name="Points" NumberOfComponents="3" format="ascii" type="Float32">
0.0000 0.0000 0.0000
0.0000 0.1111 0.0000
0.0000 0.2222 0.0000
0.0000 0.3333 0.0000
0.0000 0.4444 0.0000
0.0000 0.5556 0.0000
0.0000 0.6667 0.0000
0.0000 0.7778 0.0000
0.0000 0.8889 0.0000
0.0000 1.0000 0.0000
0.2222 0.0000 0.0000
0.2222 0.1111 0.0000
0.2222 0.2222 0.0000
0.2222 0.3333 0.0000
0.2222 0.4444 0.0000
0.2222 0.5556 0.0000
0.2222 0.6667 0.0000
0.2222 0.7778 0.0000
0.2222 0.8889 0.0000
0.2222 1.0000 0.0000
0.4444 0.0000 0.0000
0.4444 0.1111 0.0000
0.4444 0.2222 0.0000
0.4444 0.3333 0.0000
0.4444 0.4444 0.0000
0.4444 0.5556 0.0000
0.4444 0.6667 0.0000
0.4444 0.7778 0.0000
0.4444 0.8889 0.0000
0.4444 1.0000 0.0000
0.6667 0.0000 0.0000
0.6667 0.1111 0.0000
0.6667 0.2222 0.0000
0.6667 0.3333 0.0000
0.6667 0.4444 0.0000
0.6667 0.5556 0.0000
0.6667 0.6667 0.0000
0.6667 0.7778 0.0000
0.6667 0.8889 0.0000
0.6667 1.0000 0.0000
0.8889 0.0000 0.0000
0.8889 0.1111 0.0000
0.8889 0.2222 0.0000
0.8889 0.3333 0.0000
0.8889 0.4444 0.0000
0.8889 0.5556 0.0000
0.8889 0.6667 0.0000
0.8889 0.7778 0.0000
0.8889 0.8889 0.0000
0.8889 1.0000 0.0000
1.1111 0.0000 0.0000
1.1111 0.1111 0.0000
1.1111 0.2222 0.0000
1.1111 0.3333 0.0000
1.1111 0.4444 0.0000
1.1111 0.5556 0.0000
1.1111 0.6667 0.0000
1.1111 0.7778 0.0000
1.1111 0.8889 0.0000
1.1111 1.0000 0.0000
1.3333 0.0000 0.0000
1.3333 0.1111 0.0000
1.3333 0.2222 0.0000
1.3333 0.3333 0.0000
1.3333 0.4444 0.0000
1.3333 0.5556 0.0000
1.3333 0.6667 0.0000
1.3333 0.7778 0.0000
1.3333 0.8889 0.0000
1.3333 1.0000 0.0000
1.5556 0.0000 0.0000
1.5556 0.1111 0.0000
1.5556 0.2222 0.0000
1.5556 0.3333 0.0000
1.5556 0.4444 0.0000
1.5556 0.5556 0.0000
1.5556 0.6667 0.0000
1.5556 0.7778 0.0000
1.5556 0.8889 0.0000
1.5556 1.0000 0.0000
1.7778 0.0000 0.0000
1.7778 0.1111 0.0000
1.7778 0.2222 0.0000
1.7778 0.3333 0.0000
1.7778 0.4444 0.0000
1.7778 0.5556 0.0000
1.7778 0.6667 0.0000
1.7778 0.7778 0.0000
1.7778 0.8889 0.0000
1.7778 1.0000 0.0000
2.0000 0.0000 0.0000
2.0000 0.1111 0.0000
2.0000 0.2222 0.0000
2.0000 0.3333 0.0000
2.0000 0.4444 0.0000
2.0000 0.5556 0.0000
2.0000 0.6667 0.0000
2.0000 0.7778 0.0000
2.0000 0.8889 0.0000
2.0000 1.0000 0.0000
0.1111 0.0556 0.0000
0.1111 0.1667 0.0000
0.1111 0.2778 0.0000
0.1111 0.3889 0.0000
0.1111 0.5000 0.0000
0.1111 0.6111 0.0000
0.1111 0.7222 0.0000
0.1111 0.8333 0.0000
0.1111 0.9444 0.0000
0.3333 0.0556 0.0000
0.3333 0.1667 0.0000
0.3333 0.2778 0.0000
0.3333 0.3889 0.0000
0.3333 0.5000 0.0000
0.3333 0.6111 0.0000
0.3333 0.7222 0.0000
0.3333 0.8333 0.0000
0.3333 0.9444 0.0000
0.5556 0.0556 0.0000
0.5556 0.1667 0.0000
0.5556 0.2778 0.0000
0.5556 0.3889 0.0000
0.5556 0.5000 0.0000
0.5556 0.6111 0.0000
0.5556 0.7222 0.0000
0.5556 0.8333 0.0000
0.5556 0.9444 0.0000
0.7778 0.0556 0.0000
0.7778 0.1667 0.0000
0.7778 0.2778 0.0000
0.7778 0.3889 0.0000
0.7778 0.5000 0.0000
0.7778 0.6111 0.0000
0.7778 0.7222 0.0000
0.7778 0.8333 0.0000
0.7778 0.9444 0.0000
1.0000 0.0556 0.0000
1.0000 0.1667 0.0000
1.0000 0.2778 0.0000
1.0000 0.3889 0.0000
1.0000 0.5000 0.0000
1.0000 0.6111 0.0000
1.0000 0.7222 0.0000
1.0000 0.8333 0.0000
1.0000 0.9444 0.0000
1.2222 0.0556 0.0000
1.2222 0.1667 0.0000
1.2222 0.2778 0.0000
1.2222 0.3889 0.0000
1.2222 0.5000 0.0000
1.2222 0.6111 0.0000
1.2222 0.7222 0.0000
1.2222 0.8333 0.0000
1.2222 0.9444 0.0000
1.4444 0.0556 0.0000
1.4444 0.1667 0.0000
1.4444 0.2778 0.0000
1.4444 0.3889 0.0000
1.4444 0.5000 0.0000
1.4444 0.6111 0.0000
1.4444 0.7222 0.0000
1.4444 0.8333 0.0000
1.4444 0.9444 0.0000
1.6667 0.0556 0.0000
1.6667 0.1667 0.0000
1.6667 0.2778 0.0000
1.6667 0.3889 0.0000
1.6667 0.5000 0.0000
1.6667 0.6111 0.0000
1.6667 0.7222 0.0000
1.6667 0.8333 0.0000
1.6667 0.9444 0.0000
1.8889 0.0556 0.0000
1.8889 0.1667 0.0000
1.8889 0.2778 0.0000
1.8889 0.3889 0.0000
1.8889 0.5000 0.0000
1.8889 0.6111 0.0000
1.8889 0.7222 0.0000
1.8889 0.8333 0.0000
1.8889 0.9444 0.0000
0.0000 0.0556 0.0000
0.0556 0.0278 0.0000
0.0556 0.0833 0.0000
0.0000 0.1667 0.0000
0.0556 0.1389 0.0000
0.0556 0.1944 0.0000
0.0000 0.2778 0.0000
0.0556 0.2500 0.0000
0.0556 0.3056 0.0000
0.0000 0.3889 0.0000
0.0556 0.3611 0.0000
0.0556 0.4167 0.0000
0.0000 0.5000 0.0000
0.0556 0.4722 0.0000
0.0556 0.5278 0.0000
0.0000 0.6111 0.0000
0.0556 0.5833 0.0000
0.0556 0.6389 0.0000
0.0000 0.7222 0.0000
0.0556 0.6944 0.0000
0.0556 0.7500 0.0000
0.0000 0.8333 0.0000
0.0556 0.8056 0.0000
0.0556 0.8611 0.0000
0.0000 0.9444 0.0000
0.0556 0.9167 0.0000
0.0556 0.9722 0.0000
0.2222 0.0556 0.0000
0.2778 0.0278 0.0000
0.2778 0.0833 0.0000
0.2222 0.1667 0.0000
0.2778 0.1389 0.0000
0.2778 0.1944 0.0000
0.2222 0.2778 0.0000
0.2778 0.2500 0.0000
0.2778 0.3056 0.0000
0.2222 0.3889 0.0000
0.2778 0.3611 0.0000
0.2778 0.4167 0.0000
0.2222 0.5000 0.0000
0.2778 0.4722 0.0000
0.2778 0.5278 0.0000
0.2222 0.6111 0.0000
0.2778 0.5833 0.0000
0.2778 0.6389 0.0000
0.2222 0.7222 0.0000
0.2778 0.6944 0.0000
0.2778 0.7500 0.0000
0.2222 0.8333 0.0000
0.2778 0.8056 0.0000
0.2778 0.8611 0.0000
0.2222 0.9444 0.0000
0.2778 0.9167 0.0000
0.2778 0.9722 0.0000
0.4444 0.0556 0.0000
0.5000 0.0278 0.0000
0.5000 0.0833 0.0000
0.4444 0.1667 0.0000
0.5000 0.1389 0.0000
0.5000 0.1944 0.0000
0.4444 0.2778 0.0000
0.5000 0.2500 0.0000
0.5000 0.3056 0.0000
0.4444 0.3889 0.0000
0.5000 0.3611 0.0000
0.5000 0.4167 0.0000
0.4444 0.5000 0.0000
0.5000 0.4722 0.0000
0.5000 0.5278 0.0000
0.4444 0.6111 0.0000
0.5000 0.5833 0.0000
0.5000 0.6389 0.0000
0.4444 0.7222 0.0000
0.5000 0.6944 0.0000
0.5000 0.7500 0.0000
0.4444 0.8333 0.0000
0.5000 0.8056 0.0000
0.5000 0.8611 0.0000
0.4444 0.9444 0.0000
0.5000 0.9167 0.0000
0.5000 0.9722 0.0000
0.6667 0.0556 0.0000
0.7222 0.0278 0.0000
0.7222 0.0833 0.0000
0.6667 0.1667 0.0000
0.7222 0.1389 0.0000
0.7222 0.1944 0.0000
0.6667 0.2778 0.0000
0.7222 0.2500 0.0000
0.7222 0.3056 0.0000
0.6667 0.3889 0.0000
0.7222 0.3611 0.0000
0.7222 0.4167 0.0000
0.6667 0.5000 0.0000
0.7222 0.4722 0.0000
0.7222 0.5278 0.0000
0.6667 0.6111 0.0000
0.7222 0.5833 0.0000
0.7222 0.6389 0.0000
0.6667 0.7222 0.0000
0.7222 0.6944 0.0000
0.7222 0.7500 0.0000
0.6667 0.8333 0.0000
0.7222 0.8056 0.0000
0.7222 0.8611 0.0000
0.6667 0.9444 0.0000
0.7222 0.9167 0.0000
0.7222 0.9722 0.0000
0.8889 0.0556 0.0000
0.9444 0.0278 0.0000
0.9444 0.0833 0.0000
0.8889 0.1667 0.0000
0.9444 0.1389 0.0000
0.9444 0.1944 0.0000
0.8889 0.2778 0.0000
0.9444 0.2500 0.0000
0.9444 0.3056 0.0000
0.8889 0.3889 0.0000
0.9444 0.3611 0.0000
0.9444 0.4167 0.0000
0.8889 0.5000 0.0000
0.9444 0.4722 0.0000
0.9444 0.5278 0.0000
0.8889 0.6111 0.0000
0.9444 0.5833 0.0000
0.9444 0.6389 0.0000
0.8889 0.7222 0.0000
0.9444 0.6944 0.0000
0.9444 0.7500 0.0000
0.8889 0.8333 0.0000
0.9444 0.8056 0.0000
0.9444 0.8611 0.0000
0.8889 0.9444 0.0000
0.9444 0.9167 0.0000
0.9444 0.9722 0.0000
1.1111 0.0556 0.0000
1.1667 0.0278 0.0000
1.1667 0.0833 0.0000
1.1111 0.1667 0.0000
1.1667 0.1389 0.0000
1.1667 0.1944 0.0000
1.1111 0.2778 0.0000
1.1667 0.2500 0.0000
1.1667 0.3056 0.0000
1.1111 0.3889 0.0000
1.1667 0.3611 0.0000
1.1667 0.4167 0.0000
1.1111 0.5000 0.0000
1.1667 0.4722 0.0000
1.1667 0.5278 0.0000
1.1111 0.6111 0.0000
1.1667 0.5833 0.0000
1.1667 0.6389 0.0000
1.1111 0.7222 0.0000
1.1667 0.6944 0.0000
1.1667 0.7500 0.0000
1.1111 0.8333 0.0000
1.1667 0.8056 0.0000
1.1667 0.8611 0.0000
1.1111 0.9444 0.0000
1.1667 0.9167 0.0000
1.1667 0.9722 0.0000
1.3333 0.0556 0.0000
1.3889 0.0278 0.0000
1.3889 0.0833 0.0000
1.3333 0.1667 0.0000
1.3889 0.1389 0.0000
1.3889 0.1944 0.0000
1.3333 0.2778 0.0000
1.3889 0.2500 0.0000
1.3889 0.3056 0.0000
1.3333 0.3889 0.0000
1.3889 0.3611 0.0000
1.3889 0.4167 0.0000
1.3333 0.5000 0.0000
1.3889 0.4722 0.0000
1.3889 0.5278 0.0000
1.3333 0.6111 0.0000
1.3889 0.5833 0.0000
1.3889 0.6389 0.0000
1.3333 0.7222 0.0000
1.3889 0.6944 0.0000
1.3889 0.7500 0.0000
1.3333 0.8333 0.0000
1.3889 0.8056 0.0000
1.3889 0.8611 0.0000
1.3333 0.9444 0.0000
1.3889 0.9167 0.0000
1.3889 0.9722 0.0000
1.5556 0.0556 0.0000
1.6111 0.0278 0.0000
1.6111 0.0833 0.0000
1.5556 0.1667 0.0000
1.6111 0.1389 0.0000
1.6111 0.1944 0.0000
1.5556 0.2778 0.0000
1.6111 0.2500 0.0000
1.6111 0.3056 0.0000
1.5556 0.3889 0.0000
1.6111 0.3611 0.0000
1.6111 0.4167 0.0000
1.5556 0.5000 0.0000
1.6111 0.4722 0.0000
1.6111 0.5278 0.0000
1.5556 0.6111 0.0000
1.6111 0.5833 0.0000
1.6111 0.6389 0.0000
1.5556 0.7222 0.0000
1.6111 0.6944 0.0000
1.6111 0.7500 0.0000
1.5556 0.8333 0.0000
1.6111 0.8056 0.0000
1.6111 0.8611 0.0000
1.5556 0.9444 0.0000
1.6111 0.9167 0.0000
1.6111 0.9722 0.0000
1.7778 0.0556 0.0000
1.8333 0.0278 0.0000
1.8333 0.0833 0.0000
1.7778 0.1667 0.0000
1.8333 0.1389 0.0000
1.8333 0.1944 0.0000
1.7778 0.2778 0.0000
1.8333 0.2500 0.0000
1.8333 0.3056 0.0000
1.7778 0.3889 0.0000
1.8333 0.3611 0.0000
1.8333 0.4167 0.0000
1.7778 0.5000 0.0000
1.8333 0.4722 0.0000
1.8333 0.5278 0.0000
1.7778 0.6111 0.0000
1.8333 0.5833 0.0000
1.8333 0.6389 0.0000
1.7778 0.7222 0.0000
1.8333 0.6944 0.0000
1.8333 0.7500 0.0000
1.7778 0.8333 0.0000
1.8333 0.8056 0.0000
1.8333 0.8611 0.0000
1.7778 0.9444 0.0000
1.8333 0.9167 0.0000
1.8333 0.9722 0.0000
0.1111 0.1111 0.0000
0.1667 0.0833 0.0000
0.1111 0.2222 0.0000
0.1667 0.1944 0.0000
0.1111 0.3333 0.0000
0.1667 0.3056 0.0000
0.1111 0.4444 0.0000
0.1667 0.4167 0.0000
0.1111 0.5556 0.0000
0.1667 0.5278 0.0000
0.1111 0.6667 0.0000
0.1667 0.6389 0.0000
0.1111 0.7778 0.0000
0.1667 0.7500 0.0000
0.1111 0.8889 0.0000
0.1667 0.8611 0.0000
0.1111 1.0000 0.0000
0.1667 0.9722 0.0000
0.3333 0.1111 0.0000
0.3889 0.0833 0.0000
0.3333 0.2222 0.0000
0.3889 0.1944 0.0000
0.3333 0.3333 0.0000
0.3889 0.3056 0.0000
0.3333 0.4444 0.0000
0.3889 0.4167 0.0000
0.3333 0.5556 0.0000
0.3889 0.5278 0.0000
0.3333 0.6667 0.0000
0.3889 0.6389 0.0000
0.3333 0.7778 0.0000
0.3889 0.7500 0.0000
0.3333 0.8889 0.0000
0.3889 0.8611 0.0000
0.3333 1.0000 0.0000
0.3889 0.9722 0.0000
0.5556 0.1111 0.0000
[...]
         <PointData>
            <DataArray Name="fValues" NumberOfComponents="3" format="ascii" type="Float64">
       00000  8.34756e-28        00000 
 2.88247e-27 -4.72905e-28        00000 
-1.44544e-26  2.33964e-27        00000 
-3.82753e-27  9.56884e-27        00000 
 1.19328e-26 -2.30775e-27        00000 
 6.10013e-27  1.91377e-27        00000 
-6.40906e-27  6.90438e-28        00000 
 1.91204e-27        00000        00000 
-5.76632e-27 -2.16237e-27        00000 
-4.45203e-27 -3.33903e-27        00000 
-6.43228e-11  6.37215e-11        00000 
 3.80744e-11  8.30913e-11        00000 
 6.27356e-11 -2.68776e-11        00000 
-5.90141e-11 -3.05662e-11        00000 
-1.17630e-11 -7.54876e-11        00000 
-2.21156e-11  2.03848e-11        00000 
-6.58140e-12 -1.75873e-11        00000 
 4.20792e-11  4.49982e-11        00000 
-1.82592e-11 -1.24758e-11        00000 
-1.94169e-11  5.80016e-11        00000 
-2.04743e-11 -1.68399e-12        00000 
 9.07043e-11  3.69997e-11        00000 
 7.21485e-11 -2.50786e-11        00000 
-5.60298e-11 -1.13051e-10        00000 
 5.95577e-11 -4.37002e-11        00000 
 1.08731e-10  3.63727e-11        00000 
 1.13211e-10  6.69385e-11        00000 
 4.62492e-11 -7.48450e-11        00000 
 3.44045e-11 -1.57705e-11        00000 
 2.21636e-11 -2.92033e-11        00000 
 4.12292e-11  1.17240e-11        00000 
 4.93117e-12  7.66711e-11        00000 
 3.54490e-11  3.32498e-11        00000 
-1.01132e-10 -4.09059e-11        00000 
-3.70193e-12 -6.08971e-11        00000 
 1.19101e-10  1.07399e-11        00000 
 1.51843e-11  6.37712e-11        00000 
-1.24984e-11 -1.90781e-12        00000 
-1.62714e-11 -4.22702e-11        00000 
-6.38654e-11  1.91022e-10        00000 
-6.55049e-11 -9.83391e-12        00000 
-1.00471e-11  1.76684e-10        00000 
-1.57883e-11 -4.89102e-11        00000 
 1.95541e-11  2.93134e-11        00000 
-2.32774e-11  6.83364e-11        00000 
-6.17746e-11  1.07612e-11        00000 
-1.42535e-11  1.25905e-10        00000 
 3.90799e-11  2.65814e-11        00000 
-1.04947e-10 -4.88214e-11        00000 
-3.79501e-11  4.43379e-12        00000 
 5.01110e-11 -1.64135e-10        00000 
-4.28173e-11 -3.64224e-11        00000 
-2.73843e-11  7.77334e-11        00000 
-1.85736e-11  9.84812e-12        00000 
-3.47313e-11 -1.66835e-11        00000 
 3.67066e-11  4.13962e-11        00000 
 3.95062e-11  1.40794e-10        00000 
-1.37561e-11  2.35971e-11        00000 
-1.00457e-10 -1.00869e-10        00000 
-1.58941e-10  2.00657e-11        00000 
-6.32028e-12  3.18892e-11        00000 
 1.32445e-11  4.54961e-11        00000 
 1.30456e-11  2.90257e-11        00000 
 6.28972e-11  1.14817e-10        00000 
-1.23350e-11 -1.34079e-11        00000 
 4.34852e-11 -3.04325e-11        00000 
 3.76019e-11 -1.37277e-11        00000 
 3.15481e-12 -2.95586e-11        00000 
-5.70139e-11  5.71987e-11        00000 
 4.14495e-11  1.40290e-10        00000 
-2.53770e-11 -7.65681e-11        00000 
-3.52429e-12 -1.32161e-12        00000 
 1.37675e-10 -1.65556e-11        00000 
 9.55822e-11  6.15188e-11        00000 
 2.13163e-11  5.74119e-11        00000 
-4.97664e-11 -6.28546e-11        00000 
 1.19655e-11 -6.21299e-11        00000 
-5.55644e-11  9.04947e-11        00000 
 4.88853e-12 -5.78666e-11        00000 
-4.98481e-11 -8.50946e-11        00000 
 8.06324e-11 -2.76145e-10        00000 
 3.45040e-11 -5.28075e-11        00000 
 4.92832e-11 -1.83462e-11        00000 
 7.32143e-11 -8.28493e-12        00000 
 7.67386e-11 -2.41585e-12        00000 
 6.11067e-11  3.45750e-11        00000 
 3.09797e-11  1.17566e-10        00000 
 2.00657e-11  6.00409e-11        00000 
-1.28068e-10  1.02062e-10        00000 
-1.85167e-11  3.30942e-10        00000 
 2.84501e-11 -4.59295e-11        00000 
 1.00385e-10  3.86535e-12        00000 
 1.93268e-11 -2.52385e-11        00000 
 3.99041e-11 -4.71800e-12        00000 
 1.34321e-10 -7.30154e-11        00000 
 2.84217e-11 -3.64508e-11        00000 
-8.52651e-12  7.23190e-11        00000 
-1.82467e-11  8.64020e-11        00000 
-1.56319e-11  4.54605e-11        00000 
-1.19726e-11  1.47793e-12        00000 
-3.44272e-11  1.63531e-11        00000 
 4.76739e-11 -3.41238e-12        00000 
 6.48495e-11 -3.43809e-11        00000 
 7.55573e-12  3.53526e-11        00000 
-5.67137e-11  9.59366e-12        00000 
-2.15747e-11 -1.40632e-11        00000 
-1.70690e-11  4.14735e-12        00000 
-4.07407e-12  7.35723e-12        00000 
-2.43201e-11 -3.28790e-11        00000 
 6.73239e-13 -2.87770e-11        00000 
 7.23830e-11  6.17764e-11        00000 
 1.12816e-10 -5.22249e-13        00000 
 1.77778e-11  2.50111e-12        00000 
-2.55653e-11  3.81206e-12        00000 
 3.91509e-12  6.69527e-11        00000 
-3.54561e-12  3.73230e-11        00000 
 2.36007e-11 -8.41993e-12        00000 
 3.91687e-11  1.19638e-11        00000 
 4.71278e-11 -6.80700e-12        00000 
 2.30216e-11 -3.13065e-11        00000 
 2.06626e-11 -4.64091e-11        00000 
 8.82494e-12 -1.07825e-11        00000 
-1.28608e-11 -5.89360e-11        00000 
 3.59535e-11  3.73639e-11        00000 
-2.76827e-11 -1.55680e-11        00000 
 4.46292e-11  1.96856e-11        00000 
 6.97895e-11 -4.06395e-11        00000 
-1.50637e-11 -2.50964e-11        00000 
 8.45546e-12  2.09113e-11        00000 
-2.67306e-11 -2.06768e-12        00000 
 1.03455e-10  6.37002e-12        00000 
 2.15294e-11 -5.90390e-11        00000 
 4.66116e-12  3.05533e-13        00000 
 9.25127e-12 -6.87415e-11        00000 
-5.56071e-11 -3.84794e-11        00000 
-1.06439e-10 -1.85452e-11        00000 
-1.42109e-11  9.35074e-11        00000 
 4.95390e-11  6.63505e-11        00000 
-1.67830e-11  2.97646e-11        00000 
 7.57439e-12 -9.30882e-11        00000 
 5.67013e-12 -4.70450e-11        00000 
 1.25056e-12 -2.55369e-11        00000 
-1.09736e-10 -3.09868e-11        00000 
-8.63309e-11  1.34648e-11        00000 
-1.48503e-11  3.66640e-12        00000 
-6.46586e-11  1.14824e-11        00000 
-5.13865e-11  8.88178e-12        00000 
-7.12532e-11 -1.06866e-11        00000 
 3.20597e-11 -1.68470e-11        00000 
 3.72040e-11  6.26557e-11        00000 
-2.37321e-11  2.71072e-11        00000 
-1.60298e-11  8.39151e-11        00000 
 2.50395e-11  5.68434e-14        00000 
-8.98410e-11 -3.11857e-11        00000 
 5.57776e-13  3.51292e-11        00000 
 1.55751e-11  3.02549e-11        00000 
-6.79563e-11  3.87956e-11        00000 
 2.53237e-11 -4.26326e-12        00000 
-1.28239e-10 -3.46461e-11        00000 
-9.94476e-11 -2.03784e-11        00000 
-4.80327e-12  2.61196e-11        00000 
-4.31442e-11  5.49818e-11        00000 
-3.20597e-11  6.87805e-11        00000 
 3.78234e-11  1.60753e-10        00000 
 5.41149e-11  2.33058e-12        00000 
 7.79323e-11 -2.18989e-11        00000 
 1.69393e-11 -6.35794e-11        00000 
 3.14344e-11 -3.72893e-11        00000 
 1.07264e-10  7.84297e-11        00000 
 1.46656e-10  4.23768e-11        00000 
 1.15563e-10 -2.94875e-11        00000 
 8.07177e-12  4.57732e-11        00000 
-4.07683e-11  5.74119e-11        00000 
 2.31353e-11  5.82503e-11        00000 
-8.12861e-12  1.55467e-11        00000 
 6.15614e-11  4.46221e-12        00000 
 4.95106e-11  6.82263e-11        00000 
-2.27942e-11  5.52234e-11        00000 
-1.69393e-11  8.69846e-11        00000 
 4.46221e-11  1.60838e-10        00000 
-2.22258e-11 -2.72422e-11        00000 
 3.98451e-27 -1.39711e-27        00000 
 1.10276e-11 -2.66454e-11        00000 
 3.96341e-11 -6.32396e-11        00000 
 5.91523e-28  6.88020e-27        00000 
-1.38582e-11 -3.13731e-11        00000 
 9.42535e-12 -2.89933e-11        00000 
 3.63507e-27 -1.99929e-26        00000 
-6.07070e-11 -2.34466e-11        00000 
 1.22231e-11 -8.81091e-11        00000 
 1.64627e-27  3.84626e-28        00000 
-6.75526e-11 -4.04277e-11        00000 
 5.81868e-11 -2.26842e-11        00000 
 3.63507e-27  9.08768e-28        00000 
 3.92189e-11  1.27788e-11        00000 
 4.20335e-11 -2.25696e-11        00000 
-1.88532e-27  3.52000e-27        00000 
 4.10028e-12 -5.08930e-11        00000 
-2.40110e-11 -5.39870e-11        00000 
       00000  7.27014e-27        00000 
-1.86793e-11  6.41041e-11        00000 
 2.45368e-11 -4.56761e-11        00000 
       00000 -4.54384e-28        00000 
-2.27103e-11  2.49034e-11        00000 
-1.87255e-11 -5.48095e-12        00000 
 9.59101e-27  2.29151e-27        00000 
-3.42375e-11  1.20819e-11        00000 
-3.06457e-11 -6.50360e-11        00000 
-4.31513e-11 -4.64118e-11        00000 
-1.89075e-11 -1.02020e-10        00000 
 2.75442e-11  8.04281e-11        00000 
 1.95381e-11 -4.15565e-11        00000 
 7.02371e-12  7.27685e-11        00000 
-8.09059e-11 -8.58602e-12        00000 
-5.83125e-11 -7.81433e-11        00000 
-3.17115e-11  2.30331e-11        00000 
 1.77955e-11 -6.06821e-11        00000 
-1.08393e-11 -1.00466e-11        00000 
 5.01359e-11 -4.85958e-11        00000 
-6.41371e-11 -7.11173e-11        00000 
-7.85851e-11 -3.48019e-11        00000 
-3.73639e-11  3.53149e-11        00000 
-2.37179e-11  7.72857e-11        00000 
-2.90070e-11 -5.77007e-11        00000 
 6.06448e-12 -1.23350e-11        00000 
-4.71374e-11  1.15898e-11        00000 
 3.60334e-12 -1.41616e-10        00000 
-5.14255e-11  2.09885e-11        00000 
-4.61569e-11  3.28777e-11        00000 
-2.24647e-11  3.38152e-11        00000 
 1.18447e-11  6.24745e-12        00000 
-3.06315e-11 -2.36007e-11        00000 
-5.33014e-11  7.01283e-11        00000 
-1.64562e-11 -1.88649e-12        00000 
-4.91731e-11  7.20917e-11        00000 
 3.77334e-11 -3.17257e-11        00000 
 8.13642e-11 -5.71845e-11        00000 
 4.47216e-11 -2.90719e-11        00000 
 6.48228e-11 -5.16334e-11        00000 
 1.51132e-11 -2.40448e-11        00000 
-1.58309e-11 -5.66551e-11        00000 
-5.48965e-11 -5.02975e-11        00000 
 4.44089e-11  3.72324e-12        00000 
 6.25420e-11 -1.96820e-12        00000 
 5.76463e-11 -1.24771e-11        00000 
 1.85736e-11 -3.42837e-11        00000 
-8.32046e-12 -6.10072e-11        00000 
 1.01664e-10 -1.12070e-11        00000 
-1.48020e-10 -2.19735e-12        00000 
 1.24416e-11 -2.89635e-11        00000 
 6.98037e-11  3.31291e-11        00000 
-4.29097e-11  1.56852e-11        00000 
-1.00322e-10  2.88303e-12        00000 
 1.54330e-11 -6.68106e-11        00000 
-6.64215e-11 -9.28928e-11        00000 
-9.78417e-11  3.18963e-11        00000 
 3.12212e-11 -5.62057e-11        00000 
-7.65326e-11  1.75859e-11        00000 
-1.22711e-11 -1.90852e-11        00000 
-1.71809e-11  1.33131e-10        00000 
 7.41522e-11 -4.30411e-11        00000 
 3.46532e-11 -8.18545e-11        00000 
-1.05445e-11  3.68487e-11        00000 
 7.98366e-11  2.58069e-11        00000 
 1.74936e-11  2.52811e-11        00000 
 3.91864e-11 -5.14397e-11        00000 
-2.75975e-11  2.66134e-11        00000 
-5.87050e-11 -6.36291e-11        00000 
-3.00204e-11 -3.99076e-11        00000 
 5.85487e-12  1.80123e-11        00000 
 2.80096e-11  1.50031e-11        00000 
-4.51408e-11  1.10809e-11        00000 
 1.29177e-11 -7.23368e-11        00000 
 1.19940e-11 -6.48939e-11        00000 
-6.37286e-11 -7.06031e-11        00000 
-2.77112e-11  2.63398e-11        00000 
 2.90044e-11  4.51195e-13        00000 
-3.64295e-11 -2.45031e-11        00000 
 6.80700e-12 -6.86100e-11        00000 
-1.49640e-11 -3.81384e-11        00000 
-9.86162e-11 -9.21858e-11        00000 
-1.13403e-11 -1.13509e-11        00000 
-1.50536e-10 -6.00160e-11        00000 
-3.25429e-11 -1.14113e-11        00000 
-3.41061e-11  4.82494e-11        00000 
 2.26095e-11 -3.45644e-11        00000 
-1.21595e-10  8.73968e-12        00000 
 1.21474e-10  1.00766e-10        00000 
 1.67262e-11 -1.26960e-10        00000 
-3.16760e-11  1.89289e-11        00000 
 1.54472e-11  6.40057e-11        00000 
-3.22586e-11  3.18607e-11        00000 
 1.38641e-10  6.54268e-11        00000 
 3.75309e-11  7.01803e-11        00000 
-4.32152e-11 -1.00826e-11        00000 
 4.79190e-11  4.13785e-11        00000 
 6.66489e-12  8.54570e-11        00000 
 1.96394e-11  5.18128e-11        00000 
 1.00300e-10  1.02190e-10        00000 
 8.62883e-11 -6.22578e-11        00000 
-3.52856e-11 -3.28342e-11        00000 
-4.90559e-11  4.03269e-11        00000 
-4.88569e-11 -5.31699e-11        00000 
 3.56692e-12 -1.90497e-11        00000 
-6.08367e-11  1.31202e-11        00000 
-7.77334e-12 -6.68265e-11        00000 
 1.03739e-11 -3.21805e-11        00000 
-2.65885e-11  5.80975e-11        00000 
 3.95062e-12 -3.69980e-11        00000 
 4.54747e-12  7.02158e-11        00000 
-1.60369e-10  7.01554e-11        00000 
 3.35518e-11 -4.67395e-11        00000 
-1.86873e-11 -6.77502e-11        00000 
-6.00977e-11  6.58602e-11        00000 
 9.03100e-11  2.77822e-12        00000 
 9.29390e-12  7.61702e-12        00000 
-1.74367e-11  2.10889e-11        00000 
 1.44098e-11  1.35685e-10        00000 
 3.52145e-11 -6.36859e-11        00000 
 1.92557e-11 -8.42633e-11        00000 
-2.94165e-11  7.28164e-11        00000 
 9.72022e-12 -2.98996e-11        00000 
 4.67679e-11  7.14664e-11        00000 
-4.06715e-11  3.32392e-11        00000 
 1.13687e-11 -2.31637e-12        00000 
 2.80806e-11  8.68710e-11        00000 
 2.83364e-11 -1.55893e-11        00000 
-1.70530e-11  6.20304e-12        00000 
-2.00089e-11  9.11839e-11        00000 
-5.63034e-11  4.12825e-12        00000 
-8.67999e-11 -1.05800e-11        00000 
-7.95808e-12  7.65823e-11        00000 
 1.11129e-11 -6.79066e-11        00000 
-3.02691e-11  2.03784e-11        00000 
 1.80762e-11  1.25262e-10        00000 
-1.50635e-11 -2.77112e-12        00000 
-4.94538e-11 -2.32632e-11        00000 
-8.88747e-11  7.86144e-11        00000 
-6.65068e-11  8.14282e-12        00000 
 2.44711e-11 -6.34799e-11        00000 
-1.55353e-10  9.27258e-12        00000 
-5.61329e-11  1.42535e-11        00000 
-4.61000e-11 -1.29830e-10        00000 
-5.34612e-11  2.15081e-11        00000 
-2.03215e-11  5.82077e-11        00000 
-7.35838e-11  7.98934e-11        00000 
-3.49587e-12  1.31415e-10        00000 
 5.99698e-12 -4.61711e-11        00000 
 1.08855e-11  5.99840e-11        00000 
-8.44409e-11  1.00101e-10        00000 
 1.66267e-11  8.85336e-12        00000 
-2.64890e-11  7.00595e-12        00000 
-4.22631e-11 -2.90541e-11        00000 
-3.91935e-11 -2.75548e-11        00000 
-5.01359e-11 -1.69962e-11        00000 
-4.70664e-11  2.34905e-11        00000 
 5.84919e-11 -1.87015e-11        00000 
-9.65485e-11 -2.19558e-11        00000 
-2.44142e-11  1.84741e-13        00000 
-1.06610e-10  1.01892e-11        00000 
 5.96856e-13  1.97957e-11        00000 
-1.36140e-11 -2.57927e-11        00000 
-5.15001e-11  5.96856e-11        00000 
-1.04677e-10 -5.44276e-12        00000 
-1.24686e-10 -1.36069e-11        00000 
-1.86731e-11  3.66498e-11        00000 
-5.05622e-11  1.00144e-10        00000 
-6.46310e-11 -4.12896e-11        00000 
 5.23812e-11  1.07022e-10        00000 
-1.62004e-12 -1.50067e-11        00000 
 2.72848e-11  3.20739e-11        00000 
-2.08331e-11  1.72577e-10        00000 
 1.37561e-11  3.36229e-11        00000 
 6.06235e-11  5.02496e-11        00000 
 3.29123e-11  9.15890e-11        00000 
-5.48539e-11  2.79954e-12        00000 
 1.32360e-10  6.85532e-11        00000 
 2.71712e-11 -9.08074e-12        00000 
 5.27507e-11 -1.84031e-11        00000 
 6.28404e-11  5.89040e-11        00000 
 5.73550e-11  8.49525e-11        00000 
-1.98213e-10 -3.54703e-11        00000 
-2.39027e-11 -1.30456e-11        00000 
-4.20641e-11  7.41522e-11        00000 
-1.09964e-10  3.73603e-11        00000 
 7.87281e-12  3.83693e-12        00000 
-4.02451e-11  7.86997e-11        00000 
-7.86144e-11 -2.45421e-11        00000 
 2.32205e-11  5.88329e-12        00000 
-7.38964e-13  1.10575e-10        00000 
-5.37739e-11  3.20739e-11        00000 
-5.92308e-11 -3.25286e-11        00000 
-2.19131e-11  9.59233e-12        00000 
-8.91305e-11  6.47731e-11        00000 
 5.64455e-11  1.63709e-11        00000 
-1.44951e-12  7.09122e-12        00000 
-5.68434e-12  1.64277e-10        00000 
 2.89901e-12  2.52953e-11        00000 
 6.57110e-11  2.69893e-10        00000 
 3.30260e-11 -1.17808e-10        00000 
 1.08002e-11 -2.73417e-11        00000 
-2.64322e-11  2.48264e-11        00000 
 2.16573e-11 -5.22533e-11        00000 
 6.34941e-11  5.95151e-11        00000 
 1.08002e-11  1.14483e-10        00000 
-3.50155e-11  2.43716e-11        00000 
-3.06954e-12  7.14806e-12        00000 
-6.09361e-11  7.07843e-11        00000 
 5.51381e-12  7.55875e-11        00000 
 2.26237e-11  7.31717e-11        00000 
-2.84217e-13  8.26930e-11        00000 
-2.46132e-11  5.69997e-11        00000 
-2.60343e-11 -4.85443e-11        00000 
 1.08571e-11  1.08713e-11        00000 
 1.72804e-11  7.61702e-12        00000 
 3.60956e-11 -1.94831e-11        00000 
-7.27027e-11 -2.08473e-11        00000 
 6.54268e-11  3.34097e-11        00000 
 6.87805e-12  6.63789e-11        00000 
-1.84173e-11  3.62519e-11        00000 
 7.84439e-11 -1.09608e-10        00000 
 1.71099e-11 -2.96438e-11        00000 
-9.30527e-11  1.96238e-10        00000 
-2.89901e-12 -3.07182e-10        00000 
-5.14717e-11 -2.20934e-12        00000 
-3.81967e-11 -6.67093e-11        00000 
 6.05782e-11 -8.84719e-11        00000 
 5.05861e-11  4.17693e-11        00000 
 8.34888e-14  6.29141e-12        00000 
 2.12086e-11  1.72591e-11        00000 
-6.24656e-12 -3.16502e-11        00000 
-2.57031e-11 -3.44951e-11        00000 
-1.10267e-11 -1.84632e-11        00000 
-3.66589e-11  4.62741e-11        00000 
-1.52420e-11  6.76565e-11        00000 
-1.52662e-11  1.54561e-11        00000 
 4.78408e-11 -2.95182e-11        00000 
-5.05087e-11 -2.61444e-11        00000 
-2.68390e-11 -1.35096e-11        00000 
 7.74000e-11  4.08988e-11        00000 
-6.96918e-11  3.78932e-11        00000 
-1.62559e-11  3.51150e-11        00000 
 1.94191e-11 -2.57838e-11        00000 
 7.54144e-11 -3.34097e-11        00000 
 4.72760e-11 -1.17382e-11        00000 
 6.53961e-11 -3.53495e-11        00000 
-4.19931e-12  1.52678e-11        00000 
 2.81794e-12 -1.31379e-11        00000 
-3.95701e-11  1.01643e-11        00000 
 3.27653e-11 -2.02931e-11        00000 
-3.51896e-11  2.92903e-11        00000 
-1.02712e-11  2.06128e-11        00000 
-5.54436e-11 -1.87637e-11        00000 
-2.45094e-11  2.83507e-12        00000 
-7.03793e-12  1.39568e-11        00000 
-2.01018e-11  9.08074e-12        00000 
-4.11902e-11 -8.59206e-11        00000 
 1.08260e-11  1.94689e-12        00000 
-9.22640e-12 -6.23288e-11        00000 
 8.78311e-11  9.66907e-11        00000 
-9.35074e-12  2.73275e-11        00000 
-7.16858e-12 -3.71756e-11        00000 
 5.57705e-11 -2.75122e-11        00000 
-3.90468e-11  2.81943e-11        00000 
-4.41105e-11  4.52580e-11        00000 
 9.92105e-11  2.87770e-11        00000 
-3.02194e-11 -7.51754e-12        00000 
 3.41299e-11 -6.24425e-11        00000 
-1.20295e-11  2.00409e-11        00000 
 5.47261e-11  2.73417e-11        00000 
-3.06031e-11  3.30402e-11        00000 
 2.46164e-11  7.10543e-11        00000 
 5.28644e-12  3.96874e-11        00000 
-1.39821e-11  5.88045e-11        00000 
 4.93969e-11  4.68496e-11        00000 
 1.84441e-11 -1.61151e-11        00000 
 3.47740e-11  3.72609e-11        00000 
-2.17204e-12 -1.87299e-11        00000 
-4.85869e-11  1.47580e-10        00000 
 1.62225e-11 -4.14957e-11        00000 
 2.31637e-12  3.50902e-11        00000 
-3.05425e-11  1.04677e-10        00000 
-5.94724e-11  5.14753e-11        00000 
 8.30114e-12  6.82121e-11        00000 
 1.85594e-11  5.07328e-12        00000 
 3.59673e-11  3.27987e-11        00000 
 6.17035e-11  9.44311e-12        00000 
 5.70541e-11  8.93863e-11        00000 
 1.86020e-11  9.03739e-11        00000 
-1.00640e-10  1.01181e-10        00000 
-4.64695e-12 -4.99121e-11        00000 
-1.35878e-11  8.67715e-11        00000 
-6.00835e-11  5.53868e-11        00000 
-6.01297e-12  1.84741e-12        00000 
-1.41540e-11  1.25112e-10        00000 
-7.74273e-11 -8.85336e-11        00000 
-6.30109e-11  9.88081e-11        00000 