<?xml version="1.0" encoding="utf-8"?>
<VTKFile byte_order="LittleEndian" type="UnstructuredGrid" version="0.1">
   <UnstructuredGrid>
      <Piece NumberOfCells="1296" NumberOfPoints="685">
         <Points>
            <DataArray Name="Points" NumberOfComponents="3" format="ascii" type="Float32">
0.0000 0.0000 0.0000
0.0000 0.1111 0.0000
0.0000 0.2222 0.0000
0.0000 0.3333 0.0000
0.0000 0.4444 0.0000
0.0000 0.5556 0.0000
0.0000 0.6667 0.0000
0.0000 0.7778 0.0000
0.0000 0.8889 0.0000
0.0000 1.0000 0.0000
0.2222 0.0000 0.0000
0.2222 0.1111 0.0000
0.2222 0.2222 0.0000
0.2222 0.3333 0.0000
0.2222 0.4444 0.0000
0.2222 0.5556 0.0000
0.2222 0.6667 0.0000
0.2222 0.7778 0.0000
0.2222 0.8889 0.0000
0.2222 1.0000 0.0000
0.4444 0.0000 0.0000
0.4444 0.1111 0.0000
0.4444 0.2222 0.0000
0.4444 0.3333 0.0000
0.4444 0.4444 0.0000
0.4444 0.5556 0.0000
0.4444 0.6667 0.0000
0.4444 0.7778 0.0000
0.4444 0.8889 0.0000
0.4444 1.0000 0.0000
0.6667 0.0000 0.0000
0.6667 0.1111 0.0000
0.6667 0.2222 0.0000
0.6667 0.3333 0.0000
0.6667 0.4444 0.0000
0.6667 0.5556 0.0000
0.6667 0.6667 0.0000
0.6667 0.7778 0.0000
0.6667 0.8889 0.0000
0.6667 1.0000 0.0000
0.8889 0.0000 0.0000
0.8889 0.1111 0.0000
0.8889 0.2222 0.0000
0.8889 0.3333 0.0000
0.8889 0.4444 0.0000
0.8889 0.5556 0.0000
0.8889 0.6667 0.0000
0.8889 0.7778 0.0000
0.8889 0.8889 0.0000
0.8889 1.0000 0.0000
1.1111 0.0000 0.0000
1.1111 0.1111 0.0000
1.1111 0.2222 0.0000
1.1111 0.3333 0.0000
1.1111 0.4444 0.0000
1.1111 0.5556 0.0000
1.1111 0.6667 0.0000
1.1111 0.7778 0.0000
1.1111 0.8889 0.0000
1.1111 1.0000 0.0000
1.3333 0.0000 0.0000
1.3333 0.1111 0.0000
1.3333 0.2222 0.0000
1.3333 0.3333 0.0000
1.3333 0.4444 0.0000
1.3333 0.5556 0.0000
1.3333 0.6667 0.0000
1.3333 0.7778 0.0000
1.3333 0.8889 0.0000
1.3333 1.0000 0.0000
1.5556 0.0000 0.0000
1.5556 0.1111 0.0000
1.5556 0.2222 0.0000
1.5556 0.3333 0.0000
1.5556 0.4444 0.0000
1.5556 0.5556 0.0000
1.5556 0.6667 0.0000
1.5556 0.7778 0.0000
1.5556 0.8889 0.0000
1.5556 1.0000 0.0000
1.7778 0.0000 0.0000
1.7778 0.1111 0.0000
1.7778 0.2222 0.0000
1.7778 0.3333 0.0000
1.7778 0.4444 0.0000
1.7778 0.5556 0.0000
1.7778 0.6667 0.0000
1.7778 0.7778 0.0000
1.7778 0.8889 0.0000
1.7778 1.0000 0.0000
2.0000 0.0000 0.0000
2.0000 0.1111 0.0000
2.0000 0.2222 0.0000
2.0000 0.3333 0.0000
2.0000 0.4444 0.0000
2.0000 0.5556 0.0000
2.0000 0.6667 0.0000
2.0000 0.7778 0.0000
2.0000 0.8889 0.0000
2.0000 1.0000 0.0000
0.1111 0.0556 0.0000
0.1111 0.1667 0.0000
0.1111 0.2778 0.0000
0.1111 0.3889 0.0000
0.1111 0.5000 0.0000
0.1111 0.6111 0.0000
0.1111 0.7222 0.0000
0.1111 0.8333 0.0000
0.1111 0.9444 0.0000
0.3333 0.0556 0.0000
0.3333 0.1667 0.0000
0.3333 0.2778 0.0000
0.3333 0.3889 0.0000
0.3333 0.5000 0.0000
0.3333 0.6111 0.0000
0.3333 0.7222 0.0000
0.3333 0.8333 0.0000
0.3333 0.9444 0.0000
0.5556 0.0556 0.0000
0.5556 0.1667 0.0000
0.5556 0.2778 0.0000
0.5556 0.3889 0.0000
0.5556 0.5000 0.0000
0.5556 0.6111 0.0000
0.5556 0.7222 0.0000
0.5556 0.8333 0.0000
0.5556 0.9444 0.0000
0.7778 0.0556 0.0000
0.7778 0.1667 0.0000
0.7778 0.2778 0.0000
0.7778 0.3889 0.0000
0.7778 0.5000 0.0000
0.7778 0.6111 0.0000
0.7778 0.7222 0.0000
0.7778 0.8333 0.0000
0.7778 0.9444 0.0000
1.0000 0.0556 0.0000
1.0000 0.1667 0.0000
1.0000 0.2778 0.0000
1.0000 0.3889 0.0000
1.0000 0.5000 0.0000
1.0000 0.6111 0.0000
1.0000 0.7222 0.0000
1.0000 0.8333 0.0000
1.0000 0.9444 0.0000
1.2222 0.0556 0.0000
1.2222 0.1667 0.0000
1.2222 0.2778 0.0000
1.2222 0.3889 0.0000
1.2222 0.5000 0.0000
1.2222 0.6111 0.0000
1.2222 0.7222 0.0000
1.2222 0.8333 0.0000
1.2222 0.9444 0.0000
1.4444 0.0556 0.0000
1.4444 0.1667 0.0000
1.4444 0.2778 0.0000
1.4444 0.3889 0.0000
1.4444 0.5000 0.0000
1.4444 0.6111 0.0000
1.4444 0.7222 0.0000
1.4444 0.8333 0.0000
1.4444 0.9444 0.0000
1.6667 0.0556 0.0000
1.6667 0.1667 0.0000
1.6667 0.2778 0.0000
1.6667 0.3889 0.0000
1.6667 0.5000 0.0000
1.6667 0.6111 0.0000
1.6667 0.7222 0.0000
1.6667 0.8333 0.0000
1.6667 0.9444 0.0000
1.8889 0.0556 0.0000
1.8889 0.1667 0.0000
1.8889 0.2778 0.0000
1.8889 0.3889 0.0000
1.8889 0.5000 0.0000
1.8889 0.6111 0.0000
1.8889 0.7222 0.0000
1.8889 0.8333 0.0000
1.8889 0.9444 0.0000
0.0000 0.0556 0.0000
0.0556 0.0278 0.0000
0.0556 0.0833 0.0000
0.0000 0.1667 0.0000
0.0556 0.1389 0.0000
0.0556 0.1944 0.0000
0.0000 0.2778 0.0000
0.0556 0.2500 0.0000
0.0556 0.3056 0.0000
0.0000 0.3889 0.0000
0.0556 0.3611 0.0000
0.0556 0.4167 0.0000
0.0000 0.5000 0.0000
0.0556 0.4722 0.0000
0.0556 0.5278 0.0000
0.0000 0.6111 0.0000
0.0556 0.5833 0.0000
0.0556 0.6389 0.0000
0.0000 0.7222 0.0000
0.0556 0.6944 0.0000
0.0556 0.7500 0.0000
0.0000 0.8333 0.0000
0.0556 0.8056 0.0000
0.0556 0.8611 0.0000
0.0000 0.9444 0.0000
0.0556 0.9167 0.0000
0.0556 0.9722 0.0000
0.2222 0.0556 0.0000
0.2778 0.0278 0.0000
0.2778 0.0833 0.0000
0.2222 0.1667 0.0000
0.2778 0.1389 0.0000
0.2778 0.1944 0.0000
0.2222 0.2778 0.0000
0.2778 0.2500 0.0000
0.2778 0.3056 0.0000
0.2222 0.3889 0.0000
0.2778 0.3611 0.0000
0.2778 0.4167 0.0000
0.2222 0.5000 0.0000
0.2778 0.4722 0.0000
0.2778 0.5278 0.0000
0.2222 0.6111 0.0000
0.2778 0.5833 0.0000
0.2778 0.6389 0.0000
0.2222 0.7222 0.0000
0.2778 0.6944 0.0000
0.2778 0.7500 0.0000
0.2222 0.8333 0.0000
0.2778 0.8056 0.0000
0.2778 0.8611 0.0000
0.2222 0.9444 0.0000
0.2778 0.9167 0.0000
0.2778 0.9722 0.0000
0.4444 0.0556 0.0000
0.5000 0.0278 0.0000
0.5000 0.0833 0.0000
0.4444 0.1667 0.0000
0.5000 0.1389 0.0000
0.5000 0.1944 0.0000
0.4444 0.2778 0.0000
0.5000 0.2500 0.0000
0.5000 0.3056 0.0000
0.4444 0.3889 0.0000
0.5000 0.3611 0.0000
0.5000 0.4167 0.0000
0.4444 0.5000 0.0000
0.5000 0.4722 0.0000
0.5000 0.5278 0.0000
0.4444 0.6111 0.0000
0.5000 0.5833 0.0000
0.5000 0.6389 0.0000
0.4444 0.7222 0.0000
0.5000 0.6944 0.0000
0.5000 0.7500 0.0000
0.4444 0.8333 0.0000
0.5000 0.8056 0.0000
0.5000 0.8611 0.0000
0.4444 0.9444 0.0000
0.5000 0.9167 0.0000
0.5000 0.9722 0.0000
0.6667 0.0556 0.0000
0.7222 0.0278 0.0000
0.7222 0.0833 0.0000
0.6667 0.1667 0.0000
0.7222 0.1389 0.0000
0.7222 0.1944 0.0000
0.6667 0.2778 0.0000
0.7222 0.2500 0.0000
0.7222 0.3056 0.0000
0.6667 0.3889 0.0000
0.7222 0.3611 0.0000
0.7222 0.4167 0.0000
0.6667 0.5000 0.0000
0.7222 0.4722 0.0000
0.7222 0.5278 0.0000
0.6667 0.6111 0.0000
0.7222 0.5833 0.0000
0.7222 0.6389 0.0000
0.6667 0.7222 0.0000
0.7222 0.6944 0.0000
0.7222 0.7500 0.0000
0.6667 0.8333 0.0000
0.7222 0.8056 0.0000
0.7222 0.8611 0.0000
0.6667 0.9444 0.0000
0.7222 0.9167 0.0000
0.7222 0.9722 0.0000
0.8889 0.0556 0.0000
0.9444 0.0278 0.0000
0.9444 0.0833 0.0000
0.8889 0.1667 0.0000
0.9444 0.1389 0.0000
0.9444 0.1944 0.0000
0.8889 0.2778 0.0000
0.9444 0.2500 0.0000
0.9444 0.3056 0.0000
0.8889 0.3889 0.0000
0.9444 0.3611 0.0000
0.9444 0.4167 0.0000
0.8889 0.5000 0.0000
0.9444 0.4722 0.0000
0.9444 0.5278 0.0000
0.8889 0.6111 0.0000
0.9444 0.5833 0.0000
0.9444 0.6389 0.0000
0.8889 0.7222 0.0000
0.9444 0.6944 0.0000
0.9444 0.7500 0.0000
0.8889 0.8333 0.0000
0.9444 0.8056 0.0000
0.9444 0.8611 0.0000
0.8889 0.9444 0.0000
0.9444 0.9167 0.0000
0.9444 0.9722 0.0000
1.1111 0.0556 0.0000
1.1667 0.0278 0.0000
1.1667 0.0833 0.0000
1.1111 0.1667 0.0000
1.1667 0.1389 0.0000
1.1667 0.1944 0.0000
1.1111 0.2778 0.0000
1.1667 0.2500 0.0000
1.1667 0.3056 0.0000
1.1111 0.3889 0.0000
1.1667 0.3611 0.0000
1.1667 0.4167 0.0000
1.1111 0.5000 0.0000
1.1667 0.4722 0.0000
1.1667 0.5278 0.0000
1.1111 0.6111 0.0000
1.1667 0.5833 0.0000
1.1667 0.6389 0.0000
1.1111 0.7222 0.0000
1.1667 0.6944 0.0000
1.1667 0.7500 0.0000
1.1111 0.8333 0.0000
1.1667 0.8056 0.0000
1.1667 0.8611 0.0000
1.1111 0.9444 0.0000
1.1667 0.9167 0.0000
1.1667 0.9722 0.0000
1.3333 0.0556 0.0000
1.3889 0.0278 0.0000
1.3889 0.0833 0.0000
1.3333 0.1667 0.0000
1.3889 0.1389 0.0000
1.3889 0.1944 0.0000
1.3333 0.2778 0.0000
1.3889 0.2500 0.0000
1.3889 0.3056 0.0000
1.3333 0.3889 0.0000
1.3889 0.3611 0.0000
1.3889 0.4167 0.0000
1.3333 0.5000 0.0000
1.3889 0.4722 0.0000
1.3889 0.5278 0.0000
1.3333 0.6111 0.0000
1.3889 0.5833 0.0000
1.3889 0.6389 0.0000
1.3333 0.7222 0.0000
1.3889 0.6944 0.0000
1.3889 0.7500 0.0000
1.3333 0.8333 0.0000
1.3889 0.8056 0.0000
1.3889 0.8611 0.0000
1.3333 0.9444 0.0000
1.3889 0.9167 0.0000
1.3889 0.9722 0.0000
1.5556 0.0556 0.0000
1.6111 0.0278 0.0000
1.6111 0.0833 0.0000
1.5556 0.1667 0.0000
1.6111 0.1389 0.0000
1.6111 0.1944 0.0000
1.5556 0.2778 0.0000
1.6111 0.2500 0.0000
1.6111 0.3056 0.0000
1.5556 0.3889 0.0000
1.6111 0.3611 0.0000
1.6111 0.4167 0.0000
1.5556 0.5000 0.0000
1.6111 0.4722 0.0000
1.6111 0.5278 0.0000
1.5556 0.6111 0.0000
1.6111 0.5833 0.0000
1.6111 0.6389 0.0000
1.5556 0.7222 0.0000
1.6111 0.6944 0.0000
1.6111 0.7500 0.0000
1.5556 0.8333 0.0000
1.6111 0.8056 0.0000
1.6111 0.8611 0.0000
1.5556 0.9444 0.0000
1.6111 0.9167 0.0000
1.6111 0.9722 0.0000
1.7778 0.0556 0.0000
1.8333 0.0278 0.0000
1.8333 0.0833 0.0000
1.7778 0.1667 0.0000
1.8333 0.1389 0.0000
1.8333 0.1944 0.0000
1.7778 0.2778 0.0000
1.8333 0.2500 0.0000
1.8333 0.3056 0.0000
1.7778 0.3889 0.0000
1.8333 0.3611 0.0000
1.8333 0.4167 0.0000
1.7778 0.5000 0.0000
1.8333 0.4722 0.0000
1.8333 0.5278 0.0000
1.7778 0.6111 0.0000
1.8333 0.5833 0.0000
1.8333 0.6389 0.0000
1.7778 0.7222 0.0000
1.8333 0.6944 0.0000
1.8333 0.7500 0.0000
1.7778 0.8333 0.0000
1.8333 0.8056 0.0000
1.8333 0.8611 0.0000
1.7778 0.9444 0.0000
1.8333 0.9167 0.0000
1.8333 0.9722 0.0000
0.1111 0.1111 0.0000
0.1667 0.0833 0.0000
0.1111 0.2222 0.0000
0.1667 0.1944 0.0000
0.1111 0.3333 0.0000
0.1667 0.3056 0.0000
0.1111 0.4444 0.0000
0.1667 0.4167 0.0000
0.1111 0.5556 0.0000
0.1667 0.5278 0.0000
0.1111 0.6667 0.0000
0.1667 0.6389 0.0000
0.1111 0.7778 0.0000
0.1667 0.7500 0.0000
0.1111 0.8889 0.0000
0.1667 0.8611 0.0000
0.1111 1.0000 0.0000
0.1667 0.9722 0.0000
0.3333 0.1111 0.0000
0.3889 0.0833 0.0000
0.3333 0.2222 0.0000
0.3889 0.1944 0.0000
0.3333 0.3333 0.0000
0.3889 0.3056 0.0000
0.3333 0.4444 0.0000
0.3889 0.4167 0.0000
0.3333 0.5556 0.0000
0.3889 0.5278 0.0000
0.3333 0.6667 0.0000
0.3889 0.6389 0.0000
0.3333 0.7778 0.0000
0.3889 0.7500 0.0000
0.3333 0.8889 0.0000
0.3889 0.8611 0.0000
0.3333 1.0000 0.0000
0.3889 0.9722 0.0000
0.5556 0.1111 0.0000
[...]
         <PointData>
            <DataArray Name="fValues" NumberOfComponents="3" format="ascii" type="Float64">
-3.26781e-20  5.60196e-20        00000 
-1.79334e-19 -1.41050e-20        00000 
-2.14048e-21  3.68288e-21        00000 
 1.44485e-19 -1.68565e-19        00000 
 6.58203e-19  8.90822e-21        00000 
-1.52511e-19  9.63231e-20        00000 
 9.01508e-20 -6.49690e-20        00000 
 1.60393e-20  2.40590e-20        00000 
       00000  6.44952e-20        00000 
-7.46927e-20  3.73464e-20        00000 
-2.72822e-04  2.36877e-03        00000 
-2.49383e-04  1.70257e-03        00000 
 1.06145e-03 -7.49111e-04        00000 
 6.65491e-05 -5.05404e-04        00000 
-3.44265e-06 -2.00978e-03        00000 
 6.05367e-05  9.15458e-04        00000 
 4.70157e-04  4.20770e-04        00000 
 1.18898e-03  6.25690e-04        00000 
 3.66810e-06 -7.45710e-05        00000 
 4.26646e-04  1.29816e-03        00000 
-2.00031e-04  3.15094e-03        00000 
 1.19326e-03  8.77544e-04        00000 
-2.29751e-04 -4.08136e-04        00000 
-2.54668e-03 -1.70785e-03        00000 
 7.15950e-04 -9.00519e-04        00000 
 4.50703e-04 -9.46246e-04        00000 
 3.26485e-04  8.88728e-04        00000 
 4.88895e-04 -6.69170e-04        00000 
 1.22227e-04  9.42276e-04        00000 
 1.31530e-03  2.24072e-03        00000 
 4.59337e-04  5.00042e-04        00000 
 2.21711e-04  4.22598e-04        00000 
 7.93244e-04  8.38549e-04        00000 
-1.91758e-03 -4.78758e-04        00000 
 1.25677e-03 -5.09538e-04        00000 
 1.37244e-03  5.44030e-04        00000 
-7.26480e-05  1.50250e-03        00000 
-9.60957e-04 -4.98157e-04        00000 
-6.56910e-05 -7.63328e-04        00000 
-5.54654e-04 -2.94567e-04        00000 
-1.57354e-03  2.99556e-04        00000 
 9.32467e-04  2.10997e-03        00000 
-3.04945e-04  6.39932e-05        00000 
-1.10315e-03 -6.61975e-04        00000 
-1.53263e-04  5.85701e-04        00000 
-1.60208e-03 -6.22155e-04        00000 
-1.11502e-03  1.24572e-03        00000 
-9.83667e-04 -2.42213e-04        00000 
-1.69455e-03 -8.16310e-04        00000 
-2.26091e-03  1.52119e-04        00000 
 1.14178e-03 -2.61384e-03        00000 
-8.92024e-04 -4.87621e-04        00000 
 3.21815e-04  1.61332e-04        00000 
-1.93977e-04  1.04893e-04        00000 
-4.12567e-04 -3.03288e-04        00000 
-2.09577e-04  2.80882e-04        00000 
-1.06096e-03  6.57979e-04        00000 
-7.92415e-04  6.43382e-04        00000 
-1.31997e-03  2.53439e-04        00000 
-1.51811e-03  3.23557e-03        00000 
 4.30916e-04 -9.99220e-04        00000 
-1.02976e-03  3.56238e-05        00000 
-3.30399e-04 -6.24958e-04        00000 
 5.60462e-04  1.27676e-03        00000 
 8.12065e-04  1.09883e-03        00000 
-1.11663e-04  2.10439e-04        00000 
 3.44767e-05  4.57751e-04        00000 
-1.43783e-03 -4.20985e-06        00000 
-1.39756e-03  7.86697e-04        00000 
 5.17810e-04  4.72072e-03        00000 
-1.54396e-03 -2.16365e-03        00000 
 4.71003e-04 -3.35717e-04        00000 
-2.77768e-04 -2.95720e-04        00000 
-2.07050e-04 -5.12707e-04        00000 
-2.82097e-04  5.98391e-04        00000 
-4.74109e-04  2.31113e-04        00000 
-7.15501e-04  9.83321e-04        00000 
-2.07978e-04  1.47543e-03        00000 
 2.99781e-04  1.62377e-04        00000 
-8.51499e-04 -7.76873e-04        00000 
-9.69521e-06 -1.77830e-03        00000 
-4.16655e-04 -3.17793e-04        00000 
-1.30319e-03 -7.79308e-06        00000 
-2.92866e-04 -6.49228e-05        00000 
-1.27773e-03 -8.22607e-04        00000 
-7.93203e-04 -2.01314e-04        00000 
-1.38141e-03  2.16750e-04        00000 
-9.75600e-04  1.37257e-03        00000 
-1.61750e-03  1.80757e-03        00000 
-8.84616e-04 -7.97429e-04        00000 
-1.93951e-04  1.08090e-03        00000 
 4.36977e-04  3.91690e-04        00000 
 1.05108e-03  2.86569e-05        00000 
 3.65223e-04  4.03188e-05        00000 
 8.88664e-04 -7.86575e-04        00000 
-1.01330e-04 -5.59471e-06        00000 
-1.28473e-04  1.16182e-03        00000 
-4.00284e-04  4.12605e-04        00000 
 7.01107e-04 -4.39369e-04        00000 
-1.53132e-03  4.11195e-04        00000 
 7.80679e-05 -3.87043e-04        00000 
 4.14496e-04 -2.88783e-05        00000 
 1.09442e-03 -6.06651e-05        00000 
 7.12345e-06  1.22835e-03        00000 
-2.51904e-04  6.27482e-04        00000 
-5.80725e-04  1.41685e-04        00000 
-4.92746e-04  4.98831e-04        00000 
-3.94081e-04  8.07337e-04        00000 
 8.84925e-04 -1.05415e-05        00000 
-7.96556e-04 -1.07699e-03        00000 
 1.13724e-03  4.90651e-04        00000 
 8.20080e-04 -1.96065e-04        00000 
 4.90829e-04 -7.00772e-05        00000 
 4.45309e-04 -1.99371e-04        00000 
-1.01239e-04  6.77357e-04        00000 
 6.50846e-04  7.31558e-04        00000 
-4.24624e-04 -2.71092e-04        00000 
-1.75043e-04 -4.02674e-04        00000 
 9.74466e-04 -9.77408e-05        00000 
 2.79382e-05 -1.35666e-04        00000 
-6.42816e-04 -1.20095e-05        00000 
-1.16446e-04 -5.70969e-04        00000 
-3.12094e-04  7.79942e-04        00000 
 1.87374e-03  2.63834e-04        00000 
 1.27405e-03 -1.37011e-03        00000 
 9.48653e-04 -6.11808e-04        00000 
 8.24426e-04 -1.13254e-03        00000 
-9.21759e-04 -2.76017e-04        00000 
 8.98680e-04  1.76125e-03        00000 
 1.37798e-04  8.74621e-04        00000 
 1.08666e-03  1.27725e-03        00000 
-8.10467e-04  9.31887e-04        00000 
 1.24870e-03  1.63931e-03        00000 
 1.98834e-03  8.92776e-04        00000 
 8.99953e-05 -4.14442e-04        00000 
-7.03150e-05 -1.33277e-04        00000 
 1.03472e-04  1.10433e-03        00000 
 2.27043e-03  1.76803e-03        00000 
 2.99554e-04  5.95538e-04        00000 
 5.40783e-04 -4.41528e-04        00000 
 6.84216e-04  1.17384e-03        00000 
 2.39906e-03  2.43910e-03        00000 
 8.54707e-04  1.72857e-03        00000 
 2.71674e-04  1.02029e-03        00000 
 2.79849e-04  5.13727e-04        00000 
-5.45763e-04  6.82417e-04        00000 
-3.71377e-04 -8.87919e-04        00000 
 6.99158e-04 -2.87238e-04        00000 
 9.65614e-04 -2.21761e-04        00000 
 5.14013e-04  8.92100e-04        00000 
 1.00292e-04  7.96613e-04        00000 
-1.37009e-03  3.70862e-04        00000 
-1.29746e-04  1.32646e-04        00000 
-7.96377e-04 -1.82156e-03        00000 
 8.05037e-04 -3.77635e-04        00000 
-1.73503e-03 -1.33084e-03        00000 
-3.08995e-04 -3.37566e-04        00000 
 6.49020e-04  3.76739e-05        00000 
-5.18525e-04  3.38470e-04        00000 
-1.90514e-03  3.67287e-04        00000 
-7.68482e-04 -3.04220e-04        00000 
-1.14007e-03  7.67020e-04        00000 
-1.25157e-03 -5.08057e-04        00000 
-3.23133e-04  1.83849e-03        00000 
 1.81397e-04  4.25831e-04        00000 
-4.63974e-04  1.31854e-03        00000 
-7.14324e-04  8.31128e-04        00000 
 4.52126e-04  1.00147e-03        00000 
-1.29492e-03  8.80250e-04        00000 
 1.80944e-04  1.36652e-03        00000 
 6.76041e-04  1.19053e-03        00000 
-4.65271e-05  1.88239e-03        00000 
-2.68713e-04  7.01056e-04        00000 
 2.09557e-04  2.16966e-03        00000 
 5.39586e-04  1.28724e-03        00000 
 3.61594e-04  1.59946e-03        00000 
-4.09515e-04  1.67461e-03        00000 
-1.36081e-03  8.50363e-04        00000 
-1.07953e-04  1.88167e-03        00000 
 1.10117e-04  1.99454e-03        00000 
 3.50614e-04  7.18028e-04        00000 
 1.10238e-19  6.62627e-20        00000 
 2.15022e-05 -1.02347e-03        00000 
 8.17924e-04  1.63405e-04        00000 
-6.06296e-20 -1.58604e-20        00000 
 1.07358e-03 -4.00376e-04        00000 
 6.30713e-05  1.12762e-04        00000 
 1.29596e-19        00000        00000 
 1.41939e-04  2.21343e-04        00000 
 9.63102e-04 -5.46070e-04        00000 
 8.85053e-20  2.00533e-19        00000 
 1.57501e-04 -9.62221e-05        00000 
 8.33377e-04  1.38624e-03        00000 
 2.43945e-19        00000        00000 
 1.40669e-03 -2.43551e-04        00000 
-9.59675e-05  7.26531e-04        00000 
-3.78950e-20  4.13214e-20        00000 
 1.72088e-04 -6.69340e-04        00000 
-1.19539e-03 -2.85049e-04        00000 
-4.57398e-20        00000        00000 
 2.10939e-04  4.58265e-04        00000 
-6.98831e-05 -4.87443e-04        00000 
       00000  1.52466e-19        00000 
-5.40503e-04 -4.19351e-04        00000 
-5.65662e-04  6.06731e-04        00000 
-4.77736e-20 -1.17264e-20        00000 
-5.33963e-04 -1.33901e-05        00000 
-1.31082e-04 -9.41757e-04        00000 
-1.20222e-03 -5.71964e-05        00000 
 6.38848e-04 -2.41423e-03        00000 
 6.08268e-05  9.10655e-04        00000 
 2.69181e-04 -9.84968e-04        00000 
 6.28994e-04  9.26904e-04        00000 
-1.02571e-03 -5.11423e-04        00000 
 4.73564e-04 -1.26981e-03        00000 
 6.90093e-04  1.14357e-03        00000 
 1.63792e-03 -5.78202e-04        00000 
 7.31312e-04  8.11444e-04        00000 
 1.98504e-03 -1.31141e-03        00000 
 4.73793e-04 -1.33819e-03        00000 
-1.40180e-04 -4.95787e-05        00000 
 4.13225e-04 -1.77644e-04        00000 
 8.05559e-04  6.86420e-04        00000 
-2.31832e-04  8.99346e-04        00000 
 8.95931e-04 -5.41890e-04        00000 
 5.04670e-04 -2.90801e-04        00000 
 4.96905e-04 -9.80837e-04        00000 
 1.15953e-03 -1.21699e-04        00000 
 1.24676e-03  1.15877e-03        00000 
 5.40850e-05  2.29918e-04        00000 
 1.43630e-03  6.66298e-04        00000 
-6.33600e-04 -1.42904e-03        00000 
 6.23383e-04  7.87921e-04        00000 
 5.02428e-04  7.91581e-04        00000 
 6.41289e-04 -1.28982e-03        00000 
 8.69893e-04 -5.06015e-04        00000 
 1.81060e-03 -2.09148e-03        00000 
 1.49888e-03  9.65638e-04        00000 
 3.65800e-04 -1.04151e-03        00000 
-1.84872e-04 -2.69173e-04        00000 
-9.37709e-04 -3.64201e-04        00000 
-1.25519e-03  5.09159e-04        00000 
-1.23318e-04  2.38303e-04        00000 
 3.57704e-04 -2.76899e-04        00000 
 4.93210e-04  3.63741e-04        00000 
 6.57395e-04 -9.20127e-04        00000 
-2.70244e-04 -6.54686e-04        00000 
-9.99194e-05  3.99520e-04        00000 
-2.05739e-03 -1.16071e-03        00000 
-1.32164e-04 -2.48939e-04        00000 
-1.98405e-04 -3.45026e-04        00000 
-2.28238e-04 -8.87280e-04        00000 
 4.68205e-04  8.84500e-04        00000 
-2.89029e-04 -1.32475e-03        00000 
-6.50054e-04 -2.19302e-03        00000 
-1.11026e-03 -8.58647e-04        00000 
-2.13902e-04 -5.92426e-04        00000 
 4.44416e-04  2.31132e-04        00000 
 4.75786e-04  7.80843e-04        00000 
-8.16549e-04  2.31134e-03        00000 
 1.36570e-03  9.32395e-04        00000 
 1.43433e-03 -1.50585e-03        00000 
-4.20437e-04  3.27349e-04        00000 
-5.07234e-05  7.23338e-04        00000 
 9.88761e-04 -2.26767e-04        00000 
 1.19488e-04 -1.05446e-04        00000 
 4.34823e-04  6.69515e-04        00000 
 1.84787e-03  1.40044e-03        00000 
-1.08459e-03 -3.41594e-04        00000 
 7.88573e-04  8.60942e-04        00000 
 6.37723e-04  4.24659e-04        00000 
 4.55927e-04  9.57154e-04        00000 
 8.16978e-04  1.52303e-03        00000 
 3.67636e-04  5.00075e-05        00000 
-6.54193e-04  5.11034e-04        00000 
 5.88776e-04  2.11671e-03        00000 
-7.48013e-05  4.78731e-04        00000 
-1.13415e-03  7.88346e-04        00000 
-2.71404e-04 -2.71006e-04        00000 
-5.37137e-05  9.69008e-04        00000 
-1.22447e-03 -2.58999e-04        00000 
 1.73629e-04  9.02474e-04        00000 
-6.13310e-04 -9.93309e-05        00000 
-8.54798e-04 -2.61342e-04        00000 
-4.38954e-04  6.69301e-04        00000 
-2.06210e-04  4.45373e-04        00000 
-1.06372e-03  8.60752e-04        00000 
 1.90333e-03 -5.19003e-04        00000 
 2.14770e-03  1.50242e-03        00000 
-2.65209e-03 -1.86337e-03        00000 
 2.22774e-04 -1.79033e-03        00000 
-1.26165e-03  1.70383e-03        00000 
 8.14270e-04  6.05561e-04        00000 
 5.54441e-05  6.16497e-04        00000 
-1.26650e-03  1.10550e-03        00000 
 2.78870e-04  1.87739e-04        00000 
 6.11877e-05  8.87070e-04        00000 
 3.64318e-04 -2.02102e-04        00000 
-2.36169e-05  6.82294e-04        00000 
 1.02446e-03 -1.44438e-04        00000 
-1.91728e-03 -1.13206e-03        00000 
-1.22465e-03  9.50522e-05        00000 
-1.44064e-04  5.43482e-04        00000 
-1.04573e-03 -6.79890e-04        00000 
-3.27632e-04 -2.00385e-05        00000 
 1.10890e-04 -2.94436e-05        00000 
 2.18754e-03  9.12251e-04        00000 
 1.41109e-04 -1.17958e-04        00000 
 9.74484e-04  7.20134e-04        00000 
 1.51488e-03  1.62264e-03        00000 
-2.10880e-04  2.40082e-04        00000 
-9.75523e-05  1.94408e-04        00000 
 6.24954e-04 -6.27738e-04        00000 
 1.40032e-04  9.06204e-04        00000 
 7.75724e-04  2.63613e-04        00000 
 4.00654e-04  1.33563e-03        00000 
-6.36212e-04  7.37779e-04        00000 
 9.10016e-04  2.61621e-03        00000 
-1.95469e-04 -1.52473e-03        00000 
 6.08050e-04 -1.36685e-04        00000 
-2.97352e-04  4.37764e-04        00000 
-1.93929e-04  1.82803e-04        00000 
 6.08592e-04  2.03135e-04        00000 
-1.54344e-04  9.25282e-04        00000 
 3.33276e-04  1.24445e-04        00000 
-3.52159e-05  2.38173e-04        00000 
 2.92930e-04  1.14649e-04        00000 
-9.88167e-06 -1.43907e-03        00000 
-7.34262e-04 -4.13999e-04        00000 
 3.17790e-04  2.11581e-04        00000 
 4.08191e-04 -2.11097e-04        00000 
 4.03909e-04  4.90631e-04        00000 
 4.40547e-04  2.92846e-04        00000 
 6.79432e-04  5.54009e-04        00000 
-1.47248e-04  4.01229e-04        00000 
-6.55810e-04  2.77638e-04        00000 
-9.69432e-04  6.58908e-05        00000 
-9.10163e-05  5.29376e-04        00000 
-8.46057e-04  8.73489e-05        00000 
 3.18404e-04  1.81567e-04        00000 
-4.88811e-04  7.40628e-04        00000 
-2.89131e-04  1.50562e-03        00000 
-2.12288e-04 -3.18287e-03        00000 
-1.11833e-03  1.10083e-03        00000 
 8.33357e-04  2.48664e-03        00000 
-2.86269e-04  2.05822e-04        00000 
-1.22195e-03  1.31005e-03        00000 
-2.09568e-04 -5.17230e-04        00000 
 8.44137e-05  1.11949e-03        00000 
-1.32025e-03  4.74703e-04        00000 
 9.36715e-05 -6.48350e-04        00000 
-2.63245e-04  1.31298e-03        00000 
-1.37711e-03 -1.61227e-03        00000 
 1.10246e-03  6.50611e-04        00000 
 3.25044e-04  1.02755e-03        00000 
-9.50317e-04  1.47905e-04        00000 
 1.44406e-03  9.14791e-04        00000 
 4.69442e-04 -8.33681e-04        00000 
-8.38221e-04  2.85369e-04        00000 
 6.13014e-05  2.49823e-03        00000 
 1.04314e-03  3.17851e-04        00000 
-1.44646e-03  1.21090e-03        00000 
 5.15295e-04  2.35050e-03        00000 
-1.62213e-03  7.72757e-05        00000 
-2.60718e-03  1.19502e-03        00000 
 1.38047e-04  3.93019e-04        00000 
 5.51518e-04  1.08186e-03        00000 
-1.13069e-03 -4.61144e-04        00000 
 1.16795e-03  1.28934e-03        00000 
-1.11014e-04 -2.94448e-03        00000 
 1.11072e-03  1.27117e-03        00000 
-2.36276e-04  3.52242e-03        00000 
-4.18640e-04 -1.15170e-03        00000 
 1.56110e-03  3.04014e-04        00000 
-3.63592e-04  1.65807e-03        00000 
-1.13044e-04  1.51656e-04        00000 
 1.19296e-03  1.00330e-03        00000 
-1.45402e-03 -1.06163e-04        00000 
 2.26574e-04  7.52332e-04        00000 
 6.60166e-04  3.98637e-04        00000 
 4.00434e-04  1.96456e-04        00000 
-6.12339e-04  1.29271e-03        00000 
-4.46066e-04 -2.94240e-04        00000 
-5.39325e-04 -6.48166e-04        00000 
 1.54425e-04  1.26996e-03        00000 
-7.07532e-04 -4.97230e-04        00000 
-1.66817e-04 -4.61964e-04        00000 
 8.22221e-04 -2.71143e-04        00000 
 9.43929e-04  1.89477e-03        00000 
 1.25367e-03  7.13853e-04        00000 
 2.03171e-03  1.68436e-05        00000 
-7.63672e-04 -4.36778e-04        00000 
 1.02327e-04 -1.22894e-04        00000 
-3.17515e-04  1.04168e-03        00000 
-1.32126e-03  5.17890e-04        00000 
-5.54591e-04 -1.35051e-04        00000 
 6.55485e-04  1.35978e-03        00000 
-7.26927e-04 -1.12258e-04        00000 
 2.27142e-04  1.44580e-03        00000 
 2.03988e-03 -7.12673e-04        00000 
-1.56305e-03 -2.63083e-04        00000 
 1.46384e-03  6.72455e-05        00000 
 1.56539e-03 -4.43562e-04        00000 
-1.12668e-03  2.92522e-04        00000 
 6.56017e-04  7.64842e-04        00000 
 5.54356e-04 -1.34125e-04        00000 
-3.11415e-04  2.37068e-04        00000 
-4.95304e-04 -7.25249e-04        00000 
 2.10558e-05 -1.51270e-04        00000 
-2.15333e-04  8.58845e-04        00000 
-7.78983e-04  1.10733e-05        00000 
 9.61932e-05  2.25006e-04        00000 
 7.41052e-05  7.86057e-04        00000 
-2.99924e-04 -1.62986e-04        00000 
 5.97921e-04  2.49216e-04        00000 
-2.31303e-04  2.19531e-03        00000 
-4.31198e-04 -2.56707e-04        00000 
 1.60747e-03  1.43471e-03        00000 
-9.83556e-04  1.75881e-03        00000 
-6.62489e-05  1.16524e-04        00000 
 1.95484e-03  1.30058e-03        00000 
-7.16897e-04  1.58442e-04        00000 
 8.57959e-05 -9.60477e-05        00000 
-4.95577e-04  6.92082e-04        00000 
-1.41997e-03 -3.66123e-05        00000 
-5.07076e-04 -8.67977e-04        00000 
 6.55585e-04 -6.10051e-04        00000 
 9.36355e-04 -9.65213e-04        00000 
 4.88379e-04  5.21374e-04        00000 
 2.27438e-04 -5.64755e-04        00000 
 1.01316e-04  5.11005e-04        00000 
 6.88296e-04  3.84572e-04        00000 
 3.48641e-04  9.03441e-04        00000 
 1.07252e-03  4.53738e-04        00000 
 6.72234e-04  1.31113e-03        00000 
 5.76352e-04  3.75641e-04        00000 
 9.64093e-04 -4.73935e-04        00000 
-2.08994e-04 -1.92065e-04        00000 
 3.87622e-04  2.68249e-04        00000 
 8.68666e-04  2.62386e-04        00000 
 1.38688e-03  6.98932e-04        00000 
 1.51400e-04 -2.38834e-04        00000 
 6.44473e-04  1.21164e-03        00000 
 1.30579e-03  8.38315e-04        00000 
 1.94954e-04  1.64515e-03        00000 
 7.40193e-04 -4.94784e-04        00000 
 4.21725e-04  2.29795e-03        00000 
 1.02523e-03  3.42405e-04        00000 
 8.12419e-04  1.72024e-03        00000 
 1.18572e-03 -6.32764e-05        00000 
 7.68691e-04  1.75090e-03        00000 
 7.26804e-04  3.82393e-04        00000 
 3.78287e-04  1.12866e-03        00000 
-3.06735e-04  6.58214e-05        00000 
 1.09835e-03  1.38949e-03        00000 
-8.36932e-05  4.79312e-04        00000 
-7.27865e-06 -5.27429e-04        00000 
-7.34786e-05 -9.20573e-04        00000 
 9.40776e-05  1.08940e-03        00000 
 1.48495e-03 -1.43134e-03        00000 
 3.07243e-04  7.39906e-04        00000 
 4.33524e-04 -1.92473e-04        00000 
 7.83030e-04 -2.19574e-04        00000 
-5.26550e-04  9.73396e-04        00000 
-5.93202e-04  1.71177e-03        00000 
 4.62515e-04  7.10838e-04        00000 
-5.82032e-04 -9.28880e-04        00000 
 9.56650e-04 -9.39148e-04        00000 
 1.05927e-03 -1.51923e-04        00000 
 1.66328e-03  1.13826e-03        00000 
 4.02235e-04 -4.76684e-04        00000 
 1.13114e-03  4.10820e-04        00000 
 1.32515e-03 -5.77447e-04        00000 
-6.71756e-05 -3.96072e-04        00000 
 5.95687e-04  2.04134e-04        00000 
 7.42642e-04 -9.57157e-04        00000 
 1.99674e-03  3.01586e-04        00000 
 3.07053e-04  7.81284e-04        00000 
 2.70389e-04  5.86458e-04        00000 
 5.91878e-04 -1.46645e-03        00000 
 1.30589e-03  5.30557e-04        00000 
-8.94178e-04  1.29523e-03        00000 
 9.40084e-04  8.18367e-04        00000 
-3.44515e-04  1.35384e-04        00000 
 7.34998e-04 -1.63323e-03        00000 
-1.19874e-03 -1.42805e-03        00000 
 8.72184e-04 -9.07439e-04        00000 
 5.43416e-05 -2.10067e-04        00000 
 6.44338e-04 -9.10021e-05        00000 
-1.19126e-03 -1.94721e-04        00000 
-1.60232e-04 -1.77152e-03        00000 
-8.05786e-04 -2.11583e-04        00000 
-1.51653e-03  1.44387e-04        00000 
-1.97455e-04 -1.14722e-03        00000 
 9.92262e-04 -2.33514e-03        00000 
 6.15939e-04  1.09568e-03        00000 
-3.79523e-04  6.42611e-04        00000 