<?xml version="1.0" encoding="utf-8"?>
<VTKFile byte_order="LittleEndian" type="UnstructuredGrid" version="0.1">
   <UnstructuredGrid>
      <Piece NumberOfCells="1296" NumberOfPoints="685">
         <Points>
            <DataArray Name="Points" NumberOfComponents="3" format="ascii" type="Float32">
0.0000 0.0000 0.0000
0.0000 0.1111 0.0000
0.0000 0.2222 0.0000
0.0000 0.3333 0.0000
0.0000 0.4444 0.0000
0.0000 0.5556 0.0000
0.0000 0.6667 0.0000
0.0000 0.7778 0.0000
0.0000 0.8889 0.0000
0.0000 1.0000 0.0000
0.2222 0.0000 0.0000
0.2222 0.1111 0.0000
0.2222 0.2222 0.0000
0.2222 0.3333 0.0000
0.2222 0.4444 0.0000
0.2222 0.5556 0.0000
0.2222 0.6667 0.0000
0.2222 0.7778 0.0000
0.2222 0.8889 0.0000
0.2222 1.0000 0.0000
0.4444 0.0000 0.0000
0.4444 0.1111 0.0000
0.4444 0.2222 0.0000
0.4444 0.3333 0.0000
0.4444 0.4444 0.0000
0.4444 0.5556 0.0000
0.4444 0.6667 0.0000
0.4444 0.7778 0.0000
0.4444 0.8889 0.0000
0.4444 1.0000 0.0000
0.6667 0.0000 0.0000
0.6667 0.1111 0.0000
0.6667 0.2222 0.0000
0.6667 0.3333 0.0000
0.6667 0.4444 0.0000
0.6667 0.5556 0.0000
0.6667 0.6667 0.0000
0.6667 0.7778 0.0000
0.6667 0.8889 0.0000
0.6667 1.0000 0.0000
0.8889 0.0000 0.0000
0.8889 0.1111 0.0000
0.8889 0.2222 0.0000
0.8889 0.3333 0.0000
0.8889 0.4444 0.0000
0.8889 0.5556 0.0000
0.8889 0.6667 0.0000
0.8889 0.7778 0.0000
0.8889 0.8889 0.0000
0.8889 1.0000 0.0000
1.1111 0.0000 0.0000
1.1111 0.1111 0.0000
1.1111 0.2222 0.0000
1.1111 0.3333 0.0000
1.1111 0.4444 0.0000
1.1111 0.5556 0.0000
1.1111 0.6667 0.0000
1.1111 0.7778 0.0000
1.1111 0.8889 0.0000
1.1111 1.0000 0.0000
1.3333 0.0000 0.0000
1.3333 0.1111 0.0000
1.3333 0.2222 0.0000
1.3333 0.3333 0.0000
1.3333 0.4444 0.0000
1.3333 0.5556 0.0000
1.3333 0.6667 0.0000
1.3333 0.7778 0.0000
1.3333 0.8889 0.0000
1.3333 1.0000 0.0000
1.5556 0.0000 0.0000
1.5556 0.1111 0.0000
1.5556 0.2222 0.0000
1.5556 0.3333 0.0000
1.5556 0.4444 0.0000
1.5556 0.5556 0.0000
1.5556 0.6667 0.0000
1.5556 0.7778 0.0000
1.5556 0.8889 0.0000
1.5556 1.0000 0.0000
1.7778 0.0000 0.0000
1.7778 0.1111 0.0000
1.7778 0.2222 0.0000
1.7778 0.3333 0.0000
1.7778 0.4444 0.0000
1.7778 0.5556 0.0000
1.7778 0.6667 0.0000
1.7778 0.7778 0.0000
1.7778 0.8889 0.0000
1.7778 1.0000 0.0000
2.0000 0.0000 0.0000
2.0000 0.1111 0.0000
2.0000 0.2222 0.0000
2.0000 0.3333 0.0000
2.0000 0.4444 0.0000
2.0000 0.5556 0.0000
2.0000 0.6667 0.0000
2.0000 0.7778 0.0000
2.0000 0.8889 0.0000
2.0000 1.0000 0.0000
0.1111 0.0556 0.0000
0.1111 0.1667 0.0000
0.1111 0.2778 0.0000
0.1111 0.3889 0.0000
0.1111 0.5000 0.0000
0.1111 0.6111 0.0000
0.1111 0.7222 0.0000
0.1111 0.8333 0.0000
0.1111 0.9444 0.0000
0.3333 0.0556 0.0000
0.3333 0.1667 0.0000
0.3333 0.2778 0.0000
0.3333 0.3889 0.0000
0.3333 0.5000 0.0000
0.3333 0.6111 0.0000
0.3333 0.7222 0.0000
0.3333 0.8333 0.0000
0.3333 0.9444 0.0000
0.5556 0.0556 0.0000
0.5556 0.1667 0.0000
0.5556 0.2778 0.0000
0.5556 0.3889 0.0000
0.5556 0.5000 0.0000
0.5556 0.6111 0.0000
0.5556 0.7222 0.0000
0.5556 0.8333 0.0000
0.5556 0.9444 0.0000
0.7778 0.0556 0.0000
0.7778 0.1667 0.0000
0.7778 0.2778 0.0000
0.7778 0.3889 0.0000
0.7778 0.5000 0.0000
0.7778 0.6111 0.0000
0.7778 0.7222 0.0000
0.7778 0.8333 0.0000
0.7778 0.9444 0.0000
1.0000 0.0556 0.0000
1.0000 0.1667 0.0000
1.0000 0.2778 0.0000
1.0000 0.3889 0.0000
1.0000 0.5000 0.0000
1.0000 0.6111 0.0000
1.0000 0.7222 0.0000
1.0000 0.8333 0.0000
1.0000 0.9444 0.0000
1.2222 0.0556 0.0000
1.2222 0.1667 0.0000
1.2222 0.2778 0.0000
1.2222 0.3889 0.0000
1.2222 0.5000 0.0000
1.2222 0.6111 0.0000
1.2222 0.7222 0.0000
1.2222 0.8333 0.0000
1.2222 0.9444 0.0000
1.4444 0.0556 0.0000
1.4444 0.1667 0.0000
1.4444 0.2778 0.0000
1.4444 0.3889 0.0000
1.4444 0.5000 0.0000
1.4444 0.6111 0.0000
1.4444 0.7222 0.0000
1.4444 0.8333 0.0000
1.4444 0.9444 0.0000
1.6667 0.0556 0.0000
1.6667 0.1667 0.0000
1.6667 0.2778 0.0000
1.6667 0.3889 0.0000
1.6667 0.5000 0.0000
1.6667 0.6111 0.0000
1.6667 0.7222 0.0000
1.6667 0.8333 0.0000
1.6667 0.9444 0.0000
1.8889 0.0556 0.0000
1.8889 0.1667 0.0000
1.8889 0.2778 0.0000
1.8889 0.3889 0.0000
1.8889 0.5000 0.0000
1.8889 0.6111 0.0000
1.8889 0.7222 0.0000
1.8889 0.8333 0.0000
1.8889 0.9444 0.0000
0.0000 0.0556 0.0000
0.0556 0.0278 0.0000
0.0556 0.0833 0.0000
0.0000 0.1667 0.0000
0.0556 0.1389 0.0000
0.0556 0.1944 0.0000
0.0000 0.2778 0.0000
0.0556 0.2500 0.0000
0.0556 0.3056 0.0000
0.0000 0.3889 0.0000
0.0556 0.3611 0.0000
0.0556 0.4167 0.0000
0.0000 0.5000 0.0000
0.0556 0.4722 0.0000
0.0556 0.5278 0.0000
0.0000 0.6111 0.0000
0.0556 0.5833 0.0000
0.0556 0.6389 0.0000
0.0000 0.7222 0.0000
0.0556 0.6944 0.0000
0.0556 0.7500 0.0000
0.0000 0.8333 0.0000
0.0556 0.8056 0.0000
0.0556 0.8611 0.0000
0.0000 0.9444 0.0000
0.0556 0.9167 0.0000
0.0556 0.9722 0.0000
0.2222 0.0556 0.0000
0.2778 0.0278 0.0000
0.2778 0.0833 0.0000
0.2222 0.1667 0.0000
0.2778 0.1389 0.0000
0.2778 0.1944 0.0000
0.2222 0.2778 0.0000
0.2778 0.2500 0.0000
0.2778 0.3056 0.0000
0.2222 0.3889 0.0000
0.2778 0.3611 0.0000
0.2778 0.4167 0.0000
0.2222 0.5000 0.0000
0.2778 0.4722 0.0000
0.2778 0.5278 0.0000
0.2222 0.6111 0.0000
0.2778 0.5833 0.0000
0.2778 0.6389 0.0000
0.2222 0.7222 0.0000
0.2778 0.6944 0.0000
0.2778 0.7500 0.0000
0.2222 0.8333 0.0000
0.2778 0.8056 0.0000
0.2778 0.8611 0.0000
0.2222 0.9444 0.0000
0.2778 0.9167 0.0000
0.2778 0.9722 0.0000
0.4444 0.0556 0.0000
0.5000 0.0278 0.0000
0.5000 0.0833 0.0000
0.4444 0.1667 0.0000
0.5000 0.1389 0.0000
0.5000 0.1944 0.0000
0.4444 0.2778 0.0000
0.5000 0.2500 0.0000
0.5000 0.3056 0.0000
0.4444 0.3889 0.0000
0.5000 0.3611 0.0000
0.5000 0.4167 0.0000
0.4444 0.5000 0.0000
0.5000 0.4722 0.0000
0.5000 0.5278 0.0000
0.4444 0.6111 0.0000
0.5000 0.5833 0.0000
0.5000 0.6389 0.0000
0.4444 0.7222 0.0000
0.5000 0.6944 0.0000
0.5000 0.7500 0.0000
0.4444 0.8333 0.0000
0.5000 0.8056 0.0000
0.5000 0.8611 0.0000
0.4444 0.9444 0.0000
0.5000 0.9167 0.0000
0.5000 0.9722 0.0000
0.6667 0.0556 0.0000
0.7222 0.0278 0.0000
0.7222 0.0833 0.0000
0.6667 0.1667 0.0000
0.7222 0.1389 0.0000
0.7222 0.1944 0.0000
0.6667 0.2778 0.0000
0.7222 0.2500 0.0000
0.7222 0.3056 0.0000
0.6667 0.3889 0.0000
0.7222 0.3611 0.0000
0.7222 0.4167 0.0000
0.6667 0.5000 0.0000
0.7222 0.4722 0.0000
0.7222 0.5278 0.0000
0.6667 0.6111 0.0000
0.7222 0.5833 0.0000
0.7222 0.6389 0.0000
0.6667 0.7222 0.0000
0.7222 0.6944 0.0000
0.7222 0.7500 0.0000
0.6667 0.8333 0.0000
0.7222 0.8056 0.0000
0.7222 0.8611 0.0000
0.6667 0.9444 0.0000
0.7222 0.9167 0.0000
0.7222 0.9722 0.0000
0.8889 0.0556 0.0000
0.9444 0.0278 0.0000
0.9444 0.0833 0.0000
0.8889 0.1667 0.0000
0.9444 0.1389 0.0000
0.9444 0.1944 0.0000
0.8889 0.2778 0.0000
0.9444 0.2500 0.0000
0.9444 0.3056 0.0000
0.8889 0.3889 0.0000
0.9444 0.3611 0.0000
0.9444 0.4167 0.0000
0.8889 0.5000 0.0000
0.9444 0.4722 0.0000
0.9444 0.5278 0.0000
0.8889 0.6111 0.0000
0.9444 0.5833 0.0000
0.9444 0.6389 0.0000
0.8889 0.7222 0.0000
0.9444 0.6944 0.0000
0.9444 0.7500 0.0000
0.8889 0.8333 0.0000
0.9444 0.8056 0.0000
0.9444 0.8611 0.0000
0.8889 0.9444 0.0000
0.9444 0.9167 0.0000
0.9444 0.9722 0.0000
1.1111 0.0556 0.0000
1.1667 0.0278 0.0000
1.1667 0.0833 0.0000
1.1111 0.1667 0.0000
1.1667 0.1389 0.0000
1.1667 0.1944 0.0000
1.1111 0.2778 0.0000
1.1667 0.2500 0.0000
1.1667 0.3056 0.0000
1.1111 0.3889 0.0000
1.1667 0.3611 0.0000
1.1667 0.4167 0.0000
1.1111 0.5000 0.0000
1.1667 0.4722 0.0000
1.1667 0.5278 0.0000
1.1111 0.6111 0.0000
1.1667 0.5833 0.0000
1.1667 0.6389 0.0000
1.1111 0.7222 0.0000
1.1667 0.6944 0.0000
1.1667 0.7500 0.0000
1.1111 0.8333 0.0000
1.1667 0.8056 0.0000
1.1667 0.8611 0.0000
1.1111 0.9444 0.0000
1.1667 0.9167 0.0000
1.1667 0.9722 0.0000
1.3333 0.0556 0.0000
1.3889 0.0278 0.0000
1.3889 0.0833 0.0000
1.3333 0.1667 0.0000
1.3889 0.1389 0.0000
1.3889 0.1944 0.0000
1.3333 0.2778 0.0000
1.3889 0.2500 0.0000
1.3889 0.3056 0.0000
1.3333 0.3889 0.0000
1.3889 0.3611 0.0000
1.3889 0.4167 0.0000
1.3333 0.5000 0.0000
1.3889 0.4722 0.0000
1.3889 0.5278 0.0000
1.3333 0.6111 0.0000
1.3889 0.5833 0.0000
1.3889 0.6389 0.0000
1.3333 0.7222 0.0000
1.3889 0.6944 0.0000
1.3889 0.7500 0.0000
1.3333 0.8333 0.0000
1.3889 0.8056 0.0000
1.3889 0.8611 0.0000
1.3333 0.9444 0.0000
1.3889 0.9167 0.0000
1.3889 0.9722 0.0000
1.5556 0.0556 0.0000
1.6111 0.0278 0.0000
1.6111 0.0833 0.0000
1.5556 0.1667 0.0000
1.6111 0.1389 0.0000
1.6111 0.1944 0.0000
1.5556 0.2778 0.0000
1.6111 0.2500 0.0000
1.6111 0.3056 0.0000
1.5556 0.3889 0.0000
1.6111 0.3611 0.0000
1.6111 0.4167 0.0000
1.5556 0.5000 0.0000
1.6111 0.4722 0.0000
1.6111 0.5278 0.0000
1.5556 0.6111 0.0000
1.6111 0.5833 0.0000
1.6111 0.6389 0.0000
1.5556 0.7222 0.0000
1.6111 0.6944 0.0000
1.6111 0.7500 0.0000
1.5556 0.8333 0.0000
1.6111 0.8056 0.0000
1.6111 0.8611 0.0000
1.5556 0.9444 0.0000
1.6111 0.9167 0.0000
1.6111 0.9722 0.0000
1.7778 0.0556 0.0000
1.8333 0.0278 0.0000
1.8333 0.0833 0.0000
1.7778 0.1667 0.0000
1.8333 0.1389 0.0000
1.8333 0.1944 0.0000
1.7778 0.2778 0.0000
1.8333 0.2500 0.0000
1.8333 0.3056 0.0000
1.7778 0.3889 0.0000
1.8333 0.3611 0.0000
1.8333 0.4167 0.0000
1.7778 0.5000 0.0000
1.8333 0.4722 0.0000
1.8333 0.5278 0.0000
1.7778 0.6111 0.0000
1.8333 0.5833 0.0000
1.8333 0.6389 0.0000
1.7778 0.7222 0.0000
1.8333 0.6944 0.0000
1.8333 0.7500 0.0000
1.7778 0.8333 0.0000
1.8333 0.8056 0.0000
1.8333 0.8611 0.0000
1.7778 0.9444 0.0000
1.8333 0.9167 0.0000
1.8333 0.9722 0.0000
0.1111 0.1111 0.0000
0.1667 0.0833 0.0000
0.1111 0.2222 0.0000
0.1667 0.1944 0.0000
0.1111 0.3333 0.0000
0.1667 0.3056 0.0000
0.1111 0.4444 0.0000
0.1667 0.4167 0.0000
0.1111 0.5556 0.0000
0.1667 0.5278 0.0000
0.1111 0.6667 0.0000
0.1667 0.6389 0.0000
0.1111 0.7778 0.0000
0.1667 0.7500 0.0000
0.1111 0.8889 0.0000
0.1667 0.8611 0.0000
0.1111 1.0000 0.0000
0.1667 0.9722 0.0000
0.3333 0.1111 0.0000
0.3889 0.0833 0.0000
0.3333 0.2222 0.0000
0.3889 0.1944 0.0000
0.3333 0.3333 0.0000
0.3889 0.3056 0.0000
0.3333 0.4444 0.0000
0.3889 0.4167 0.0000
0.3333 0.5556 0.0000
0.3889 0.5278 0.0000
0.3333 0.6667 0.0000
0.3889 0.6389 0.0000
0.3333 0.7778 0.0000
0.3889 0.7500 0.0000
0.3333 0.8889 0.0000
0.3889 0.8611 0.0000
0.3333 1.0000 0.0000
0.3889 0.9722 0.0000
0.5556 0.1111 0.0000
[...]
         <PointData>
            <DataArray Name="fValues" NumberOfComponents="3" format="ascii" type="Float64">
-2.42191e-24        00000        00000 
-2.45971e-25 -8.14778e-24        00000 
-1.02518e-23  6.28247e-24        00000 
 7.83879e-24 -1.17582e-23        00000 
 2.36820e-23  1.09742e-23        00000 
 1.07783e-23  5.87909e-24        00000 
-7.31600e-24 -9.77516e-24        00000 
-6.36326e-24  1.95792e-24        00000 
 5.90471e-24 -1.96824e-24        00000 
       00000        00000        00000 
-9.07350e-08  2.81673e-08        00000 
 5.10431e-08  1.39448e-07        00000 
 7.10257e-08 -2.88341e-08        00000 
-7.25768e-08 -2.83077e-08        00000 
 9.71431e-09 -1.09738e-07        00000 
 2.17162e-10  4.73956e-08        00000 
 3.03663e-09  9.51163e-09        00000 
 5.02232e-08  7.13705e-08        00000 
-1.86414e-08 -2.42651e-09        00000 
-2.59299e-08  9.60947e-08        00000 
-2.13955e-09  3.56541e-08        00000 
 1.62074e-07  3.25854e-08        00000 
 1.02758e-07 -7.97333e-08        00000 
-9.87351e-08 -1.60196e-07        00000 
 9.42646e-08 -6.48423e-08        00000 
 1.45825e-07  7.15624e-08        00000 
 1.52534e-07  8.24597e-08        00000 
 5.81372e-08 -1.25906e-07        00000 
 4.96817e-08 -2.90675e-08        00000 
 3.11821e-08 -3.51746e-08        00000 
 7.49513e-08  5.43381e-08        00000 
 2.31363e-08  1.27209e-07        00000 
 4.17352e-08  4.01418e-08        00000 
-1.41142e-07 -5.37094e-08        00000 
 2.81254e-08 -6.71653e-08        00000 
 1.91750e-07  2.63233e-08        00000 
 3.07169e-08  9.92801e-08        00000 
-5.28071e-08  1.83228e-08        00000 
-3.92209e-08 -2.26198e-08        00000 
-1.11954e-07  3.19537e-07        00000 
-1.17609e-07 -5.46661e-08        00000 
 1.90673e-08  2.29225e-07        00000 
-4.00635e-08 -1.10774e-07        00000 
 1.62121e-08  4.54105e-08        00000 
-1.42135e-08  1.08073e-07        00000 
-9.42286e-08 -1.67001e-08        00000 
-2.00523e-08  1.55013e-07        00000 
 6.35372e-08  2.57214e-08        00000 
-1.53461e-07 -8.37231e-08        00000 
-7.87858e-08  3.02572e-09        00000 
 7.15754e-08 -2.78001e-07        00000 
-5.72916e-08 -4.15800e-08        00000 
-5.89913e-08  1.33028e-07        00000 
-4.87960e-08  6.21697e-08        00000 
-8.74903e-08 -3.42297e-08        00000 
 6.50907e-08  7.90611e-08        00000 
 6.18209e-08  2.36052e-07        00000 
-3.65456e-08  2.85886e-08        00000 
-1.61858e-07 -1.27883e-07        00000 
-2.52948e-07  6.47427e-09        00000 
 2.84393e-08  6.53696e-08        00000 
-2.30548e-09  4.70649e-08        00000 
-1.95722e-08 -9.49930e-09        00000 
 7.83233e-08  1.64828e-07        00000 
 4.51527e-09 -3.51746e-08        00000 
 7.72350e-08 -9.45516e-09        00000 
 3.83306e-08 -1.65699e-11        00000 
 5.05935e-09 -2.15025e-08        00000 
-1.05867e-07  7.12795e-08        00000 
 6.83927e-08  1.44582e-07        00000 
-2.68595e-08 -7.06397e-08        00000 
 8.50491e-10  2.43767e-08        00000 
 1.81307e-07  1.48030e-08        00000 
 1.52840e-07  1.03118e-07        00000 
 3.96456e-08  9.25717e-08        00000 
-6.40053e-08 -5.25958e-08        00000 
 4.12060e-08 -3.48419e-08        00000 
-7.60244e-08  1.69240e-07        00000 
 4.41412e-08 -8.87172e-08        00000 
-5.99573e-08 -1.61819e-07        00000 
 1.02650e-07 -3.34592e-07        00000 
 4.75246e-08 -8.00328e-08        00000 
 5.24385e-08 -1.86548e-08        00000 
 7.23618e-08 -1.56189e-08        00000 
 1.10896e-07  1.17104e-08        00000 
 6.15202e-08  4.22162e-08        00000 
 2.01688e-08  1.83867e-07        00000 
 1.57257e-08  9.51251e-08        00000 
-2.21929e-07  1.30346e-07        00000 
-2.82542e-08  4.66765e-07        00000 
 1.18354e-07 -2.46307e-08        00000 
 1.47928e-07  1.77001e-08        00000 
 3.27540e-08 -1.93252e-08        00000 
 7.56083e-08 -1.74390e-08        00000 
 2.26805e-07 -1.11104e-07        00000 
 7.70943e-08 -2.32117e-08        00000 
 1.65917e-08  1.51406e-07        00000 
-1.70375e-08  1.57211e-07        00000 
-1.33041e-08  6.07616e-08        00000 
-2.56521e-08 -7.51629e-09        00000 
-3.91223e-08  2.36258e-08        00000 
 9.29866e-08  7.77178e-09        00000 
 1.05551e-07 -4.97682e-08        00000 
-2.19197e-09  7.94850e-08        00000 
-7.46334e-08  5.18070e-08        00000 
-6.15231e-08 -1.11279e-08        00000 
-2.39758e-08  2.94584e-08        00000 
-1.51418e-08  1.79034e-08        00000 
-6.14180e-08 -4.41495e-08        00000 
-2.27308e-08 -4.51658e-08        00000 
 1.42906e-07  7.82744e-08        00000 
 1.93590e-07  4.78938e-09        00000 
 6.34434e-09 -4.56717e-08        00000 
-5.01577e-08 -5.10371e-09        00000 
 2.23657e-08  1.30677e-07        00000 
-3.96563e-09  8.74186e-08        00000 
 3.29729e-08 -3.98010e-09        00000 
 7.19873e-08 -3.00482e-08        00000 
 9.04338e-08 -1.19584e-09        00000 
 4.15696e-08 -3.62231e-08        00000 
 2.60801e-08 -5.58090e-08        00000 
-6.91816e-09 -4.44235e-10        00000 
-2.29674e-08 -6.84928e-08        00000 
 1.16847e-07  7.94580e-08        00000 
 2.83255e-08  8.91191e-09        00000 
 8.20448e-08  1.77024e-08        00000 
 1.20434e-07 -6.60064e-08        00000 
-1.34913e-08 -7.73859e-08        00000 
-1.94791e-08  2.04497e-08        00000 
-5.53376e-08  1.15378e-08        00000 
 1.46765e-07  3.11342e-08        00000 
 2.70549e-08 -7.15645e-08        00000 
 8.68459e-09 -2.24136e-08        00000 
 6.10608e-08 -9.28520e-08        00000 
-5.34220e-08 -6.65955e-08        00000 
-1.16922e-07 -4.26882e-08        00000 
-1.62604e-08  1.35433e-07        00000 
 8.43222e-08  1.13223e-07        00000 
-1.30789e-08  8.03547e-08        00000 
 3.86459e-08 -9.44174e-08        00000 
 2.59199e-08 -6.60878e-08        00000 
 1.06460e-08 -6.44955e-08        00000 
-1.67354e-07 -2.47008e-08        00000 
-9.78542e-08  3.73136e-08        00000 
 1.49249e-08  4.26624e-08        00000 
-1.17363e-07  2.32717e-08        00000 
-1.08824e-07 -2.60572e-08        00000 
-8.25316e-08 -4.16664e-08        00000 
 8.82017e-08 -5.98531e-08        00000 
 6.16313e-08  3.10190e-08        00000 
-3.53902e-08  1.06576e-08        00000 
-4.79886e-08  1.09605e-07        00000 
 1.92181e-08  2.51113e-09        00000 
-1.53889e-07 -5.05068e-08        00000 
 4.00510e-08  4.22834e-08        00000 
 2.07022e-08  7.57176e-09        00000 
-1.19187e-07  5.22947e-08        00000 
 5.60475e-08 -7.52750e-09        00000 
-1.96466e-07 -8.35692e-08        00000 
-1.62774e-07 -1.09607e-07        00000 
-5.26864e-08  8.64372e-09        00000 
-9.48111e-08  8.28609e-08        00000 
-1.02722e-07  9.94090e-08        00000 
 4.63869e-08  2.56058e-07        00000 
 5.53814e-08  3.56518e-08        00000 
 5.28238e-08 -5.15250e-08        00000 
 1.29322e-08 -7.28246e-08        00000 
 3.94180e-08 -1.71167e-08        00000 
 1.31956e-07  1.55999e-07        00000 
 2.02534e-07  7.32468e-08        00000 
 1.51198e-07 -3.51588e-08        00000 
 8.13986e-09  6.60191e-08        00000 
-2.73736e-08  4.00184e-08        00000 
 4.86360e-08  9.80209e-08        00000 
-8.87189e-09  2.09048e-08        00000 
 9.91667e-08  8.40714e-11        00000 
 9.92025e-08  8.36783e-08        00000 
-1.76664e-08  1.17711e-07        00000 
-1.12647e-09  1.31922e-07        00000 
 5.48702e-08  2.49554e-07        00000 
-4.32465e-08 -4.84496e-08        00000 
 1.56341e-24 -1.40699e-23        00000 
-8.02451e-09 -2.44734e-08        00000 
 7.49994e-08 -1.40775e-07        00000 
-2.01369e-24  1.01199e-23        00000 
-2.10693e-08 -6.87720e-08        00000 
 3.33580e-08 -4.95204e-08        00000 
       00000 -2.79173e-24        00000 
-1.06617e-07 -2.22693e-08        00000 
 4.20435e-08 -9.00490e-08        00000 
 3.49763e-24 -5.55134e-24        00000 
-7.52639e-08 -7.35685e-08        00000 
 1.17129e-07  1.51003e-10        00000 
 9.30578e-24  1.86116e-24        00000 
 4.60439e-08  2.07451e-08        00000 
 6.04306e-08  5.91724e-09        00000 
-9.01703e-24 -5.81543e-24        00000 
 1.61639e-08 -6.33776e-08        00000 
-2.59858e-08 -8.17948e-08        00000 
-3.72231e-24  1.48893e-23        00000 
-2.68078e-08  1.01461e-07        00000 
 2.80616e-08 -5.93374e-08        00000 
-5.58347e-24 -3.72231e-24        00000 
-6.90301e-08  5.56283e-08        00000 
-4.89036e-08 -1.94077e-08        00000 
 1.44777e-23 -4.50192e-24        00000 
-5.90068e-08  1.82112e-08        00000 
-3.61066e-08 -7.46600e-08        00000 
-8.98092e-08 -1.53920e-08        00000 
-4.18895e-08 -5.46566e-08        00000 
 4.42653e-08  7.97408e-08        00000 
-1.74083e-08 -6.91245e-08        00000 
 1.37386e-08  1.23412e-07        00000 
-1.05428e-07 -5.74831e-08        00000 
-1.01338e-07 -1.28673e-07        00000 
-4.24090e-08  5.98597e-08        00000 
 2.52958e-08 -1.03609e-07        00000 
-1.97149e-08  1.26317e-08        00000 
 1.01633e-07 -5.02588e-08        00000 
-8.35537e-08 -1.15782e-07        00000 
-1.31382e-07 -3.41484e-08        00000 
-2.92640e-08  5.54818e-08        00000 
-4.62309e-08  1.41235e-07        00000 
-6.02148e-08 -1.10558e-07        00000 
 1.51894e-08  1.72536e-08        00000 
-5.63389e-08  5.57013e-08        00000 
 8.57896e-09 -2.23925e-07        00000 
-6.46627e-08  6.39725e-08        00000 
-6.90975e-08  3.61517e-08        00000 
-5.76705e-08  5.91469e-08        00000 
 2.97042e-08  1.90411e-08        00000 
-5.87601e-08 -3.63598e-08        00000 
-6.21259e-08  1.12057e-07        00000 
-2.81560e-08  8.31789e-09        00000 
-9.03846e-08  7.27946e-08        00000 
 7.71173e-08 -1.04574e-07        00000 
 1.42278e-07 -1.53392e-07        00000 
 6.01447e-08 -2.61833e-08        00000 
 7.11570e-08 -9.35060e-08        00000 
 5.38443e-08 -2.72090e-08        00000 
-2.81014e-08 -7.80904e-08        00000 
-9.05735e-08 -6.00567e-08        00000 
 4.57161e-08  1.19900e-08        00000 
 8.26896e-08 -9.92140e-09        00000 
 9.51814e-08  2.30196e-08        00000 
 2.21049e-08 -2.82226e-08        00000 
 9.57768e-09 -8.14882e-08        00000 
 1.70702e-07  1.71615e-08        00000 
-1.91792e-07  2.36405e-08        00000 
 2.94001e-08 -2.62765e-08        00000 
 9.65832e-08  4.89647e-08        00000 
-5.90281e-08  1.11404e-08        00000 
-1.53657e-07  1.93399e-08        00000 
 8.33340e-09 -1.19517e-07        00000 
-1.15092e-07 -1.72609e-07        00000 
-1.41769e-07  6.24555e-08        00000 
 4.37421e-08 -9.55056e-08        00000 
-1.13759e-07  1.60698e-08        00000 
-2.95194e-08 -2.77245e-08        00000 
 1.46618e-08  1.94381e-07        00000 
 1.14856e-07 -5.31520e-08        00000 
 7.14929e-08 -1.46649e-07        00000 
-1.74382e-08  4.58113e-08        00000 
 1.17183e-07  2.01870e-08        00000 
 4.52011e-08  5.39370e-08        00000 
 3.52550e-08 -8.23783e-08        00000 
-2.69945e-08  6.27719e-08        00000 
-7.81966e-08 -7.07687e-08        00000 
-6.46024e-08 -3.37811e-08        00000 
 3.23802e-08  5.45482e-08        00000 
 4.84771e-08  5.72035e-08        00000 
-1.08156e-07  1.72578e-08        00000 
 2.55945e-08 -7.72099e-08        00000 
 2.34076e-08 -7.51417e-08        00000 
-1.31263e-07 -1.02140e-07        00000 
-3.01324e-08  7.52562e-08        00000 
 9.82065e-09 -1.40474e-08        00000 
-4.16468e-08 -4.37129e-08        00000 
 5.46265e-11 -7.66714e-08        00000 
-2.19124e-08 -4.79160e-08        00000 
-1.71188e-07 -1.67731e-07        00000 
-2.92409e-08 -8.90354e-09        00000 
-2.35671e-07 -8.45334e-08        00000 
-6.65808e-08 -3.59409e-08        00000 
-8.39917e-08  9.14690e-08        00000 
 1.73330e-08 -1.35106e-08        00000 
-1.64797e-07  5.16401e-08        00000 
 1.74748e-07  1.86153e-07        00000 
 3.73247e-08 -1.26156e-07        00000 
-5.77399e-08  5.12287e-08        00000 
 2.86000e-08  1.54754e-07        00000 
-7.50605e-08  2.72302e-08        00000 
 2.21212e-07  9.84078e-08        00000 
 1.05076e-07  1.31892e-07        00000 
-8.87029e-08 -4.10051e-08        00000 
 4.32915e-08  6.18588e-08        00000 
-3.45094e-09  1.37867e-07        00000 
-2.18126e-08  1.37070e-07        00000 
 1.35416e-07  1.28348e-07        00000 
 7.53403e-08 -8.69944e-08        00000 
-5.87059e-08 -5.58509e-08        00000 
-7.77105e-08  3.13745e-08        00000 
-6.29700e-08 -7.06791e-08        00000 
-1.95146e-08 -5.55122e-08        00000 
-9.26421e-08 -1.11185e-08        00000 
-4.23154e-09 -8.79907e-08        00000 
-1.49781e-08 -7.26218e-08        00000 
-1.99383e-08  5.64811e-08        00000 
-1.40571e-08 -1.50849e-08        00000 
 9.75582e-09  9.62518e-08        00000 
-2.56570e-07  6.81659e-08        00000 
 6.25867e-08 -8.05662e-08        00000 
-1.57635e-08 -5.07947e-08        00000 
-8.63939e-08  8.93905e-08        00000 
 1.45549e-07 -3.32851e-08        00000 
 3.09236e-08  5.00524e-08        00000 
-7.15948e-08  6.14488e-08        00000 
 4.40424e-08  2.72878e-07        00000 
 5.35239e-08 -9.44823e-08        00000 
 3.29382e-08 -9.77109e-08        00000 
-4.57262e-08  1.48924e-07        00000 
 4.98335e-09 -3.89841e-08        00000 
 4.00344e-08  1.12536e-07        00000 
-4.78008e-08  9.59047e-08        00000 
 1.37814e-09 -6.11528e-09        00000 
 2.37315e-08  1.02406e-07        00000 
 4.72458e-08 -2.97020e-08        00000 
-1.10070e-08  1.24693e-08        00000 
-2.31587e-08  1.63965e-07        00000 
-5.29161e-08 -4.79901e-10        00000 
-1.27970e-07 -3.70533e-08        00000 
 9.19302e-09  1.10664e-07        00000 
 5.87766e-08 -9.23306e-08        00000 
-1.13320e-08  5.62781e-08        00000 
 3.46951e-08  1.71090e-07        00000 
 8.46211e-09 -1.59829e-10        00000 
-6.73312e-08 -8.72436e-09        00000 
-1.45597e-07  1.30865e-07        00000 
-8.23568e-08  4.09095e-08        00000 
 7.74534e-08 -6.06369e-08        00000 
-2.27651e-07  3.61100e-08        00000 
-1.19771e-07  1.16051e-08        00000 
-6.20099e-08 -1.76078e-07        00000 
-8.40835e-08  1.09440e-08        00000 
-2.01217e-09  1.01875e-09        00000 
-1.19454e-07  1.27400e-07        00000 
-3.16340e-08  2.10245e-07        00000 
 3.11779e-08 -9.79747e-08        00000 
 2.78639e-08  7.66600e-08        00000 
-1.25728e-07  1.63290e-07        00000 
 2.55385e-08 -7.05002e-09        00000 
-3.18864e-08 -7.01263e-09        00000 
-4.15313e-08 -7.66924e-10        00000 
-3.85549e-08 -5.60964e-08        00000 
-6.85951e-08  2.39641e-08        00000 
-7.20443e-08  1.12155e-07        00000 
 1.02349e-07 -6.11579e-08        00000 
-1.38162e-07 -2.72717e-08        00000 
-4.60147e-08  2.54899e-08        00000 
-1.31611e-07  6.14746e-08        00000 
 1.07558e-08  2.80417e-08        00000 
-3.04155e-08 -3.61585e-09        00000 
-8.58451e-08  1.29920e-07        00000 
-1.53420e-07 -4.61696e-09        00000 
-2.19663e-07  9.04123e-09        00000 
-9.50601e-09  6.32362e-08        00000 
-7.87232e-08  1.33922e-07        00000 
-1.19943e-07 -5.63541e-08        00000 
 7.84643e-08  1.59744e-07        00000 
-4.09432e-09 -2.95097e-08        00000 
 2.96874e-08  3.86832e-08        00000 
-4.34320e-08  2.67813e-07        00000 
 7.42716e-08  8.14003e-08        00000 
 6.98406e-08  8.45608e-08        00000 
 5.79834e-08  1.37808e-07        00000 
-6.21291e-08  1.44668e-08        00000 
 1.98180e-07  1.20410e-07        00000 
 4.13326e-08  1.28921e-09        00000 
 9.85490e-08 -3.34035e-08        00000 
 9.13679e-08  7.09738e-08        00000 
 4.63394e-08  9.60528e-08        00000 
-2.84884e-07 -4.05286e-08        00000 
-3.05234e-08 -1.46531e-08        00000 
-8.01566e-08  9.30189e-08        00000 
-1.43718e-07  7.41067e-08        00000 
 2.48867e-08 -1.66609e-08        00000 
-8.89254e-08  8.93222e-08        00000 
-8.24288e-08 -4.41307e-08        00000 
 4.06331e-08 -1.09115e-08        00000 
 8.50295e-09  1.23840e-07        00000 
-4.89167e-08  2.20218e-08        00000 
-7.63179e-08 -1.95540e-08        00000 
-3.65529e-09  2.65639e-08        00000 
-1.33587e-07  8.40983e-08        00000 
 1.08860e-07  7.44852e-08        00000 
 4.55401e-09  1.15582e-08        00000 
 1.79020e-08  3.07733e-07        00000 
-2.80611e-08  2.46039e-08        00000 
 1.08670e-07  2.30959e-07        00000 
 5.27404e-08 -1.30878e-07        00000 
 7.60696e-09 -4.04462e-09        00000 
-2.32391e-08  8.73501e-09        00000 
 4.16734e-08 -5.85909e-08        00000 
 1.01627e-07  1.37445e-07        00000 
 4.41250e-08  1.97006e-07        00000 
-8.65720e-08 -4.30471e-09        00000 
-1.48490e-08  2.20981e-08        00000 
-7.61954e-08  1.31268e-07        00000 
-1.12283e-08  5.13836e-08        00000 
 3.68780e-08  1.16081e-07        00000 
 1.02057e-08  1.26818e-07        00000 
-4.86924e-08  6.80110e-08        00000 
-4.21521e-08 -8.57712e-08        00000 
 1.05891e-08  1.91364e-08        00000 
 1.32575e-08  3.24483e-08        00000 
-6.13852e-09 -1.44567e-09        00000 
-1.23187e-07 -4.42340e-08        00000 
 9.00326e-08  7.88651e-08        00000 
-1.63427e-08  9.72109e-08        00000 
-1.76923e-08  5.16244e-08        00000 
 1.25099e-07 -1.91549e-07        00000 
 6.99154e-08 -9.05974e-08        00000 
-9.56439e-08  3.11026e-07        00000 
 3.22046e-08 -4.98593e-07        00000 
-7.02833e-08 -1.12415e-08        00000 
-6.33241e-08 -1.49949e-07        00000 
 1.20031e-07 -1.48435e-07        00000 
 9.74987e-08  7.06590e-08        00000 
 1.07902e-08 -8.39502e-09        00000 
 1.42763e-08  3.56051e-09        00000 
-4.72138e-09 -8.33766e-08        00000 
-7.52692e-09 -7.72535e-08        00000 
-9.64110e-09 -5.15692e-09        00000 
-4.35840e-08  5.03441e-08        00000 
-2.92004e-08  1.08650e-07        00000 
-2.28474e-08  3.51472e-08        00000 
 8.34180e-08 -5.81515e-08        00000 
-9.32491e-08 -4.00334e-08        00000 
-5.38698e-08 -8.71117e-09        00000 
 1.11207e-07  5.58547e-08        00000 
-8.41638e-08  8.80736e-08        00000 
-1.53543e-08  5.74309e-08        00000 
 8.15547e-08 -4.89227e-08        00000 
 1.11618e-07 -7.78040e-08        00000 
 1.04911e-07  1.50753e-08        00000 
 1.19972e-07 -6.88395e-08        00000 
 4.32277e-09  3.02904e-08        00000 
 8.04534e-09 -2.60685e-08        00000 
-3.14690e-08  2.41168e-08        00000 
 5.85378e-08 -1.21744e-08        00000 
-4.91927e-08  8.93639e-08        00000 
-5.11544e-09  3.50496e-08        00000 
-8.26352e-08  2.53490e-08        00000 
-3.56615e-08  1.11408e-08        00000 
-2.32260e-08  3.54882e-08        00000 
-5.23179e-08 -9.67600e-09        00000 
-5.66913e-08 -1.39589e-07        00000 
 2.96939e-08 -5.78311e-09        00000 
 1.74413e-09 -9.39378e-08        00000 
 1.52068e-07  9.02526e-08        00000 
-4.43145e-09  5.28398e-08        00000 
 4.49856e-09 -1.64212e-08        00000 
 9.65574e-08 -4.05009e-08        00000 
-2.90871e-08  9.28331e-08        00000 
-3.24123e-08  6.70481e-08        00000 
 1.49288e-07  4.27030e-08        00000 
-5.01637e-08 -3.99572e-08        00000 
 5.42836e-08 -1.10889e-07        00000 
-3.89911e-08 -7.26395e-10        00000 
 8.77028e-08  4.93596e-08        00000 
-1.46734e-08  4.34929e-08        00000 
 5.71019e-08  8.61386e-08        00000 
 2.26607e-08  4.58507e-08        00000 
 1.27245e-09  6.38260e-08        00000 
 8.17668e-08  8.47141e-08        00000 
 2.68851e-08 -5.36377e-08        00000 
 4.88073e-08  7.57895e-08        00000 
 2.27511e-08 -1.43567e-08        00000 
-3.69212e-08  2.28660e-07        00000 
 2.00408e-08 -8.76013e-08        00000 
 2.66887e-08  8.85927e-08        00000 
-5.44091e-08  1.78715e-07        00000 
-7.90707e-08  7.47382e-08        00000 
-4.13904e-08  6.80579e-08        00000 
 5.35786e-08 -2.45573e-08        00000 
 2.30567e-08 -1.10183e-08        00000 
 7.52393e-08 -4.52130e-08        00000 
 3.00017e-08  1.02606e-07        00000 
 1.21285e-08  1.01102e-07        00000 
-2.03196e-07  1.19099e-07        00000 
-2.15848e-08 -7.00222e-08        00000 
 1.43534e-10  8.42227e-08        00000 
-1.08768e-07  1.01761e-07        00000 
-1.99208e-08 -1.13930e-08        00000 
-4.27157e-09  1.78868e-07        00000 
-7.51386e-08 -1.24090e-07        00000 
-6.42489e-08  1.40076e-07        00000 