<?xml version="1.0" encoding="utf-8"?>
<VTKFile byte_order="LittleEndian" type="UnstructuredGrid" version="0.1">
   <UnstructuredGrid>
      <Piece NumberOfCells="1296" NumberOfPoints="685">
         <Points>
            <DataArray Name="Points" NumberOfComponents="3" format="ascii" type="Float32">
0.0000 0.0000 0.0000
0.0000 0.1111 0.0000
0.0000 0.2222 0.0000
0.0000 0.3333 0.0000
0.0000 0.4444 0.0000
0.0000 0.5556 0.0000
0.0000 0.6667 0.0000
0.0000 0.7778 0.0000
0.0000 0.8889 0.0000
0.0000 1.0000 0.0000
0.2222 0.0000 0.0000
0.2222 0.1111 0.0000
0.2222 0.2222 0.0000
0.2222 0.3333 0.0000
0.2222 0.4444 0.0000
0.2222 0.5556 0.0000
0.2222 0.6667 0.0000
0.2222 0.7778 0.0000
0.2222 0.8889 0.0000
0.2222 1.0000 0.0000
0.4444 0.0000 0.0000
0.4444 0.1111 0.0000
0.4444 0.2222 0.0000
0.4444 0.3333 0.0000
0.4444 0.4444 0.0000
0.4444 0.5556 0.0000
0.4444 0.6667 0.0000
0.4444 0.7778 0.0000
0.4444 0.8889 0.0000
0.4444 1.0000 0.0000
0.6667 0.0000 0.0000
0.6667 0.1111 0.0000
0.6667 0.2222 0.0000
0.6667 0.3333 0.0000
0.6667 0.4444 0.0000
0.6667 0.5556 0.0000
0.6667 0.6667 0.0000
0.6667 0.7778 0.0000
0.6667 0.8889 0.0000
0.6667 1.0000 0.0000
0.8889 0.0000 0.0000
0.8889 0.1111 0.0000
0.8889 0.2222 0.0000
0.8889 0.3333 0.0000
0.8889 0.4444 0.0000
0.8889 0.5556 0.0000
0.8889 0.6667 0.0000
0.8889 0.7778 0.0000
0.8889 0.8889 0.0000
0.8889 1.0000 0.0000
1.1111 0.0000 0.0000
1.1111 0.1111 0.0000
1.1111 0.2222 0.0000
1.1111 0.3333 0.0000
1.1111 0.4444 0.0000
1.1111 0.5556 0.0000
1.1111 0.6667 0.0000
1.1111 0.7778 0.0000
1.1111 0.8889 0.0000
1.1111 1.0000 0.0000
1.3333 0.0000 0.0000
1.3333 0.1111 0.0000
1.3333 0.2222 0.0000
1.3333 0.3333 0.0000
1.3333 0.4444 0.0000
1.3333 0.5556 0.0000
1.3333 0.6667 0.0000
1.3333 0.7778 0.0000
1.3333 0.8889 0.0000
1.3333 1.0000 0.0000
1.5556 0.0000 0.0000
1.5556 0.1111 0.0000
1.5556 0.2222 0.0000
1.5556 0.3333 0.0000
1.5556 0.4444 0.0000
1.5556 0.5556 0.0000
1.5556 0.6667 0.0000
1.5556 0.7778 0.0000
1.5556 0.8889 0.0000
1.5556 1.0000 0.0000
1.7778 0.0000 0.0000
1.7778 0.1111 0.0000
1.7778 0.2222 0.0000
1.7778 0.3333 0.0000
1.7778 0.4444 0.0000
1.7778 0.5556 0.0000
1.7778 0.6667 0.0000
1.7778 0.7778 0.0000
1.7778 0.8889 0.0000
1.7778 1.0000 0.0000
2.0000 0.0000 0.0000
2.0000 0.1111 0.0000
2.0000 0.2222 0.0000
2.0000 0.3333 0.0000
2.0000 0.4444 0.0000
2.0000 0.5556 0.0000
2.0000 0.6667 0.0000
2.0000 0.7778 0.0000
2.0000 0.8889 0.0000
2.0000 1.0000 0.0000
0.1111 0.0556 0.0000
0.1111 0.1667 0.0000
0.1111 0.2778 0.0000
0.1111 0.3889 0.0000
0.1111 0.5000 0.0000
0.1111 0.6111 0.0000
0.1111 0.7222 0.0000
0.1111 0.8333 0.0000
0.1111 0.9444 0.0000
0.3333 0.0556 0.0000
0.3333 0.1667 0.0000
0.3333 0.2778 0.0000
0.3333 0.3889 0.0000
0.3333 0.5000 0.0000
0.3333 0.6111 0.0000
0.3333 0.7222 0.0000
0.3333 0.8333 0.0000
0.3333 0.9444 0.0000
0.5556 0.0556 0.0000
0.5556 0.1667 0.0000
0.5556 0.2778 0.0000
0.5556 0.3889 0.0000
0.5556 0.5000 0.0000
0.5556 0.6111 0.0000
0.5556 0.7222 0.0000
0.5556 0.8333 0.0000
0.5556 0.9444 0.0000
0.7778 0.0556 0.0000
0.7778 0.1667 0.0000
0.7778 0.2778 0.0000
0.7778 0.3889 0.0000
0.7778 0.5000 0.0000
0.7778 0.6111 0.0000
0.7778 0.7222 0.0000
0.7778 0.8333 0.0000
0.7778 0.9444 0.0000
1.0000 0.0556 0.0000
1.0000 0.1667 0.0000
1.0000 0.2778 0.0000
1.0000 0.3889 0.0000
1.0000 0.5000 0.0000
1.0000 0.6111 0.0000
1.0000 0.7222 0.0000
1.0000 0.8333 0.0000
1.0000 0.9444 0.0000
1.2222 0.0556 0.0000
1.2222 0.1667 0.0000
1.2222 0.2778 0.0000
1.2222 0.3889 0.0000
1.2222 0.5000 0.0000
1.2222 0.6111 0.0000
1.2222 0.7222 0.0000
1.2222 0.8333 0.0000
1.2222 0.9444 0.0000
1.4444 0.0556 0.0000
1.4444 0.1667 0.0000
1.4444 0.2778 0.0000
1.4444 0.3889 0.0000
1.4444 0.5000 0.0000
1.4444 0.6111 0.0000
1.4444 0.7222 0.0000
1.4444 0.8333 0.0000
1.4444 0.9444 0.0000
1.6667 0.0556 0.0000
1.6667 0.1667 0.0000
1.6667 0.2778 0.0000
1.6667 0.3889 0.0000
1.6667 0.5000 0.0000
1.6667 0.6111 0.0000
1.6667 0.7222 0.0000
1.6667 0.8333 0.0000
1.6667 0.9444 0.0000
1.8889 0.0556 0.0000
1.8889 0.1667 0.0000
1.8889 0.2778 0.0000
1.8889 0.3889 0.0000
1.8889 0.5000 0.0000
1.8889 0.6111 0.0000
1.8889 0.7222 0.0000
1.8889 0.8333 0.0000
1.8889 0.9444 0.0000
0.0000 0.0556 0.0000
0.0556 0.0278 0.0000
0.0556 0.0833 0.0000
0.0000 0.1667 0.0000
0.0556 0.1389 0.0000
0.0556 0.1944 0.0000
0.0000 0.2778 0.0000
0.0556 0.2500 0.0000
0.0556 0.3056 0.0000
0.0000 0.3889 0.0000
0.0556 0.3611 0.0000
0.0556 0.4167 0.0000
0.0000 0.5000 0.0000
0.0556 0.4722 0.0000
0.0556 0.5278 0.0000
0.0000 0.6111 0.0000
0.0556 0.5833 0.0000
0.0556 0.6389 0.0000
0.0000 0.7222 0.0000
0.0556 0.6944 0.0000
0.0556 0.7500 0.0000
0.0000 0.8333 0.0000
0.0556 0.8056 0.0000
0.0556 0.8611 0.0000
0.0000 0.9444 0.0000
0.0556 0.9167 0.0000
0.0556 0.9722 0.0000
0.2222 0.0556 0.0000
0.2778 0.0278 0.0000
0.2778 0.0833 0.0000
0.2222 0.1667 0.0000
0.2778 0.1389 0.0000
0.2778 0.1944 0.0000
0.2222 0.2778 0.0000
0.2778 0.2500 0.0000
0.2778 0.3056 0.0000
0.2222 0.3889 0.0000
0.2778 0.3611 0.0000
0.2778 0.4167 0.0000
0.2222 0.5000 0.0000
0.2778 0.4722 0.0000
0.2778 0.5278 0.0000
0.2222 0.6111 0.0000
0.2778 0.5833 0.0000
0.2778 0.6389 0.0000
0.2222 0.7222 0.0000
0.2778 0.6944 0.0000
0.2778 0.7500 0.0000
0.2222 0.8333 0.0000
0.2778 0.8056 0.0000
0.2778 0.8611 0.0000
0.2222 0.9444 0.0000
0.2778 0.9167 0.0000
0.2778 0.9722 0.0000
0.4444 0.0556 0.0000
0.5000 0.0278 0.0000
0.5000 0.0833 0.0000
0.4444 0.1667 0.0000
0.5000 0.1389 0.0000
0.5000 0.1944 0.0000
0.4444 0.2778 0.0000
0.5000 0.2500 0.0000
0.5000 0.3056 0.0000
0.4444 0.3889 0.0000
0.5000 0.3611 0.0000
0.5000 0.4167 0.0000
0.4444 0.5000 0.0000
0.5000 0.4722 0.0000
0.5000 0.5278 0.0000
0.4444 0.6111 0.0000
0.5000 0.5833 0.0000
0.5000 0.6389 0.0000
0.4444 0.7222 0.0000
0.5000 0.6944 0.0000
0.5000 0.7500 0.0000
0.4444 0.8333 0.0000
0.5000 0.8056 0.0000
0.5000 0.8611 0.0000
0.4444 0.9444 0.0000
0.5000 0.9167 0.0000
0.5000 0.9722 0.0000
0.6667 0.0556 0.0000
0.7222 0.0278 0.0000
0.7222 0.0833 0.0000
0.6667 0.1667 0.0000
0.7222 0.1389 0.0000
0.7222 0.1944 0.0000
0.6667 0.2778 0.0000
0.7222 0.2500 0.0000
0.7222 0.3056 0.0000
0.6667 0.3889 0.0000
0.7222 0.3611 0.0000
0.7222 0.4167 0.0000
0.6667 0.5000 0.0000
0.7222 0.4722 0.0000
0.7222 0.5278 0.0000
0.6667 0.6111 0.0000
0.7222 0.5833 0.0000
0.7222 0.6389 0.0000
0.6667 0.7222 0.0000
0.7222 0.6944 0.0000
0.7222 0.7500 0.0000
0.6667 0.8333 0.0000
0.7222 0.8056 0.0000
0.7222 0.8611 0.0000
0.6667 0.9444 0.0000
0.7222 0.9167 0.0000
0.7222 0.9722 0.0000
0.8889 0.0556 0.0000
0.9444 0.0278 0.0000
0.9444 0.0833 0.0000
0.8889 0.1667 0.0000
0.9444 0.1389 0.0000
0.9444 0.1944 0.0000
0.8889 0.2778 0.0000
0.9444 0.2500 0.0000
0.9444 0.3056 0.0000
0.8889 0.3889 0.0000
0.9444 0.3611 0.0000
0.9444 0.4167 0.0000
0.8889 0.5000 0.0000
0.9444 0.4722 0.0000
0.9444 0.5278 0.0000
0.8889 0.6111 0.0000
0.9444 0.5833 0.0000
0.9444 0.6389 0.0000
0.8889 0.7222 0.0000
0.9444 0.6944 0.0000
0.9444 0.7500 0.0000
0.8889 0.8333 0.0000
0.9444 0.8056 0.0000
0.9444 0.8611 0.0000
0.8889 0.9444 0.0000
0.9444 0.9167 0.0000
0.9444 0.9722 0.0000
1.1111 0.0556 0.0000
1.1667 0.0278 0.0000
1.1667 0.0833 0.0000
1.1111 0.1667 0.0000
1.1667 0.1389 0.0000
1.1667 0.1944 0.0000
1.1111 0.2778 0.0000
1.1667 0.2500 0.0000
1.1667 0.3056 0.0000
1.1111 0.3889 0.0000
1.1667 0.3611 0.0000
1.1667 0.4167 0.0000
1.1111 0.5000 0.0000
1.1667 0.4722 0.0000
1.1667 0.5278 0.0000
1.1111 0.6111 0.0000
1.1667 0.5833 0.0000
1.1667 0.6389 0.0000
1.1111 0.7222 0.0000
1.1667 0.6944 0.0000
1.1667 0.7500 0.0000
1.1111 0.8333 0.0000
1.1667 0.8056 0.0000
1.1667 0.8611 0.0000
1.1111 0.9444 0.0000
1.1667 0.9167 0.0000
1.1667 0.9722 0.0000
1.3333 0.0556 0.0000
1.3889 0.0278 0.0000
1.3889 0.0833 0.0000
1.3333 0.1667 0.0000
1.3889 0.1389 0.0000
1.3889 0.1944 0.0000
1.3333 0.2778 0.0000
1.3889 0.2500 0.0000
1.3889 0.3056 0.0000
1.3333 0.3889 0.0000
1.3889 0.3611 0.0000
1.3889 0.4167 0.0000
1.3333 0.5000 0.0000
1.3889 0.4722 0.0000
1.3889 0.5278 0.0000
1.3333 0.6111 0.0000
1.3889 0.5833 0.0000
1.3889 0.6389 0.0000
1.3333 0.7222 0.0000
1.3889 0.6944 0.0000
1.3889 0.7500 0.0000
1.3333 0.8333 0.0000
1.3889 0.8056 0.0000
1.3889 0.8611 0.0000
1.3333 0.9444 0.0000
1.3889 0.9167 0.0000
1.3889 0.9722 0.0000
1.5556 0.0556 0.0000
1.6111 0.0278 0.0000
1.6111 0.0833 0.0000
1.5556 0.1667 0.0000
1.6111 0.1389 0.0000
1.6111 0.1944 0.0000
1.5556 0.2778 0.0000
1.6111 0.2500 0.0000
1.6111 0.3056 0.0000
1.5556 0.3889 0.0000
1.6111 0.3611 0.0000
1.6111 0.4167 0.0000
1.5556 0.5000 0.0000
1.6111 0.4722 0.0000
1.6111 0.5278 0.0000
1.5556 0.6111 0.0000
1.6111 0.5833 0.0000
1.6111 0.6389 0.0000
1.5556 0.7222 0.0000
1.6111 0.6944 0.0000
1.6111 0.7500 0.0000
1.5556 0.8333 0.0000
1.6111 0.8056 0.0000
1.6111 0.8611 0.0000
1.5556 0.9444 0.0000
1.6111 0.9167 0.0000
1.6111 0.9722 0.0000
1.7778 0.0556 0.0000
1.8333 0.0278 0.0000
1.8333 0.0833 0.0000
1.7778 0.1667 0.0000
1.8333 0.1389 0.0000
1.8333 0.1944 0.0000
1.7778 0.2778 0.0000
1.8333 0.2500 0.0000
1.8333 0.3056 0.0000
1.7778 0.3889 0.0000
1.8333 0.3611 0.0000
1.8333 0.4167 0.0000
1.7778 0.5000 0.0000
1.8333 0.4722 0.0000
1.8333 0.5278 0.0000
1.7778 0.6111 0.0000
1.8333 0.5833 0.0000
1.8333 0.6389 0.0000
1.7778 0.7222 0.0000
1.8333 0.6944 0.0000
1.8333 0.7500 0.0000
1.7778 0.8333 0.0000
1.8333 0.8056 0.0000
1.8333 0.8611 0.0000
1.7778 0.9444 0.0000
1.8333 0.9167 0.0000
1.8333 0.9722 0.0000
0.1111 0.1111 0.0000
0.1667 0.0833 0.0000
0.1111 0.2222 0.0000
0.1667 0.1944 0.0000
0.1111 0.3333 0.0000
0.1667 0.3056 0.0000
0.1111 0.4444 0.0000
0.1667 0.4167 0.0000
0.1111 0.5556 0.0000
0.1667 0.5278 0.0000
0.1111 0.6667 0.0000
0.1667 0.6389 0.0000
0.1111 0.7778 0.0000
0.1667 0.7500 0.0000
0.1111 0.8889 0.0000
0.1667 0.8611 0.0000
0.1111 1.0000 0.0000
0.1667 0.9722 0.0000
0.3333 0.1111 0.0000
0.3889 0.0833 0.0000
0.3333 0.2222 0.0000
0.3889 0.1944 0.0000
0.3333 0.3333 0.0000
0.3889 0.3056 0.0000
0.3333 0.4444 0.0000
0.3889 0.4167 0.0000
0.3333 0.5556 0.0000
0.3889 0.5278 0.0000
0.3333 0.6667 0.0000
0.3889 0.6389 0.0000
0.3333 0.7778 0.0000
0.3889 0.7500 0.0000
0.3333 0.8889 0.0000
0.3889 0.8611 0.0000
0.3333 1.0000 0.0000
0.3889 0.9722 0.0000
0.5556 0.1111 0.0000
[...]
         <PointData>
            <DataArray Name="fValues" NumberOfComponents="3" format="ascii" type="Float64">
-2.58218e-25  4.27395e-25        00000 
 1.07612e-25 -2.03695e-25        00000 
-9.52456e-25 -1.09271e-26        00000 
-1.22481e-25 -4.89924e-25        00000 
 3.18463e-25 -2.20584e-25        00000 
 2.83238e-25        00000        00000 
-8.64548e-26 -2.35349e-25        00000 
-1.22370e-25  4.28296e-25        00000 
 3.69045e-25 -1.53769e-26        00000 
-2.84930e-25 -2.84930e-25        00000 
-4.35883e-09  6.76366e-11        00000 
 2.21664e-09  6.46301e-09        00000 
 5.12507e-09 -2.21420e-09        00000 
-2.76648e-09  5.09986e-10        00000 
 9.19177e-10 -2.86625e-09        00000 
-1.87685e-10  2.25953e-09        00000 
-6.47655e-10  2.68492e-10        00000 
 2.46065e-09  2.02088e-09        00000 
-1.68351e-09 -5.02856e-10        00000 
-7.42939e-11  2.33869e-09        00000 
 1.89342e-09  1.46677e-09        00000 
 5.18029e-09  6.38003e-10        00000 
 4.13790e-09 -5.14533e-09        00000 
-5.09456e-09 -8.01411e-09        00000 
 4.89162e-09 -3.36427e-09        00000 
 6.28484e-09  2.53854e-09        00000 
 5.37987e-09  4.54657e-09        00000 
 2.46137e-09 -7.00837e-09        00000 
 1.61588e-09 -2.42733e-09        00000 
 1.15345e-09 -4.70578e-09        00000 
 3.26449e-09  3.36067e-09        00000 
 1.13298e-09  5.72347e-09        00000 
 2.66985e-09  1.63009e-09        00000 
-7.02884e-09 -1.72243e-09        00000 
 2.92885e-09 -1.40212e-09        00000 
 9.06326e-09  2.33045e-09        00000 
 1.32813e-09  5.35335e-09        00000 
-1.61205e-09 -2.65455e-10        00000 
-4.94538e-10 -1.62452e-09        00000 
-5.05687e-09  1.78272e-08        00000 
-5.06291e-09  2.32131e-09        00000 
-9.57584e-10  9.39677e-09        00000 
-1.56658e-09 -5.01073e-09        00000 
 9.34065e-10  2.16970e-09        00000 
-5.95918e-10  3.04603e-09        00000 
-4.46745e-09 -2.04038e-09        00000 
 1.76641e-10  7.61641e-09        00000 
 4.12915e-09  6.79602e-10        00000 
-4.43931e-09 -3.19972e-09        00000 
-3.98205e-09  2.46925e-09        00000 
 3.18346e-09 -1.36906e-08        00000 
-1.53305e-09 -1.52015e-09        00000 
-1.19908e-09  6.68675e-09        00000 
-1.56751e-09  1.59463e-09        00000 
-1.89307e-09 -9.98241e-10        00000 
 3.04583e-09  3.47529e-09        00000 
 2.67049e-09  1.05797e-08        00000 
-1.68909e-09  7.90095e-10        00000 
-8.32809e-09 -5.49414e-09        00000 
-9.54852e-09  1.40255e-09        00000 
 1.48961e-09 -6.23561e-09        00000 
 1.38539e-09 -5.66729e-11        00000 
-3.79288e-10 -2.43158e-09        00000 
 3.53506e-09  7.01895e-09        00000 
 2.84103e-10 -3.28392e-10        00000 
 3.94496e-09 -9.91839e-10        00000 
 2.07021e-09  2.76117e-10        00000 
 3.05164e-10 -2.78575e-10        00000 
-5.54286e-09  2.75108e-09        00000 
 1.00965e-09  3.55908e-09        00000 
-2.60425e-10  8.82778e-11        00000 
 2.51617e-10  2.88004e-09        00000 
 7.70913e-09  8.05358e-10        00000 
 7.12035e-09  5.77791e-09        00000 
 1.53977e-09  3.80344e-09        00000 
-2.90385e-10 -3.78579e-09        00000 
 4.25916e-09 -3.72039e-09        00000 
-1.32931e-09  6.27352e-09        00000 
 1.61012e-09 -4.64840e-09        00000 
-7.72211e-10 -6.93831e-09        00000 
 6.11039e-09 -1.19751e-08        00000 
 3.24309e-09 -3.58045e-09        00000 
 1.33235e-09  6.51681e-10        00000 
 2.48286e-09  8.25651e-12        00000 
 5.80889e-09  1.68235e-09        00000 
 5.16587e-09  1.11619e-09        00000 
 2.64600e-09  6.09649e-09        00000 
 2.66533e-09  2.69853e-09        00000 
-7.07337e-09  4.73044e-09        00000 
-5.93758e-10  2.34900e-08        00000 
 7.66295e-09 -1.57968e-09        00000 
 6.60771e-09  7.74946e-10        00000 
 1.96258e-09  6.80799e-10        00000 
 3.35064e-09  7.56586e-10        00000 
 1.10643e-08 -3.12761e-09        00000 
 5.39512e-09  2.16446e-10        00000 
 2.68432e-09  5.88042e-09        00000 
 2.59229e-09  5.65151e-09        00000 
 3.35137e-09  3.07243e-09        00000 
 1.10630e-09  9.43999e-10        00000 
-2.04500e-09  2.36849e-09        00000 
 5.27504e-09  1.17501e-09        00000 
 4.75357e-09 -1.36468e-09        00000 
-6.56016e-10  3.26757e-09        00000 
-2.56301e-09  1.45669e-09        00000 
-1.71890e-09 -1.01423e-09        00000 
-5.78500e-10  1.02634e-09        00000 
-1.30896e-09  9.45941e-10        00000 
-3.12280e-09 -8.02027e-10        00000 
-1.27219e-09 -2.11112e-09        00000 
 7.33151e-09  3.15244e-09        00000 
 8.23450e-09 -2.24613e-10        00000 
 6.20272e-10 -3.20527e-09        00000 
-2.40169e-09 -1.60925e-09        00000 
 7.26505e-10  5.83647e-09        00000 
-3.14692e-10  5.16547e-09        00000 
 1.93197e-09  1.01965e-10        00000 
 3.28900e-09 -1.54174e-10        00000 
 4.40447e-09  2.17184e-10        00000 
 1.21074e-09 -3.16716e-09        00000 
-5.72655e-10 -4.03508e-09        00000 
 9.12195e-11  3.90834e-11        00000 
-8.88178e-11 -4.23646e-09        00000 
 5.18909e-09  4.57583e-09        00000 
 6.56073e-10  2.52941e-09        00000 
 4.68903e-09  1.52145e-09        00000 
 8.48818e-09 -2.46438e-09        00000 
-3.29808e-09 -4.06115e-09        00000 
-2.42902e-09  1.38322e-09        00000 
-4.73617e-09  8.36923e-10        00000 
 3.88724e-09 -2.11131e-10        00000 
-1.06756e-09 -6.70568e-09        00000 
-1.84485e-10 -2.52879e-09        00000 
 2.09225e-09 -6.38168e-09        00000 
-1.48015e-09 -2.85075e-09        00000 
-6.09793e-09 -4.03981e-09        00000 
-1.00479e-09  3.23672e-09        00000 
 2.62986e-09  6.38401e-09        00000 
-1.67992e-09  4.99753e-09        00000 
 7.69532e-10 -5.15393e-09        00000 
 1.27201e-09 -3.28104e-09        00000 
 8.97131e-11 -4.28685e-09        00000 
-6.30210e-09 -1.48355e-09        00000 
-2.77987e-09  4.39151e-10        00000 
 2.01011e-09  1.58887e-09        00000 
-4.64291e-09  1.92904e-09        00000 
-3.78583e-09 -1.00037e-10        00000 
-4.11907e-09 -2.04612e-09        00000 
 3.99933e-09 -4.18859e-09        00000 
 4.61333e-09 -1.31831e-09        00000 
 1.29634e-09 -3.55911e-11        00000 
-4.83908e-10  2.62679e-09        00000 
 3.98978e-09 -4.65249e-10        00000 
-5.50909e-09 -2.13267e-09        00000 
-1.68488e-09  3.48996e-09        00000 
 4.81180e-10  6.20801e-10        00000 
-5.60181e-09  1.76234e-09        00000 
 3.32318e-09 -2.02664e-09        00000 
-7.80571e-09 -5.45337e-09        00000 
-7.13348e-09 -7.20952e-09        00000 
 4.55657e-10 -1.17198e-09        00000 
-2.71871e-09  3.68004e-09        00000 
-4.08963e-09  5.53180e-09        00000 
 3.14721e-09  1.09354e-08        00000 
 1.61396e-09  1.20208e-09        00000 
 1.32457e-09 -1.41981e-09        00000 
 1.36276e-09 -4.12552e-09        00000 
 1.16495e-09 -8.95099e-10        00000 
 4.06982e-09  5.18168e-09        00000 
 8.02339e-09  3.39220e-09        00000 
 7.68193e-09 -1.98840e-09        00000 
 3.98313e-09  9.40048e-10        00000 
-2.57929e-09  1.61879e-09        00000 
 5.51438e-10  5.13714e-09        00000 
-1.72844e-09 -2.06299e-10        00000 
 4.03946e-09  8.14850e-10        00000 
 4.09415e-09  5.37761e-09        00000 
-7.37828e-10  6.73715e-09        00000 
 1.12550e-10  6.62348e-09        00000 
 2.76737e-09  1.08062e-08        00000 
 4.77485e-11 -2.73489e-09        00000 
 3.35880e-26 -8.44593e-26        00000 
-6.34035e-10  2.54310e-09        00000 
 2.91501e-09 -5.13395e-09        00000 
-1.57407e-26  2.34466e-25        00000 
-1.21406e-09 -1.68092e-09        00000 
 1.38288e-09 -1.04459e-09        00000 
       00000 -2.32645e-25        00000 
-7.33582e-09 -1.67430e-09        00000 
 9.74257e-10 -4.64014e-09        00000 
 6.44857e-25 -6.61170e-25        00000 
-3.70789e-09 -4.41619e-09        00000 
 4.90046e-09 -1.73521e-09        00000 
 1.16322e-25 -3.48967e-25        00000 
 1.76037e-09  1.81445e-09        00000 
 2.48446e-09 -7.69345e-11        00000 
-8.73729e-26  3.92249e-26        00000 
-2.26377e-10 -2.37134e-09        00000 
-1.75306e-09 -3.74490e-09        00000 
-2.32645e-25  2.32645e-25        00000 
-1.41345e-09  4.33225e-09        00000 
 1.40213e-09 -3.20236e-09        00000 
-4.65289e-25 -3.19886e-25        00000 
-3.37392e-09  2.21043e-09        00000 
-3.51029e-09 -2.19233e-10        00000 
 8.47693e-26 -4.22435e-25        00000 
-2.35608e-09  2.09857e-09        00000 
-2.11637e-09 -3.74031e-09        00000 
-6.24896e-09  9.07804e-10        00000 
-3.48671e-09 -1.23009e-10        00000 
 1.69593e-09  4.65714e-09        00000 
-4.43032e-10 -1.45807e-09        00000 
 1.69271e-09  7.69194e-09        00000 
-7.05668e-09 -1.08391e-09        00000 
-4.35195e-09 -6.67250e-09        00000 
-2.44073e-09  3.62630e-09        00000 
-1.24189e-10 -4.77571e-09        00000 
-3.06224e-09 -1.63366e-10        00000 
 4.21221e-09 -1.70905e-09        00000 
-5.72328e-09 -5.57262e-09        00000 
-7.06331e-09 -2.16689e-09        00000 
-1.53669e-09  3.78680e-09        00000 
-4.02575e-09  7.26466e-09        00000 
-2.47328e-09 -5.06950e-09        00000 
 4.03315e-10  1.50095e-09        00000 
-2.92365e-09  2.99156e-09        00000 
-2.01207e-09 -1.07353e-08        00000 
-2.63276e-09  4.33273e-09        00000 
-3.92672e-09  1.72797e-09        00000 
-4.02779e-09  2.95145e-09        00000 
 1.82931e-09  5.37073e-10        00000 
-4.20916e-09 -8.22109e-10        00000 
-3.84655e-09  5.83502e-09        00000 
-1.45965e-09 -1.34653e-09        00000 
-3.60777e-09  8.01442e-09        00000 
 1.97433e-09 -4.08310e-09        00000 
 6.72579e-09 -7.55688e-09        00000 
 9.96764e-10  3.45832e-10        00000 
 2.04726e-09 -4.66172e-09        00000 
 1.31880e-09 -2.20003e-09        00000 
-4.50369e-09 -5.04901e-09        00000 
-2.85917e-09 -4.21153e-09        00000 
 3.94841e-10  6.64397e-10        00000 
 1.89259e-09 -1.57034e-09        00000 
 5.51276e-09  1.11916e-09        00000 
-2.80323e-10 -1.30289e-09        00000 
-3.69951e-10 -5.04309e-09        00000 
 8.75728e-09  2.62211e-09        00000 
-7.81009e-09  2.45635e-11        00000 
 8.89749e-10 -2.49788e-09        00000 
 4.14715e-09  2.74691e-09        00000 
-1.96346e-09  4.47956e-10        00000 
-7.62949e-09  1.50528e-09        00000 
 6.70468e-10 -4.93235e-09        00000 
-5.79164e-09 -8.10871e-09        00000 
-5.97957e-09  3.78783e-09        00000 
 2.92895e-09 -4.61522e-09        00000 
-4.86873e-09 -1.01403e-09        00000 
-5.71305e-10 -5.50681e-10        00000 
-4.20179e-11  9.40538e-09        00000 
 6.24130e-09 -4.39234e-09        00000 
 4.29953e-09 -5.29366e-09        00000 
-2.45676e-09 -1.05100e-10        00000 
 2.85036e-09 -1.86432e-09        00000 
 1.73907e-09  3.28740e-09        00000 
 1.73058e-09 -4.12749e-09        00000 
-1.64340e-09  4.03778e-09        00000 
-2.70842e-09 -4.49664e-09        00000 
-3.53023e-09 -2.42932e-09        00000 
 1.12524e-09  1.96819e-09        00000 
 2.79670e-09  3.40340e-09        00000 
-5.19405e-09  3.24512e-10        00000 
 1.43230e-09 -5.46480e-09        00000 
 1.71457e-09 -3.64892e-09        00000 
-4.80001e-09 -2.65720e-09        00000 
-1.71910e-09  1.83768e-09        00000 
 4.70223e-10 -1.61189e-09        00000 
-2.37993e-09 -2.55989e-09        00000 
-1.60088e-09 -5.97995e-09        00000 
-1.45130e-09 -1.88085e-09        00000 
-7.48248e-09 -8.67235e-09        00000 
-1.83810e-09 -4.73154e-10        00000 
-1.13700e-08 -4.63581e-09        00000 
-1.46598e-09 -2.26394e-09        00000 
-3.29743e-09  4.94410e-09        00000 
-1.23535e-10 -1.54927e-09        00000 
-7.35898e-09  2.83607e-09        00000 
 9.16067e-09  1.15390e-08        00000 
 1.75307e-09 -1.02204e-08        00000 
-4.02953e-09 -7.51506e-10        00000 
 5.74971e-10  2.90260e-09        00000 
-2.41677e-09  1.71796e-09        00000 
 8.33852e-09  4.84110e-09        00000 
 2.25347e-09  5.54964e-09        00000 
-5.33616e-09 -2.49371e-09        00000 
-9.20238e-10  1.12092e-09        00000 
-2.38889e-09  6.29584e-09        00000 
-2.82535e-09  5.72409e-09        00000 
 3.02050e-09  6.18112e-09        00000 
 1.91523e-09 -4.55718e-09        00000 
-5.51339e-09 -2.27162e-09        00000 
-4.62494e-09  3.62746e-10        00000 
-3.76978e-09 -1.78063e-09        00000 
-2.90268e-09 -3.93572e-09        00000 
-5.40787e-09 -2.25467e-09        00000 
-9.08571e-10 -3.44522e-09        00000 
-1.98840e-09 -3.41327e-09        00000 
-2.40232e-09 -1.00915e-09        00000 
-1.53959e-09 -2.36064e-10        00000 
-9.70644e-10  5.35096e-09        00000 
-1.12870e-08  1.74241e-09        00000 
 2.78003e-09 -1.59641e-09        00000 
 5.87860e-10 -2.86921e-09        00000 
-4.64739e-09  3.33751e-09        00000 
 8.94831e-09  1.16380e-10        00000 
 2.64926e-09  8.14225e-10        00000 
-2.64448e-09  6.12381e-10        00000 
-7.01164e-10  1.53357e-08        00000 
-3.35120e-10 -3.85290e-09        00000 
 1.65400e-09 -4.98422e-09        00000 
-2.18009e-09  8.54657e-09        00000 
-3.26509e-10 -9.55019e-10        00000 
 2.21428e-09  3.78305e-09        00000 
-2.95429e-09  6.07188e-09        00000 
-2.10488e-09  2.81176e-10        00000 
 1.66447e-09  3.29124e-09        00000 
 1.74450e-09 -6.38323e-10        00000 
-2.12404e-09  7.48585e-10        00000 
 1.34254e-09  6.27262e-09        00000 
-2.85812e-09  2.86690e-10        00000 
-6.65185e-09 -3.09011e-09        00000 
 2.79478e-09  4.17694e-09        00000 
 1.58943e-09 -5.56357e-09        00000 
-2.36693e-09 -3.31468e-10        00000 
 2.29026e-09  7.59665e-09        00000 
 1.04876e-11  1.53662e-10        00000 
-4.63922e-09 -1.99199e-09        00000 
-5.82816e-09  4.47125e-09        00000 
-4.46033e-09 -5.63716e-10        00000 
 3.20148e-09 -3.07748e-09        00000 
-9.05095e-09 -2.18137e-11        00000 
-3.83895e-09  1.76748e-10        00000 
-2.29889e-09 -9.53895e-09        00000 
-4.16537e-09  1.99724e-09        00000 
 1.10072e-09  5.54837e-09        00000 
-6.14500e-09  3.50472e-09        00000 
-1.71016e-09  9.41647e-09        00000 
-1.65991e-09 -4.36276e-09        00000 
-6.46452e-10  3.72421e-09        00000 
-7.02468e-09  7.03833e-09        00000 
 3.64821e-10  1.26747e-09        00000 
-3.17715e-09  3.92234e-10        00000 
-3.20003e-09 -5.97844e-10        00000 
-1.11163e-09 -2.46517e-09        00000 
-5.48249e-09  1.22999e-09        00000 
-2.78709e-09  4.42490e-09        00000 
 4.74728e-09 -2.55629e-09        00000 
-8.28936e-09 -1.56624e-09        00000 
-4.47500e-10  3.45425e-09        00000 
-6.25477e-09  2.39456e-09        00000 
-5.26569e-10  6.41279e-10        00000 
 2.59007e-10  2.60351e-09        00000 
-1.69268e-09  5.77951e-09        00000 
-6.45960e-09 -1.28864e-10        00000 
-8.59606e-09  1.66312e-09        00000 
-4.55117e-10  6.00376e-09        00000 
-1.02449e-09  6.54229e-09        00000 
-5.86806e-09 -1.17554e-09        00000 
 4.35728e-09  7.86223e-09        00000 
 7.99304e-10 -3.87445e-10        00000 
-4.46505e-11  4.25563e-09        00000 
-1.76885e-09  9.64292e-09        00000 
 2.60195e-09  5.63513e-09        00000 
 2.25188e-09  5.56705e-09        00000 
 2.34633e-09  7.07621e-09        00000 
-2.68508e-09 -4.73875e-10        00000 
 7.27641e-09  6.28515e-09        00000 
-9.19158e-11  1.42981e-09        00000 
 1.99739e-09 -5.55389e-10        00000 
 4.96962e-09  5.63271e-09        00000 
 7.57439e-11  3.32416e-09        00000 
-1.49012e-08  1.17424e-10        00000 
-4.40764e-10 -1.33910e-09        00000 
-5.28297e-09  4.99951e-09        00000 
-7.20061e-09  4.75818e-09        00000 
 2.62753e-09 -2.64298e-09        00000 
-4.75509e-09  4.68219e-09        00000 
-4.61296e-09 -2.17581e-09        00000 
 3.89610e-09 -2.84602e-09        00000 
-1.83292e-10  6.60425e-09        00000 
-2.98490e-09  1.30935e-09        00000 
-1.54199e-09 -3.99979e-10        00000 
 7.67386e-10  8.35868e-10        00000 
-5.82938e-09  5.49950e-09        00000 
 6.79174e-09  5.62076e-09        00000 
 9.12422e-10  2.94459e-09        00000 
 1.08480e-09  1.35428e-08        00000 
 1.28239e-09  9.58607e-10        00000 
 4.78900e-09  9.24967e-09        00000 
 2.73184e-09 -5.37415e-09        00000 
-4.82146e-10  9.01750e-10        00000 
-5.67240e-10  1.68355e-09        00000 
 7.76254e-10 -3.22883e-09        00000 
 2.38998e-09  5.83266e-09        00000 
 1.57496e-09  9.79820e-09        00000 
-4.91593e-09  1.91808e-09        00000 
-2.40522e-09  1.38488e-09        00000 
-3.67561e-09  6.44036e-09        00000 
-4.92378e-10  3.74737e-09        00000 
 2.49878e-09  6.33365e-09        00000 
 1.45855e-09  5.73354e-09        00000 
-3.50445e-09  3.62333e-09        00000 
-1.12533e-09 -3.68034e-09        00000 
 1.24874e-09  2.49720e-09        00000 
-1.10055e-09  1.53405e-09        00000 
 1.57826e-09  8.91276e-10        00000 
-5.79024e-09  6.98321e-11        00000 
 2.73798e-09  3.70774e-09        00000 
-2.16801e-10  2.62013e-09        00000 
-1.54057e-09  4.68604e-09        00000 
 4.50393e-09 -8.70008e-09        00000 
 4.59596e-09 -3.67338e-09        00000 
-2.13350e-09  1.53120e-08        00000 
 4.51541e-09 -2.49188e-08        00000 
-2.60243e-09  1.04562e-09        00000 
-3.10570e-09 -6.40656e-09        00000 
 5.36241e-09 -5.39115e-09        00000 
 5.88375e-09  5.17308e-09        00000 
-6.14718e-10 -1.33198e-09        00000 
-2.07664e-11  9.73749e-10        00000 
 4.12071e-10 -4.83468e-09        00000 
-1.27084e-09 -3.82791e-09        00000 
-3.79931e-10  9.08564e-10        00000 
-2.02640e-09  2.06001e-09        00000 
-9.95848e-10  5.01534e-09        00000 
-5.97581e-10  2.53557e-09        00000 
 4.69296e-09 -1.90215e-09        00000 
-3.31130e-09 -2.00952e-09        00000 
-2.53758e-09  1.02492e-09        00000 
 5.29218e-09  2.79566e-09        00000 
-2.98768e-09  4.36646e-09        00000 
 8.67568e-11  4.64848e-09        00000 
 4.62788e-09 -2.08338e-09        00000 
 4.29679e-09 -6.56038e-09        00000 
 3.93209e-09  4.50681e-10        00000 
 4.24404e-09 -2.70505e-09        00000 
-7.88990e-10  2.11290e-09        00000 
-1.33660e-09 -1.26595e-09        00000 
-1.57140e-09  1.04781e-09        00000 
 9.13791e-10 -9.81615e-11        00000 
-2.44989e-09  4.67741e-09        00000 
-1.09303e-14  3.32343e-09        00000 
-4.33764e-09  1.83618e-09        00000 
-2.86282e-09  8.53539e-10        00000 
-7.45732e-10  2.70808e-09        00000 
-2.19715e-09 -3.65134e-10        00000 
-3.05734e-09 -5.58848e-09        00000 
 1.99979e-09  3.17741e-10        00000 
-4.78853e-10 -8.69775e-09        00000 
 6.85666e-09  1.01903e-08        00000 
-1.05654e-09  3.35922e-09        00000 
 6.56900e-10 -1.27210e-09        00000 
 2.15470e-09 -5.56923e-11        00000 
 3.69825e-10  4.70860e-09        00000 
-1.20032e-09  4.44262e-09        00000 
 6.90838e-09  4.47855e-09        00000 
-1.20989e-09 -3.74129e-10        00000 
 3.47699e-09 -3.43356e-09        00000 
-1.99751e-09  1.43121e-09        00000 
 5.85203e-09  4.88764e-09        00000 
-1.94096e-09  3.23040e-09        00000 
 1.55777e-09  5.44101e-09        00000 
 1.91432e-09  3.64187e-09        00000 
-1.40092e-11  4.15693e-09        00000 
 4.03175e-09  2.54398e-09        00000 
 2.95548e-09 -2.29213e-09        00000 
 1.91516e-09  4.50160e-09        00000 
-6.15508e-11 -3.34038e-09        00000 
 3.84347e-10  1.25017e-08        00000 
 1.99400e-10 -1.91383e-09        00000 
 1.71853e-09  5.68449e-09        00000 
-4.38972e-09  9.58599e-09        00000 
-4.93645e-09  3.79626e-09        00000 
-3.12631e-09  3.64821e-09        00000 
 1.09836e-09 -2.47366e-09        00000 
 1.46213e-10  1.76328e-10        00000 
 4.27394e-09 -4.65668e-10        00000 
 2.49026e-09  5.20043e-09        00000 
 1.10816e-09  5.13152e-09        00000 
-1.03260e-08  4.78573e-09        00000 
-7.43796e-11 -1.46692e-09        00000 
-6.53646e-11  2.33220e-09        00000 
-2.93113e-09  5.72644e-09        00000 
-7.04010e-10 -1.62785e-09        00000 
 1.00844e-09  1.12070e-08        00000 
-2.51946e-09 -8.53743e-09        00000 
-2.55227e-09  5.61416e-09        00000 