<?xml version="1.0" encoding="utf-8"?>
<VTKFile byte_order="LittleEndian" type="UnstructuredGrid" version="0.1">
   <UnstructuredGrid>
      <Piece NumberOfCells="1296" NumberOfPoints="685">
         <Points>
            <DataArray Name="Points" NumberOfComponents="3" format="ascii" type="Float32">
0.0000 0.0000 0.0000
0.0000 0.1111 0.0000
0.0000 0.2222 0.0000
0.0000 0.3333 0.0000
0.0000 0.4444 0.0000
0.0000 0.5556 0.0000
0.0000 0.6667 0.0000
0.0000 0.7778 0.0000
0.0000 0.8889 0.0000
0.0000 1.0000 0.0000
0.2222 0.0000 0.0000
0.2222 0.1111 0.0000
0.2222 0.2222 0.0000
0.2222 0.3333 0.0000
0.2222 0.4444 0.0000
0.2222 0.5556 0.0000
0.2222 0.6667 0.0000
0.2222 0.7778 0.0000
0.2222 0.8889 0.0000
0.2222 1.0000 0.0000
0.4444 0.0000 0.0000
0.4444 0.1111 0.0000
0.4444 0.2222 0.0000
0.4444 0.3333 0.0000
0.4444 0.4444 0.0000
0.4444 0.5556 0.0000
0.4444 0.6667 0.0000
0.4444 0.7778 0.0000
0.4444 0.8889 0.0000
0.4444 1.0000 0.0000
0.6667 0.0000 0.0000
0.6667 0.1111 0.0000
0.6667 0.2222 0.0000
0.6667 0.3333 0.0000
0.6667 0.4444 0.0000
0.6667 0.5556 0.0000
0.6667 0.6667 0.0000
0.6667 0.7778 0.0000
0.6667 0.8889 0.0000
0.6667 1.0000 0.0000
0.8889 0.0000 0.0000
0.8889 0.1111 0.0000
0.8889 0.2222 0.0000
0.8889 0.3333 0.0000
0.8889 0.4444 0.0000
0.8889 0.5556 0.0000
0.8889 0.6667 0.0000
0.8889 0.7778 0.0000
0.8889 0.8889 0.0000
0.8889 1.0000 0.0000
1.1111 0.0000 0.0000
1.1111 0.1111 0.0000
1.1111 0.2222 0.0000
1.1111 0.3333 0.0000
1.1111 0.4444 0.0000
1.1111 0.5556 0.0000
1.1111 0.6667 0.0000
1.1111 0.7778 0.0000
1.1111 0.8889 0.0000
1.1111 1.0000 0.0000
1.3333 0.0000 0.0000
1.3333 0.1111 0.0000
1.3333 0.2222 0.0000
1.3333 0.3333 0.0000
1.3333 0.4444 0.0000
1.3333 0.5556 0.0000
1.3333 0.6667 0.0000
1.3333 0.7778 0.0000
1.3333 0.8889 0.0000
1.3333 1.0000 0.0000
1.5556 0.0000 0.0000
1.5556 0.1111 0.0000
1.5556 0.2222 0.0000
1.5556 0.3333 0.0000
1.5556 0.4444 0.0000
1.5556 0.5556 0.0000
1.5556 0.6667 0.0000
1.5556 0.7778 0.0000
1.5556 0.8889 0.0000
1.5556 1.0000 0.0000
1.7778 0.0000 0.0000
1.7778 0.1111 0.0000
1.7778 0.2222 0.0000
1.7778 0.3333 0.0000
1.7778 0.4444 0.0000
1.7778 0.5556 0.0000
1.7778 0.6667 0.0000
1.7778 0.7778 0.0000
1.7778 0.8889 0.0000
1.7778 1.0000 0.0000
2.0000 0.0000 0.0000
2.0000 0.1111 0.0000
2.0000 0.2222 0.0000
2.0000 0.3333 0.0000
2.0000 0.4444 0.0000
2.0000 0.5556 0.0000
2.0000 0.6667 0.0000
2.0000 0.7778 0.0000
2.0000 0.8889 0.0000
2.0000 1.0000 0.0000
0.1111 0.0556 0.0000
0.1111 0.1667 0.0000
0.1111 0.2778 0.0000
0.1111 0.3889 0.0000
0.1111 0.5000 0.0000
0.1111 0.6111 0.0000
0.1111 0.7222 0.0000
0.1111 0.8333 0.0000
0.1111 0.9444 0.0000
0.3333 0.0556 0.0000
0.3333 0.1667 0.0000
0.3333 0.2778 0.0000
0.3333 0.3889 0.0000
0.3333 0.5000 0.0000
0.3333 0.6111 0.0000
0.3333 0.7222 0.0000
0.3333 0.8333 0.0000
0.3333 0.9444 0.0000
0.5556 0.0556 0.0000
0.5556 0.1667 0.0000
0.5556 0.2778 0.0000
0.5556 0.3889 0.0000
0.5556 0.5000 0.0000
0.5556 0.6111 0.0000
0.5556 0.7222 0.0000
0.5556 0.8333 0.0000
0.5556 0.9444 0.0000
0.7778 0.0556 0.0000
0.7778 0.1667 0.0000
0.7778 0.2778 0.0000
0.7778 0.3889 0.0000
0.7778 0.5000 0.0000
0.7778 0.6111 0.0000
0.7778 0.7222 0.0000
0.7778 0.8333 0.0000
0.7778 0.9444 0.0000
1.0000 0.0556 0.0000
1.0000 0.1667 0.0000
1.0000 0.2778 0.0000
1.0000 0.3889 0.0000
1.0000 0.5000 0.0000
1.0000 0.6111 0.0000
1.0000 0.7222 0.0000
1.0000 0.8333 0.0000
1.0000 0.9444 0.0000
1.2222 0.0556 0.0000
1.2222 0.1667 0.0000
1.2222 0.2778 0.0000
1.2222 0.3889 0.0000
1.2222 0.5000 0.0000
1.2222 0.6111 0.0000
1.2222 0.7222 0.0000
1.2222 0.8333 0.0000
1.2222 0.9444 0.0000
1.4444 0.0556 0.0000
1.4444 0.1667 0.0000
1.4444 0.2778 0.0000
1.4444 0.3889 0.0000
1.4444 0.5000 0.0000
1.4444 0.6111 0.0000
1.4444 0.7222 0.0000
1.4444 0.8333 0.0000
1.4444 0.9444 0.0000
1.6667 0.0556 0.0000
1.6667 0.1667 0.0000
1.6667 0.2778 0.0000
1.6667 0.3889 0.0000
1.6667 0.5000 0.0000
1.6667 0.6111 0.0000
1.6667 0.7222 0.0000
1.6667 0.8333 0.0000
1.6667 0.9444 0.0000
1.8889 0.0556 0.0000
1.8889 0.1667 0.0000
1.8889 0.2778 0.0000
1.8889 0.3889 0.0000
1.8889 0.5000 0.0000
1.8889 0.6111 0.0000
1.8889 0.7222 0.0000
1.8889 0.8333 0.0000
1.8889 0.9444 0.0000
0.0000 0.0556 0.0000
0.0556 0.0278 0.0000
0.0556 0.0833 0.0000
0.0000 0.1667 0.0000
0.0556 0.1389 0.0000
0.0556 0.1944 0.0000
0.0000 0.2778 0.0000
0.0556 0.2500 0.0000
0.0556 0.3056 0.0000
0.0000 0.3889 0.0000
0.0556 0.3611 0.0000
0.0556 0.4167 0.0000
0.0000 0.5000 0.0000
0.0556 0.4722 0.0000
0.0556 0.5278 0.0000
0.0000 0.6111 0.0000
0.0556 0.5833 0.0000
0.0556 0.6389 0.0000
0.0000 0.7222 0.0000
0.0556 0.6944 0.0000
0.0556 0.7500 0.0000
0.0000 0.8333 0.0000
0.0556 0.8056 0.0000
0.0556 0.8611 0.0000
0.0000 0.9444 0.0000
0.0556 0.9167 0.0000
0.0556 0.9722 0.0000
0.2222 0.0556 0.0000
0.2778 0.0278 0.0000
0.2778 0.0833 0.0000
0.2222 0.1667 0.0000
0.2778 0.1389 0.0000
0.2778 0.1944 0.0000
0.2222 0.2778 0.0000
0.2778 0.2500 0.0000
0.2778 0.3056 0.0000
0.2222 0.3889 0.0000
0.2778 0.3611 0.0000
0.2778 0.4167 0.0000
0.2222 0.5000 0.0000
0.2778 0.4722 0.0000
0.2778 0.5278 0.0000
0.2222 0.6111 0.0000
0.2778 0.5833 0.0000
0.2778 0.6389 0.0000
0.2222 0.7222 0.0000
0.2778 0.6944 0.0000
0.2778 0.7500 0.0000
0.2222 0.8333 0.0000
0.2778 0.8056 0.0000
0.2778 0.8611 0.0000
0.2222 0.9444 0.0000
0.2778 0.9167 0.0000
0.2778 0.9722 0.0000
0.4444 0.0556 0.0000
0.5000 0.0278 0.0000
0.5000 0.0833 0.0000
0.4444 0.1667 0.0000
0.5000 0.1389 0.0000
0.5000 0.1944 0.0000
0.4444 0.2778 0.0000
0.5000 0.2500 0.0000
0.5000 0.3056 0.0000
0.4444 0.3889 0.0000
0.5000 0.3611 0.0000
0.5000 0.4167 0.0000
0.4444 0.5000 0.0000
0.5000 0.4722 0.0000
0.5000 0.5278 0.0000
0.4444 0.6111 0.0000
0.5000 0.5833 0.0000
0.5000 0.6389 0.0000
0.4444 0.7222 0.0000
0.5000 0.6944 0.0000
0.5000 0.7500 0.0000
0.4444 0.8333 0.0000
0.5000 0.8056 0.0000
0.5000 0.8611 0.0000
0.4444 0.9444 0.0000
0.5000 0.9167 0.0000
0.5000 0.9722 0.0000
0.6667 0.0556 0.0000
0.7222 0.0278 0.0000
0.7222 0.0833 0.0000
0.6667 0.1667 0.0000
0.7222 0.1389 0.0000
0.7222 0.1944 0.0000
0.6667 0.2778 0.0000
0.7222 0.2500 0.0000
0.7222 0.3056 0.0000
0.6667 0.3889 0.0000
0.7222 0.3611 0.0000
0.7222 0.4167 0.0000
0.6667 0.5000 0.0000
0.7222 0.4722 0.0000
0.7222 0.5278 0.0000
0.6667 0.6111 0.0000
0.7222 0.5833 0.0000
0.7222 0.6389 0.0000
0.6667 0.7222 0.0000
0.7222 0.6944 0.0000
0.7222 0.7500 0.0000
0.6667 0.8333 0.0000
0.7222 0.8056 0.0000
0.7222 0.8611 0.0000
0.6667 0.9444 0.0000
0.7222 0.9167 0.0000
0.7222 0.9722 0.0000
0.8889 0.0556 0.0000
0.9444 0.0278 0.0000
0.9444 0.0833 0.0000
0.8889 0.1667 0.0000
0.9444 0.1389 0.0000
0.9444 0.1944 0.0000
0.8889 0.2778 0.0000
0.9444 0.2500 0.0000
0.9444 0.3056 0.0000
0.8889 0.3889 0.0000
0.9444 0.3611 0.0000
0.9444 0.4167 0.0000
0.8889 0.5000 0.0000
0.9444 0.4722 0.0000
0.9444 0.5278 0.0000
0.8889 0.6111 0.0000
0.9444 0.5833 0.0000
0.9444 0.6389 0.0000
0.8889 0.7222 0.0000
0.9444 0.6944 0.0000
0.9444 0.7500 0.0000
0.8889 0.8333 0.0000
0.9444 0.8056 0.0000
0.9444 0.8611 0.0000
0.8889 0.9444 0.0000
0.9444 0.9167 0.0000
0.9444 0.9722 0.0000
1.1111 0.0556 0.0000
1.1667 0.0278 0.0000
1.1667 0.0833 0.0000
1.1111 0.1667 0.0000
1.1667 0.1389 0.0000
1.1667 0.1944 0.0000
1.1111 0.2778 0.0000
1.1667 0.2500 0.0000
1.1667 0.3056 0.0000
1.1111 0.3889 0.0000
1.1667 0.3611 0.0000
1.1667 0.4167 0.0000
1.1111 0.5000 0.0000
1.1667 0.4722 0.0000
1.1667 0.5278 0.0000
1.1111 0.6111 0.0000
1.1667 0.5833 0.0000
1.1667 0.6389 0.0000
1.1111 0.7222 0.0000
1.1667 0.6944 0.0000
1.1667 0.7500 0.0000
1.1111 0.8333 0.0000
1.1667 0.8056 0.0000
1.1667 0.8611 0.0000
1.1111 0.9444 0.0000
1.1667 0.9167 0.0000
1.1667 0.9722 0.0000
1.3333 0.0556 0.0000
1.3889 0.0278 0.0000
1.3889 0.0833 0.0000
1.3333 0.1667 0.0000
1.3889 0.1389 0.0000
1.3889 0.1944 0.0000
1.3333 0.2778 0.0000
1.3889 0.2500 0.0000
1.3889 0.3056 0.0000
1.3333 0.3889 0.0000
1.3889 0.3611 0.0000
1.3889 0.4167 0.0000
1.3333 0.5000 0.0000
1.3889 0.4722 0.0000
1.3889 0.5278 0.0000
1.3333 0.6111 0.0000
1.3889 0.5833 0.0000
1.3889 0.6389 0.0000
1.3333 0.7222 0.0000
1.3889 0.6944 0.0000
1.3889 0.7500 0.0000
1.3333 0.8333 0.0000
1.3889 0.8056 0.0000
1.3889 0.8611 0.0000
1.3333 0.9444 0.0000
1.3889 0.9167 0.0000
1.3889 0.9722 0.0000
1.5556 0.0556 0.0000
1.6111 0.0278 0.0000
1.6111 0.0833 0.0000
1.5556 0.1667 0.0000
1.6111 0.1389 0.0000
1.6111 0.1944 0.0000
1.5556 0.2778 0.0000
1.6111 0.2500 0.0000
1.6111 0.3056 0.0000
1.5556 0.3889 0.0000
1.6111 0.3611 0.0000
1.6111 0.4167 0.0000
1.5556 0.5000 0.0000
1.6111 0.4722 0.0000
1.6111 0.5278 0.0000
1.5556 0.6111 0.0000
1.6111 0.5833 0.0000
1.6111 0.6389 0.0000
1.5556 0.7222 0.0000
1.6111 0.6944 0.0000
1.6111 0.7500 0.0000
1.5556 0.8333 0.0000
1.6111 0.8056 0.0000
1.6111 0.8611 0.0000
1.5556 0.9444 0.0000
1.6111 0.9167 0.0000
1.6111 0.9722 0.0000
1.7778 0.0556 0.0000
1.8333 0.0278 0.0000
1.8333 0.0833 0.0000
1.7778 0.1667 0.0000
1.8333 0.1389 0.0000
1.8333 0.1944 0.0000
1.7778 0.2778 0.0000
1.8333 0.2500 0.0000
1.8333 0.3056 0.0000
1.7778 0.3889 0.0000
1.8333 0.3611 0.0000
1.8333 0.4167 0.0000
1.7778 0.5000 0.0000
1.8333 0.4722 0.0000
1.8333 0.5278 0.0000
1.7778 0.6111 0.0000
1.8333 0.5833 0.0000
1.8333 0.6389 0.0000
1.7778 0.7222 0.0000
1.8333 0.6944 0.0000
1.8333 0.7500 0.0000
1.7778 0.8333 0.0000
1.8333 0.8056 0.0000
1.8333 0.8611 0.0000
1.7778 0.9444 0.0000
1.8333 0.9167 0.0000
1.8333 0.9722 0.0000
0.1111 0.1111 0.0000
0.1667 0.0833 0.0000
0.1111 0.2222 0.0000
0.1667 0.1944 0.0000
0.1111 0.3333 0.0000
0.1667 0.3056 0.0000
0.1111 0.4444 0.0000
0.1667 0.4167 0.0000
0.1111 0.5556 0.0000
0.1667 0.5278 0.0000
0.1111 0.6667 0.0000
0.1667 0.6389 0.0000
0.1111 0.7778 0.0000
0.1667 0.7500 0.0000
0.1111 0.8889 0.0000
0.1667 0.8611 0.0000
0.1111 1.0000 0.0000
0.1667 0.9722 0.0000
0.3333 0.1111 0.0000
0.3889 0.0833 0.0000
0.3333 0.2222 0.0000
0.3889 0.1944 0.0000
0.3333 0.3333 0.0000
0.3889 0.3056 0.0000
0.3333 0.4444 0.0000
0.3889 0.4167 0.0000
0.3333 0.5556 0.0000
0.3889 0.5278 0.0000
0.3333 0.6667 0.0000
0.3889 0.6389 0.0000
0.3333 0.7778 0.0000
0.3889 0.7500 0.0000
0.3333 0.8889 0.0000
0.3889 0.8611 0.0000
0.3333 1.0000 0.0000
0.3889 0.9722 0.0000
0.5556 0.1111 0.0000
[...]
         <PointData>
            <DataArray Name="fValues" NumberOfComponents="3" format="ascii" type="Float64">
 1.24657e-25  1.78081e-26        00000 
-8.68344e-26 -3.07464e-26        00000 
-2.53364e-26 -3.81247e-26        00000 
 4.59304e-26 -1.53101e-26        00000 
 1.62106e-27  5.00952e-26        00000 
 2.29652e-26 -3.06203e-26        00000 
 1.03265e-26 -1.54898e-26        00000 
-3.82407e-27  2.67685e-26        00000 
-1.84522e-25  1.15326e-26        00000 
 1.78081e-26 -7.12326e-26        00000 
 4.20557e-11  4.65739e-10        00000 
-8.66685e-12  1.83608e-10        00000 
 4.16991e-11  3.78136e-10        00000 
-8.15684e-10 -2.76653e-10        00000 
-2.71279e-10  9.12801e-11        00000 
-3.20528e-10  1.84861e-10        00000 
-1.85998e-10  6.30322e-11        00000 
-7.38567e-10  4.67598e-10        00000 
-3.54905e-10  1.31429e-10        00000 
-4.35293e-10 -1.82639e-09        00000 
 1.34846e-10  9.56483e-10        00000 
-1.88219e-10  3.48946e-10        00000 
 2.37137e-10 -6.32982e-10        00000 
 1.78922e-10 -6.70981e-10        00000 
-8.01947e-10 -7.97579e-10        00000 
 8.41098e-10  2.45716e-10        00000 
 2.76884e-10 -1.07422e-10        00000 
-3.08706e-10 -1.03159e-09        00000 
-1.29642e-10 -3.62153e-10        00000 
 2.21749e-10 -5.97090e-10        00000 
 1.33456e-10  2.20004e-09        00000 
 9.35003e-11  5.45825e-10        00000 
 2.01410e-10  1.60721e-10        00000 
-4.54513e-10 -3.61240e-11        00000 
-3.71983e-10  4.41247e-11        00000 
 4.64297e-10  6.12594e-10        00000 
-3.17236e-10  8.21743e-11        00000 
-8.55628e-10 -3.68829e-10        00000 
-4.27278e-10 -1.61172e-10        00000 
-3.15431e-10 -5.58913e-11        00000 
 1.61162e-10  8.83432e-10        00000 
-1.72875e-10  4.97231e-10        00000 
-6.26983e-11 -2.10303e-10        00000 
-1.69877e-10 -2.06303e-10        00000 
-1.10578e-09 -7.28875e-10        00000 
 1.54813e-10  4.90488e-10        00000 
 3.27276e-11  5.92365e-10        00000 
-3.24434e-10 -2.92282e-11        00000 
-6.00267e-11  5.41824e-10        00000 
-3.61890e-10 -1.35111e-09        00000 
 8.53944e-10  2.76799e-10        00000 
 2.83222e-10  1.26761e-10        00000 
 2.43631e-10  4.83887e-10        00000 
 6.22862e-11  9.30292e-10        00000 
-8.17835e-11  1.89289e-10        00000 
 1.63553e-10  2.91060e-10        00000 
 3.43661e-10 -1.96842e-10        00000 
-2.94676e-10  2.79499e-10        00000 
-3.71188e-10  6.17533e-11        00000 
-2.31104e-10 -6.85844e-10        00000 
 3.11751e-11 -3.33557e-10        00000 
 7.61133e-11 -4.30873e-10        00000 
 5.77728e-10 -2.94470e-10        00000 
-1.93012e-10  4.51479e-10        00000 
 1.70900e-10  4.03475e-10        00000 
-3.17755e-10  8.08811e-11        00000 
-8.19966e-10 -2.11756e-10        00000 
-6.01261e-10 -8.33296e-10        00000 
 1.65585e-10  2.74696e-11        00000 
 5.76698e-10 -5.69344e-10        00000 
 1.60583e-12 -4.72141e-10        00000 
 2.02476e-10 -4.11646e-10        00000 
 3.91935e-10  1.29546e-10        00000 
 4.12683e-10  3.38545e-10        00000 
 5.17844e-11  8.60894e-11        00000 
-1.12266e-10  2.30216e-11        00000 
-3.08972e-10  3.99041e-11        00000 
 5.55815e-10 -2.48534e-10        00000 
 5.43054e-10 -3.96426e-10        00000 
 2.29218e-10 -9.07221e-10        00000 
-3.58050e-10  5.60817e-10        00000 
-6.63306e-10  9.77863e-10        00000 
-6.32269e-10  4.34994e-11        00000 
-6.42501e-10 -1.04166e-10        00000 
-7.37259e-10 -7.72616e-10        00000 
-3.40663e-10 -5.59027e-10        00000 
 2.25668e-11  8.55778e-11        00000 
-4.01940e-10  3.09441e-10        00000 
-5.31486e-11  3.06770e-10        00000 
-5.71255e-10  1.18672e-09        00000 
-1.58330e-10  1.77465e-10        00000 
 2.59320e-10  4.89706e-11        00000 
 1.34605e-10 -2.35815e-10        00000 
-9.00968e-11  3.76019e-11        00000 
-4.80270e-10  3.22871e-10        00000 
 3.69880e-10  1.48972e-10        00000 
-5.75938e-10  5.56810e-10        00000 
 5.89125e-10  6.73595e-12        00000 
 1.60298e-11  2.08928e-10        00000 
-3.76211e-10 -7.59997e-11        00000 
 4.94075e-10  4.97476e-10        00000 
 5.52500e-11  8.12624e-10        00000 
-1.69553e-11  6.15167e-10        00000 
 3.92151e-10  3.15308e-10        00000 
 8.54681e-10 -3.58089e-11        00000 
 5.63912e-10  3.26285e-10        00000 
 9.97504e-11 -3.05829e-10        00000 
-1.29835e-10 -2.84405e-10        00000 
-1.23674e-10 -1.69078e-11        00000 
-2.02505e-12  2.87031e-10        00000 
-7.28413e-10  2.29562e-10        00000 
-1.92220e-10  3.41654e-10        00000 
-3.47743e-10  5.88388e-10        00000 
-1.89122e-10  6.13621e-10        00000 
-4.29630e-11 -2.94822e-11        00000 
 3.04112e-12 -4.35474e-11        00000 
 4.65441e-11  9.69127e-11        00000 
-4.99320e-10  6.58067e-10        00000 
 4.42704e-10 -8.98979e-11        00000 
 1.67269e-10  5.88180e-10        00000 
 4.70969e-10  6.08530e-10        00000 
 4.17963e-10  7.28967e-10        00000 
 9.68967e-11  2.88452e-10        00000 
 4.18680e-10  3.62274e-10        00000 
 3.49353e-10  6.04299e-10        00000 
-4.57376e-10  2.77545e-10        00000 
 4.05507e-11 -3.27738e-11        00000 
 5.12721e-10 -5.39330e-10        00000 
-3.38503e-10  1.02112e-10        00000 
-1.16103e-11  3.58504e-11        00000 
-9.42762e-10 -5.54230e-10        00000 
 2.57785e-10 -4.87823e-11        00000 
 6.76437e-12  2.33225e-10        00000 
 1.55282e-10  2.89784e-10        00000 
-9.10646e-10 -7.03814e-10        00000 
-6.25008e-10 -7.80048e-10        00000 
-8.40528e-11 -1.40290e-10        00000 
-2.20453e-10 -8.15412e-10        00000 
 1.10532e-10 -5.96522e-10        00000 
-5.04997e-10 -9.37206e-11        00000 
-2.23423e-10 -5.78652e-10        00000 
 1.15477e-10 -5.15890e-10        00000 
 1.42947e-10 -1.40567e-10        00000 
-3.88255e-10 -5.15243e-10        00000 
-4.83737e-11  3.37430e-10        00000 
 1.89938e-10  9.15179e-11        00000 
 8.54783e-10  2.40554e-10        00000 
 7.80062e-10 -3.45111e-11        00000 
 8.55721e-10  4.00163e-10        00000 
 3.08404e-10  3.24597e-10        00000 
 1.04592e-11  1.76662e-10        00000 
 6.85759e-10  5.37092e-10        00000 
-3.20057e-10 -4.48658e-10        00000 
-2.17028e-10 -5.84706e-11        00000 
 2.57190e-11 -5.49107e-11        00000 
-2.73246e-10  3.72196e-10        00000 
-2.75946e-10  2.38870e-10        00000 
 3.76843e-10  6.99089e-10        00000 
 2.03329e-10  9.21005e-10        00000 
 1.49129e-10  8.49028e-10        00000 
-1.88692e-10  1.96081e-10        00000 
-4.14815e-10  4.12697e-10        00000 
-3.99865e-10  7.53175e-11        00000 
-4.80344e-10 -4.67026e-10        00000 
 1.32331e-10  1.15108e-11        00000 
-6.38352e-11 -2.31424e-10        00000 
-4.28145e-10  3.20597e-11        00000 
-4.69356e-10 -7.96661e-11        00000 
-1.21986e-10 -5.73735e-10        00000 
-7.90635e-10  3.09939e-11        00000 
-5.74460e-10  4.34952e-10        00000 
-3.11502e-10  4.95163e-10        00000 
 3.84585e-10  8.51401e-10        00000 
 2.23281e-10  6.10925e-11        00000 
-4.46676e-10  2.00487e-10        00000 
-1.08969e-10 -6.73595e-12        00000 
-3.26281e-11 -2.32760e-10        00000 
-3.92617e-10 -3.16490e-10        00000 
-5.07953e-10 -3.48734e-11        00000 
 3.59819e-11 -4.35875e-10        00000 
-6.46821e-10 -9.25780e-10        00000 
-2.97724e-26  2.26754e-26        00000 
-8.05528e-10 -7.08891e-10        00000 
-5.49697e-10  1.14247e-10        00000 
-4.66683e-26 -1.24508e-25        00000 
 1.82992e-10  1.62572e-10        00000 
 1.44941e-10  3.22573e-10        00000 
 7.27014e-26  3.63507e-26        00000 
-2.32910e-10  5.09923e-11        00000 
 2.97611e-10  4.02013e-10        00000 
-2.93507e-26  2.07314e-26        00000 
 1.63844e-10 -2.65307e-10        00000 
-4.56656e-10  3.13676e-10        00000 
-4.36209e-26 -2.90806e-26        00000 
-2.85796e-10 -2.68948e-10        00000 
-2.87517e-10 -3.75786e-10        00000 
-5.98822e-26  3.16622e-26        00000 
-2.03410e-10 -4.20167e-10        00000 
-5.48703e-10  4.05260e-11        00000 
-2.72630e-26 -2.90806e-26        00000 
 3.01497e-11  2.61119e-10        00000 
 2.39631e-10 -1.82321e-11        00000 
-5.81611e-26 -7.27014e-27        00000 
 1.09716e-10  4.97069e-10        00000 
-3.96415e-10 -7.10161e-11        00000 
 1.01890e-25 -2.48771e-26        00000 
-3.75507e-10 -1.17640e-10        00000 
-2.28296e-10 -2.32244e-10        00000 
-7.23439e-11 -2.79649e-10        00000 
-7.00805e-10 -4.83482e-10        00000 
-3.43629e-10 -2.12806e-10        00000 
-7.13772e-10 -6.76770e-10        00000 
-4.38252e-10  3.49084e-10        00000 
-4.87539e-11  1.25077e-10        00000 
-8.09743e-11  3.47851e-10        00000 
-5.99734e-11  1.81341e-10        00000 
 1.53936e-10  2.77363e-10        00000 
-8.96900e-11  8.13579e-10        00000 
 3.21428e-10  2.15905e-10        00000 
-1.75586e-10  1.42897e-10        00000 
-3.98591e-10  3.31556e-10        00000 
 1.95890e-10  1.70411e-10        00000 
-3.23812e-10  2.29101e-10        00000 
-6.79740e-10 -7.33491e-11        00000 
-1.35572e-10  2.35812e-10        00000 
-5.49356e-11 -2.88599e-10        00000 
-2.33001e-10  1.93244e-10        00000 
-2.41222e-10  2.38748e-10        00000 
-2.84317e-10 -3.61238e-10        00000 
-4.16491e-10 -2.03424e-10        00000 
-1.44958e-10  6.24793e-10        00000 
 2.17170e-10  2.26802e-10        00000 
-6.81448e-10  5.70544e-10        00000 
 1.44293e-10 -5.74335e-10        00000 
-1.69042e-10  1.66956e-09        00000 
-5.58487e-10 -3.40657e-10        00000 
-4.88342e-10 -6.69019e-10        00000 
-2.42423e-10  4.16453e-10        00000 
-1.01451e-09 -3.85690e-10        00000 
 1.01863e-10  2.93895e-10        00000 
 7.99162e-10  4.28305e-10        00000 
-2.37023e-10 -4.93117e-11        00000 
-1.13502e-10  3.25343e-10        00000 
-3.05882e-10 -5.93422e-10        00000 
-7.44151e-10  3.32427e-11        00000 
 1.68043e-11  1.97334e-10        00000 
-3.65375e-10 -1.52381e-10        00000 
-2.77957e-10 -3.53531e-10        00000 
 6.13781e-10  5.12147e-10        00000 
 4.28216e-10 -4.79741e-11        00000 
-1.55012e-10 -3.12973e-10        00000 
 2.13255e-10 -5.22267e-11        00000 
-3.63372e-10  9.31113e-11        00000 
-7.01625e-11 -5.97026e-10        00000 
-5.63112e-10 -1.18577e-10        00000 
-4.06608e-10  2.04377e-10        00000 
-3.00830e-10 -8.62652e-11        00000 
 2.24880e-10  5.26615e-10        00000 
-2.18279e-11 -4.26184e-11        00000 
-7.49480e-11 -1.60060e-10        00000 
-3.03253e-10 -7.68132e-11        00000 
-4.24386e-10 -2.69438e-10        00000 
-3.05270e-10 -8.07407e-10        00000 
 7.92824e-11 -2.40695e-09        00000 
-4.43094e-10  6.92438e-10        00000 
-3.05675e-11 -5.77174e-11        00000 
 3.48109e-10  2.35943e-10        00000 
 1.81700e-10  4.49592e-10        00000 
 3.91871e-10  3.78435e-10        00000 
-9.87228e-11  6.35119e-11        00000 
-1.28850e-10 -3.26075e-10        00000 
-6.99693e-10 -2.34170e-10        00000 
 1.70814e-11 -2.44064e-10        00000 
-1.22597e-10 -4.84743e-10        00000 
 2.64762e-10 -5.21904e-10        00000 
-2.20993e-10  6.61334e-10        00000 
-2.06313e-10  7.12532e-10        00000 
 1.67482e-10 -3.79796e-10        00000 
-2.07422e-10 -2.15113e-10        00000 
-2.65587e-10  4.49361e-10        00000 
-3.66590e-10  1.93712e-10        00000 
-7.01647e-10  5.83341e-10        00000 
-9.53889e-10  1.50184e-10        00000 
-5.91221e-10 -2.51333e-10        00000 
 1.48219e-11  6.88825e-10        00000 
 2.28368e-10  8.13571e-13        00000 
-4.52836e-10  3.44308e-10        00000 
-2.59746e-10  4.45727e-10        00000 
-2.14825e-10 -6.84054e-10        00000 
 6.89155e-10 -6.45642e-10        00000 
-2.39211e-10 -3.19460e-11        00000 
-1.88066e-10 -2.57408e-10        00000 
-3.16547e-10 -6.76962e-10        00000 
-2.91891e-11  2.83990e-10        00000 
 1.18746e-10  3.28619e-10        00000 
 4.81890e-10  7.34275e-11        00000 
-3.46645e-10 -4.66436e-10        00000 
-5.76890e-10 -3.64260e-10        00000 
-3.24789e-10  4.58300e-12        00000 
-4.35250e-10  1.90788e-10        00000 
-1.96138e-10 -2.32347e-11        00000 
-4.36899e-10 -1.19758e-10        00000 
-2.56762e-10  4.79318e-10        00000 
-6.33008e-10  3.96781e-10        00000 
-2.36753e-10 -5.33024e-10        00000 
-5.22007e-10 -3.76431e-10        00000 
-6.61231e-11  7.91260e-10        00000 
-1.70914e-10  1.88287e-10        00000 
-8.40430e-11 -2.26777e-10        00000 
-1.88777e-10  1.65649e-10        00000 
-1.18675e-10 -2.11770e-10        00000 
 5.04826e-10  4.76497e-10        00000 
 4.58698e-10  4.43826e-10        00000 
-5.25844e-10  1.93666e-10        00000 
-3.15296e-10 -7.22686e-10        00000 
-6.59185e-10  1.46639e-09        00000 
 1.39408e-10 -1.35472e-10        00000 
 2.71882e-10 -1.57399e-10        00000 
-1.16870e-10 -1.99691e-10        00000 
-3.05661e-10 -1.44667e-10        00000 
 9.65912e-10  1.30946e-10        00000 
 5.81167e-10  6.25079e-10        00000 
-3.16902e-10 -3.62405e-10        00000 
-4.30504e-10 -4.77456e-10        00000 
-5.05707e-10  1.11399e-09        00000 
 5.42570e-10  1.21275e-10        00000 
-4.60147e-11  4.49319e-10        00000 
-1.59730e-11  3.37650e-10        00000 
-1.95712e-10 -4.67324e-10        00000 
 3.15197e-10  1.01076e-09        00000 
 7.15943e-11  6.18684e-10        00000 
 1.12664e-10 -4.16584e-10        00000 
-1.91392e-10 -4.11490e-10        00000 
-3.07324e-10 -4.04867e-11        00000 
 4.56879e-11 -6.30202e-10        00000 
-1.64135e-10 -7.29088e-10        00000 
 5.59027e-10  9.04450e-11        00000 
-9.57797e-10 -1.54060e-10        00000 
 7.06990e-10 -1.15676e-10        00000 
 3.59790e-10  5.33532e-10        00000 
 1.42322e-10  6.46608e-10        00000 
 3.48024e-10 -1.25340e-11        00000 
 9.67077e-10  4.64979e-10        00000 
 6.27296e-10 -9.05374e-11        00000 
 9.54515e-10  8.32983e-10        00000 
 7.78186e-10  1.36183e-10        00000 
 4.00718e-10  2.42579e-10        00000 
 3.28981e-10  3.92646e-11        00000 
 1.84599e-10  1.03412e-10        00000 
 1.78090e-10 -5.17701e-11        00000 
 2.97007e-10  4.95760e-10        00000 
 3.79032e-10  2.25668e-11        00000 
 2.55255e-10 -4.25239e-10        00000 
 2.09610e-10 -4.56168e-11        00000 
 2.78646e-10  1.98469e-10        00000 
 2.45876e-10 -2.87464e-10        00000 
 4.35250e-10  1.53932e-10        00000 
 2.84842e-10  1.32133e-10        00000 
-8.33609e-11  4.71303e-10        00000 
-8.60609e-11 -2.33683e-10        00000 
-3.80879e-10 -4.00689e-10        00000 
-5.29013e-10  3.40378e-10        00000 
 1.16074e-10 -3.92632e-10        00000 
 3.24434e-10 -3.05405e-10        00000 
 2.90385e-10  6.86903e-10        00000 
 6.29854e-10  2.03528e-10        00000 
 2.53749e-10  8.90736e-11        00000 
 6.16751e-10  2.48654e-10        00000 
-2.82682e-10 -7.13726e-10        00000 
 5.17218e-10  1.48600e-09        00000 
 4.47699e-10  7.87949e-10        00000 
 5.41490e-10  1.66438e-10        00000 
 3.48393e-10  6.09361e-11        00000 
 3.54021e-10  5.30918e-10        00000 
 2.09695e-10  8.76810e-12        00000 
 4.68845e-10  2.08757e-11        00000 
 2.27345e-10 -7.67244e-11        00000 
 4.97693e-10 -1.26150e-10        00000 
 2.03528e-10  3.05491e-10        00000 
-8.58620e-11 -2.02860e-10        00000 
-7.90692e-11  2.27374e-13        00000 
 1.45491e-10 -1.52653e-10        00000 
-5.30804e-10  7.45899e-10        00000 
 7.15602e-10  6.40171e-10        00000 
 7.48173e-10  3.62164e-10        00000 
 6.40910e-11  3.69212e-10        00000 
 6.63391e-10 -2.84075e-10        00000 
 6.33435e-10  2.79940e-10        00000 
-9.51275e-11  3.00417e-11        00000 
 1.02514e-09  3.46020e-10        00000 
-8.64020e-11 -5.13353e-10        00000 
 6.05581e-10  1.91065e-10        00000 
 3.90827e-10 -2.31211e-10        00000 
 3.55300e-10  2.54900e-10        00000 
 3.11502e-11  6.17803e-10        00000 
 5.97765e-10 -7.92156e-10        00000 
 1.61918e-10  1.33559e-09        00000 
-1.77067e-10 -3.62760e-10        00000 
-3.06898e-10  8.33211e-10        00000 
 2.94790e-10  8.00213e-11        00000 
-3.00759e-10 -1.89758e-10        00000 
-1.79455e-10  4.00860e-10        00000 
-4.82601e-11 -1.10930e-10        00000 
-2.41357e-10 -3.66640e-10        00000 
-6.75868e-11 -4.39826e-11        00000 
 4.00803e-10  1.29461e-11        00000 
-3.81021e-10  4.93159e-10        00000 
 1.52568e-10 -1.63581e-10        00000 
-4.03759e-10  2.93596e-11        00000 
-7.05313e-10  4.67139e-10        00000 
 6.59838e-10 -1.44837e-10        00000 
 3.88809e-10 -3.30985e-10        00000 
-2.39652e-10  2.73133e-10        00000 
 4.48381e-10 -1.80265e-10        00000 
-1.28694e-10  7.81881e-11        00000 
-3.52600e-10 -8.72546e-12        00000 
-3.99496e-10  1.93594e-10        00000 
 2.25668e-11 -7.37685e-11        00000 
-2.70120e-10 -2.60613e-10        00000 
-9.79981e-11  6.91045e-10        00000 
-3.02236e-10 -1.19030e-10        00000 
-5.16138e-11 -1.89516e-10        00000 
-3.87388e-10  9.53634e-10        00000 
-6.85134e-10 -1.48930e-09        00000 
-4.11545e-10 -7.65388e-11        00000 
-1.26221e-10 -4.66940e-10        00000 
-4.77067e-10 -7.46218e-10        00000 
-7.83267e-10 -7.17094e-10        00000 
-6.60272e-12 -1.73931e-10        00000 
 9.06161e-11 -1.77419e-10        00000 
 5.15064e-10 -6.56821e-10        00000 
-1.23241e-10 -1.39785e-10        00000 
 5.90390e-11 -4.08201e-10        00000 
 1.88645e-10  1.37984e-10        00000 
 6.23679e-12  4.07719e-10        00000 
 2.82920e-11 -3.73028e-10        00000 
 1.83485e-10 -1.67980e-10        00000 
-3.39817e-11 -3.39700e-10        00000 
-1.61055e-10 -5.76077e-11        00000 
-6.80735e-11 -8.31903e-11        00000 
 1.38451e-10 -4.45432e-10        00000 
-4.46546e-10  1.13332e-09        00000 
-4.48253e-10 -2.14477e-10        00000 
-4.19906e-11  4.51053e-11        00000 
-5.74367e-10 -3.52928e-10        00000 
 3.55137e-10 -3.56522e-10        00000 
-1.39622e-12 -1.70203e-10        00000 
 2.53896e-10 -4.17941e-10        00000 
-2.13053e-10 -2.48995e-10        00000 
 3.02237e-10 -4.30674e-10        00000 
 3.67066e-10  1.94628e-10        00000 
 2.88064e-11  1.73365e-10        00000 
-3.60366e-10 -4.82387e-11        00000 
-1.65459e-10 -6.63228e-10        00000 
 1.64796e-10 -8.99693e-10        00000 
-3.00128e-10 -6.12644e-10        00000 
-1.55431e-10 -2.43654e-10        00000 
-1.62535e-10 -1.12266e-12        00000 
-1.72697e-10 -1.07853e-09        00000 
-2.86180e-10  7.83984e-10        00000 
-1.23713e-10  3.12845e-10        00000 
-2.35328e-10 -3.03828e-10        00000 
-1.07562e-10 -6.36220e-11        00000 
 9.12064e-11 -5.00052e-10        00000 
 1.91214e-10  2.77236e-10        00000 
 1.90867e-10 -3.55541e-10        00000 
 7.97939e-12  4.08331e-10        00000 
-2.00174e-10 -8.50321e-10        00000 
-8.31548e-11 -1.52355e-10        00000 
-4.85343e-10 -4.82942e-10        00000 
 1.08102e-10  6.66880e-11        00000 
 2.29147e-10  1.06141e-10        00000 
-2.41911e-10  3.61453e-11        00000 
-4.18700e-10 -6.71065e-10        00000 
-2.45095e-10  8.84590e-11        00000 
 2.20540e-10 -1.09083e-10        00000 
-1.89139e-10  7.16284e-10        00000 
 2.41804e-10 -3.62775e-10        00000 
-1.05914e-10  6.99316e-11        00000 
-2.33966e-10  1.17495e-10        00000 
-5.69472e-10 -1.97609e-10        00000 
-4.37998e-10  1.54017e-10        00000 
-1.95541e-10  8.80689e-10        00000 
 1.88558e-10  3.31113e-10        00000 
-2.30344e-10  4.86722e-10        00000 
-9.45912e-11  3.70903e-11        00000 
 2.86491e-11  7.57222e-10        00000 
-7.49069e-10  4.30958e-10        00000 
 1.69791e-10  9.74694e-10        00000 
 6.00870e-10  4.60318e-10        00000 
-1.69678e-10  4.91220e-10        00000 
-3.97032e-10  1.60867e-10        00000 
 9.65059e-11  4.68837e-10        00000 
 3.01753e-10  8.67857e-10        00000 
-5.96856e-13 -2.26237e-11        00000 
 1.14210e-09  9.62842e-10        00000 
 4.51493e-10  5.36986e-10        00000 