<?xml version="1.0" encoding="utf-8"?>
<VTKFile byte_order="LittleEndian" type="UnstructuredGrid" version="0.1">
   <UnstructuredGrid>
      <Piece NumberOfCells="1296" NumberOfPoints="685">
         <Points>
            <DataArray Name="Points" NumberOfComponents="3" format="ascii" type="Float32">
0.0000 0.0000 0.0000
0.0000 0.1111 0.0000
0.0000 0.2222 0.0000
0.0000 0.3333 0.0000
0.0000 0.4444 0.0000
0.0000 0.5556 0.0000
0.0000 0.6667 0.0000
0.0000 0.7778 0.0000
0.0000 0.8889 0.0000
0.0000 1.0000 0.0000
0.2222 0.0000 0.0000
0.2222 0.1111 0.0000
0.2222 0.2222 0.0000
0.2222 0.3333 0.0000
0.2222 0.4444 0.0000
0.2222 0.5556 0.0000
0.2222 0.6667 0.0000
0.2222 0.7778 0.0000
0.2222 0.8889 0.0000
0.2222 1.0000 0.0000
0.4444 0.0000 0.0000
0.4444 0.1111 0.0000
0.4444 0.2222 0.0000
0.4444 0.3333 0.0000
0.4444 0.4444 0.0000
0.4444 0.5556 0.0000
0.4444 0.6667 0.0000
0.4444 0.7778 0.0000
0.4444 0.8889 0.0000
0.4444 1.0000 0.0000
0.6667 0.0000 0.0000
0.6667 0.1111 0.0000
0.6667 0.2222 0.0000
0.6667 0.3333 0.0000
0.6667 0.4444 0.0000
0.6667 0.5556 0.0000
0.6667 0.6667 0.0000
0.6667 0.7778 0.0000
0.6667 0.8889 0.0000
0.6667 1.0000 0.0000
0.8889 0.0000 0.0000
0.8889 0.1111 0.0000
0.8889 0.2222 0.0000
0.8889 0.3333 0.0000
0.8889 0.4444 0.0000
0.8889 0.5556 0.0000
0.8889 0.6667 0.0000
0.8889 0.7778 0.0000
0.8889 0.8889 0.0000
0.8889 1.0000 0.0000
1.1111 0.0000 0.0000
1.1111 0.1111 0.0000
1.1111 0.2222 0.0000
1.1111 0.3333 0.0000
1.1111 0.4444 0.0000
1.1111 0.5556 0.0000
1.1111 0.6667 0.0000
1.1111 0.7778 0.0000
1.1111 0.8889 0.0000
1.1111 1.0000 0.0000
1.3333 0.0000 0.0000
1.3333 0.1111 0.0000
1.3333 0.2222 0.0000
1.3333 0.3333 0.0000
1.3333 0.4444 0.0000
1.3333 0.5556 0.0000
1.3333 0.6667 0.0000
1.3333 0.7778 0.0000
1.3333 0.8889 0.0000
1.3333 1.0000 0.0000
1.5556 0.0000 0.0000
1.5556 0.1111 0.0000
1.5556 0.2222 0.0000
1.5556 0.3333 0.0000
1.5556 0.4444 0.0000
1.5556 0.5556 0.0000
1.5556 0.6667 0.0000
1.5556 0.7778 0.0000
1.5556 0.8889 0.0000
1.5556 1.0000 0.0000
1.7778 0.0000 0.0000
1.7778 0.1111 0.0000
1.7778 0.2222 0.0000
1.7778 0.3333 0.0000
1.7778 0.4444 0.0000
1.7778 0.5556 0.0000
1.7778 0.6667 0.0000
1.7778 0.7778 0.0000
1.7778 0.8889 0.0000
1.7778 1.0000 0.0000
2.0000 0.0000 0.0000
2.0000 0.1111 0.0000
2.0000 0.2222 0.0000
2.0000 0.3333 0.0000
2.0000 0.4444 0.0000
2.0000 0.5556 0.0000
2.0000 0.6667 0.0000
2.0000 0.7778 0.0000
2.0000 0.8889 0.0000
2.0000 1.0000 0.0000
0.1111 0.0556 0.0000
0.1111 0.1667 0.0000
0.1111 0.2778 0.0000
0.1111 0.3889 0.0000
0.1111 0.5000 0.0000
0.1111 0.6111 0.0000
0.1111 0.7222 0.0000
0.1111 0.8333 0.0000
0.1111 0.9444 0.0000
0.3333 0.0556 0.0000
0.3333 0.1667 0.0000
0.3333 0.2778 0.0000
0.3333 0.3889 0.0000
0.3333 0.5000 0.0000
0.3333 0.6111 0.0000
0.3333 0.7222 0.0000
0.3333 0.8333 0.0000
0.3333 0.9444 0.0000
0.5556 0.0556 0.0000
0.5556 0.1667 0.0000
0.5556 0.2778 0.0000
0.5556 0.3889 0.0000
0.5556 0.5000 0.0000
0.5556 0.6111 0.0000
0.5556 0.7222 0.0000
0.5556 0.8333 0.0000
0.5556 0.9444 0.0000
0.7778 0.0556 0.0000
0.7778 0.1667 0.0000
0.7778 0.2778 0.0000
0.7778 0.3889 0.0000
0.7778 0.5000 0.0000
0.7778 0.6111 0.0000
0.7778 0.7222 0.0000
0.7778 0.8333 0.0000
0.7778 0.9444 0.0000
1.0000 0.0556 0.0000
1.0000 0.1667 0.0000
1.0000 0.2778 0.0000
1.0000 0.3889 0.0000
1.0000 0.5000 0.0000
1.0000 0.6111 0.0000
1.0000 0.7222 0.0000
1.0000 0.8333 0.0000
1.0000 0.9444 0.0000
1.2222 0.0556 0.0000
1.2222 0.1667 0.0000
1.2222 0.2778 0.0000
1.2222 0.3889 0.0000
1.2222 0.5000 0.0000
1.2222 0.6111 0.0000
1.2222 0.7222 0.0000
1.2222 0.8333 0.0000
1.2222 0.9444 0.0000
1.4444 0.0556 0.0000
1.4444 0.1667 0.0000
1.4444 0.2778 0.0000
1.4444 0.3889 0.0000
1.4444 0.5000 0.0000
1.4444 0.6111 0.0000
1.4444 0.7222 0.0000
1.4444 0.8333 0.0000
1.4444 0.9444 0.0000
1.6667 0.0556 0.0000
1.6667 0.1667 0.0000
1.6667 0.2778 0.0000
1.6667 0.3889 0.0000
1.6667 0.5000 0.0000
1.6667 0.6111 0.0000
1.6667 0.7222 0.0000
1.6667 0.8333 0.0000
1.6667 0.9444 0.0000
1.8889 0.0556 0.0000
1.8889 0.1667 0.0000
1.8889 0.2778 0.0000
1.8889 0.3889 0.0000
1.8889 0.5000 0.0000
1.8889 0.6111 0.0000
1.8889 0.7222 0.0000
1.8889 0.8333 0.0000
1.8889 0.9444 0.0000
0.0000 0.0556 0.0000
0.0556 0.0278 0.0000
0.0556 0.0833 0.0000
0.0000 0.1667 0.0000
0.0556 0.1389 0.0000
0.0556 0.1944 0.0000
0.0000 0.2778 0.0000
0.0556 0.2500 0.0000
0.0556 0.3056 0.0000
0.0000 0.3889 0.0000
0.0556 0.3611 0.0000
0.0556 0.4167 0.0000
0.0000 0.5000 0.0000
0.0556 0.4722 0.0000
0.0556 0.5278 0.0000
0.0000 0.6111 0.0000
0.0556 0.5833 0.0000
0.0556 0.6389 0.0000
0.0000 0.7222 0.0000
0.0556 0.6944 0.0000
0.0556 0.7500 0.0000
0.0000 0.8333 0.0000
0.0556 0.8056 0.0000
0.0556 0.8611 0.0000
0.0000 0.9444 0.0000
0.0556 0.9167 0.0000
0.0556 0.9722 0.0000
0.2222 0.0556 0.0000
0.2778 0.0278 0.0000
0.2778 0.0833 0.0000
0.2222 0.1667 0.0000
0.2778 0.1389 0.0000
0.2778 0.1944 0.0000
0.2222 0.2778 0.0000
0.2778 0.2500 0.0000
0.2778 0.3056 0.0000
0.2222 0.3889 0.0000
0.2778 0.3611 0.0000
0.2778 0.4167 0.0000
0.2222 0.5000 0.0000
0.2778 0.4722 0.0000
0.2778 0.5278 0.0000
0.2222 0.6111 0.0000
0.2778 0.5833 0.0000
0.2778 0.6389 0.0000
0.2222 0.7222 0.0000
0.2778 0.6944 0.0000
0.2778 0.7500 0.0000
0.2222 0.8333 0.0000
0.2778 0.8056 0.0000
0.2778 0.8611 0.0000
0.2222 0.9444 0.0000
0.2778 0.9167 0.0000
0.2778 0.9722 0.0000
0.4444 0.0556 0.0000
0.5000 0.0278 0.0000
0.5000 0.0833 0.0000
0.4444 0.1667 0.0000
0.5000 0.1389 0.0000
0.5000 0.1944 0.0000
0.4444 0.2778 0.0000
0.5000 0.2500 0.0000
0.5000 0.3056 0.0000
0.4444 0.3889 0.0000
0.5000 0.3611 0.0000
0.5000 0.4167 0.0000
0.4444 0.5000 0.0000
0.5000 0.4722 0.0000
0.5000 0.5278 0.0000
0.4444 0.6111 0.0000
0.5000 0.5833 0.0000
0.5000 0.6389 0.0000
0.4444 0.7222 0.0000
0.5000 0.6944 0.0000
0.5000 0.7500 0.0000
0.4444 0.8333 0.0000
0.5000 0.8056 0.0000
0.5000 0.8611 0.0000
0.4444 0.9444 0.0000
0.5000 0.9167 0.0000
0.5000 0.9722 0.0000
0.6667 0.0556 0.0000
0.7222 0.0278 0.0000
0.7222 0.0833 0.0000
0.6667 0.1667 0.0000
0.7222 0.1389 0.0000
0.7222 0.1944 0.0000
0.6667 0.2778 0.0000
0.7222 0.2500 0.0000
0.7222 0.3056 0.0000
0.6667 0.3889 0.0000
0.7222 0.3611 0.0000
0.7222 0.4167 0.0000
0.6667 0.5000 0.0000
0.7222 0.4722 0.0000
0.7222 0.5278 0.0000
0.6667 0.6111 0.0000
0.7222 0.5833 0.0000
0.7222 0.6389 0.0000
0.6667 0.7222 0.0000
0.7222 0.6944 0.0000
0.7222 0.7500 0.0000
0.6667 0.8333 0.0000
0.7222 0.8056 0.0000
0.7222 0.8611 0.0000
0.6667 0.9444 0.0000
0.7222 0.9167 0.0000
0.7222 0.9722 0.0000
0.8889 0.0556 0.0000
0.9444 0.0278 0.0000
0.9444 0.0833 0.0000
0.8889 0.1667 0.0000
0.9444 0.1389 0.0000
0.9444 0.1944 0.0000
0.8889 0.2778 0.0000
0.9444 0.2500 0.0000
0.9444 0.3056 0.0000
0.8889 0.3889 0.0000
0.9444 0.3611 0.0000
0.9444 0.4167 0.0000
0.8889 0.5000 0.0000
0.9444 0.4722 0.0000
0.9444 0.5278 0.0000
0.8889 0.6111 0.0000
0.9444 0.5833 0.0000
0.9444 0.6389 0.0000
0.8889 0.7222 0.0000
0.9444 0.6944 0.0000
0.9444 0.7500 0.0000
0.8889 0.8333 0.0000
0.9444 0.8056 0.0000
0.9444 0.8611 0.0000
0.8889 0.9444 0.0000
0.9444 0.9167 0.0000
0.9444 0.9722 0.0000
1.1111 0.0556 0.0000
1.1667 0.0278 0.0000
1.1667 0.0833 0.0000
1.1111 0.1667 0.0000
1.1667 0.1389 0.0000
1.1667 0.1944 0.0000
1.1111 0.2778 0.0000
1.1667 0.2500 0.0000
1.1667 0.3056 0.0000
1.1111 0.3889 0.0000
1.1667 0.3611 0.0000
1.1667 0.4167 0.0000
1.1111 0.5000 0.0000
1.1667 0.4722 0.0000
1.1667 0.5278 0.0000
1.1111 0.6111 0.0000
1.1667 0.5833 0.0000
1.1667 0.6389 0.0000
1.1111 0.7222 0.0000
1.1667 0.6944 0.0000
1.1667 0.7500 0.0000
1.1111 0.8333 0.0000
1.1667 0.8056 0.0000
1.1667 0.8611 0.0000
1.1111 0.9444 0.0000
1.1667 0.9167 0.0000
1.1667 0.9722 0.0000
1.3333 0.0556 0.0000
1.3889 0.0278 0.0000
1.3889 0.0833 0.0000
1.3333 0.1667 0.0000
1.3889 0.1389 0.0000
1.3889 0.1944 0.0000
1.3333 0.2778 0.0000
1.3889 0.2500 0.0000
1.3889 0.3056 0.0000
1.3333 0.3889 0.0000
1.3889 0.3611 0.0000
1.3889 0.4167 0.0000
1.3333 0.5000 0.0000
1.3889 0.4722 0.0000
1.3889 0.5278 0.0000
1.3333 0.6111 0.0000
1.3889 0.5833 0.0000
1.3889 0.6389 0.0000
1.3333 0.7222 0.0000
1.3889 0.6944 0.0000
1.3889 0.7500 0.0000
1.3333 0.8333 0.0000
1.3889 0.8056 0.0000
1.3889 0.8611 0.0000
1.3333 0.9444 0.0000
1.3889 0.9167 0.0000
1.3889 0.9722 0.0000
1.5556 0.0556 0.0000
1.6111 0.0278 0.0000
1.6111 0.0833 0.0000
1.5556 0.1667 0.0000
1.6111 0.1389 0.0000
1.6111 0.1944 0.0000
1.5556 0.2778 0.0000
1.6111 0.2500 0.0000
1.6111 0.3056 0.0000
1.5556 0.3889 0.0000
1.6111 0.3611 0.0000
1.6111 0.4167 0.0000
1.5556 0.5000 0.0000
1.6111 0.4722 0.0000
1.6111 0.5278 0.0000
1.5556 0.6111 0.0000
1.6111 0.5833 0.0000
1.6111 0.6389 0.0000
1.5556 0.7222 0.0000
1.6111 0.6944 0.0000
1.6111 0.7500 0.0000
1.5556 0.8333 0.0000
1.6111 0.8056 0.0000
1.6111 0.8611 0.0000
1.5556 0.9444 0.0000
1.6111 0.9167 0.0000
1.6111 0.9722 0.0000
1.7778 0.0556 0.0000
1.8333 0.0278 0.0000
1.8333 0.0833 0.0000
1.7778 0.1667 0.0000
1.8333 0.1389 0.0000
1.8333 0.1944 0.0000
1.7778 0.2778 0.0000
1.8333 0.2500 0.0000
1.8333 0.3056 0.0000
1.7778 0.3889 0.0000
1.8333 0.3611 0.0000
1.8333 0.4167 0.0000
1.7778 0.5000 0.0000
1.8333 0.4722 0.0000
1.8333 0.5278 0.0000
1.7778 0.6111 0.0000
1.8333 0.5833 0.0000
1.8333 0.6389 0.0000
1.7778 0.7222 0.0000
1.8333 0.6944 0.0000
1.8333 0.7500 0.0000
1.7778 0.8333 0.0000
1.8333 0.8056 0.0000
1.8333 0.8611 0.0000
1.7778 0.9444 0.0000
1.8333 0.9167 0.0000
1.8333 0.9722 0.0000
0.1111 0.1111 0.0000
0.1667 0.0833 0.0000
0.1111 0.2222 0.0000
0.1667 0.1944 0.0000
0.1111 0.3333 0.0000
0.1667 0.3056 0.0000
0.1111 0.4444 0.0000
0.1667 0.4167 0.0000
0.1111 0.5556 0.0000
0.1667 0.5278 0.0000
0.1111 0.6667 0.0000
0.1667 0.6389 0.0000
0.1111 0.7778 0.0000
0.1667 0.7500 0.0000
0.1111 0.8889 0.0000
0.1667 0.8611 0.0000
0.1111 1.0000 0.0000
0.1667 0.9722 0.0000
0.3333 0.1111 0.0000
0.3889 0.0833 0.0000
0.3333 0.2222 0.0000
0.3889 0.1944 0.0000
0.3333 0.3333 0.0000
0.3889 0.3056 0.0000
0.3333 0.4444 0.0000
0.3889 0.4167 0.0000
0.3333 0.5556 0.0000
0.3889 0.5278 0.0000
0.3333 0.6667 0.0000
0.3889 0.6389 0.0000
0.3333 0.7778 0.0000
0.3889 0.7500 0.0000
0.3333 0.8889 0.0000
0.3889 0.8611 0.0000
0.3333 1.0000 0.0000
0.3889 0.9722 0.0000
0.5556 0.1111 0.0000
[...]
         <PointData>
            <DataArray Name="fValues" NumberOfComponents="3" format="ascii" type="Float64">
-5.47066e-23 -9.11777e-23        00000 
-4.62425e-23 -2.37362e-23        00000 
 9.83677e-24  2.18868e-23        00000 
 1.88131e-22 -1.46977e-22        00000 
 5.63138e-23  5.16433e-24        00000 
-3.13552e-23  1.88131e-22        00000 
-5.31179e-23 -1.65256e-22        00000 
 2.34951e-23  7.83170e-24        00000 
-1.25967e-22  9.44754e-23        00000 
       00000  5.47066e-23        00000 
-3.41549e-07  3.01043e-06        00000 
-3.31921e-07  1.89636e-06        00000 
 1.19944e-06 -8.13635e-07        00000 
 8.50242e-08 -5.53113e-07        00000 
 6.72499e-08 -2.42258e-06        00000 
-3.94782e-08  9.00034e-07        00000 
 4.82341e-07  3.88131e-07        00000 
 1.29137e-06  7.14460e-07        00000 
 3.36250e-08 -1.44776e-07        00000 
 4.52476e-07  1.20721e-06        00000 
-3.30912e-07  3.56052e-06        00000 
 1.37875e-06  9.88670e-07        00000 
-2.00853e-07 -3.48016e-07        00000 
-2.90212e-06 -1.92479e-06        00000 
 7.65134e-07 -1.02816e-06        00000 
 5.19413e-07 -1.17947e-06        00000 
 3.97487e-07  1.03061e-06        00000 
 5.08166e-07 -7.19471e-07        00000 
 1.32643e-07  1.00180e-06        00000 
 1.45498e-06  2.66061e-06        00000 
 5.27925e-07  3.68555e-07        00000 
 3.14600e-07  4.71877e-07        00000 
 9.13286e-07  1.06479e-06        00000 
-2.09227e-06 -4.78236e-07        00000 
 1.41429e-06 -5.53347e-07        00000 
 1.43435e-06  6.21530e-07        00000 
-2.01493e-07  1.73779e-06        00000 
-1.18116e-06 -4.99483e-07        00000 
-1.27108e-07 -7.57010e-07        00000 
-7.09389e-07 -1.24968e-07        00000 
-1.81194e-06  3.64522e-07        00000 
 1.15497e-06  2.40154e-06        00000 
-3.00362e-07  6.53842e-08        00000 
-1.23842e-06 -6.68702e-07        00000 
-1.48373e-07  6.73884e-07        00000 
-1.87616e-06 -7.25785e-07        00000 
-1.32405e-06  1.32317e-06        00000 
-1.17681e-06 -2.09777e-07        00000 
-1.98549e-06 -9.37392e-07        00000 
-2.57239e-06  2.41124e-07        00000 
 1.32466e-06 -2.87394e-06        00000 
-1.03450e-06 -5.60310e-07        00000 
 3.09730e-07  1.48265e-07        00000 
-2.92366e-07  2.01993e-07        00000 
-3.90890e-07 -2.69561e-07        00000 
-1.98249e-07  3.88677e-07        00000 
-1.10918e-06  7.85985e-07        00000 
-8.39554e-07  7.54274e-07        00000 
-1.43138e-06  2.98821e-07        00000 
-1.72708e-06  3.81136e-06        00000 
 4.24399e-07 -1.00549e-06        00000 
-1.27138e-06  9.90689e-08        00000 
-3.69884e-07 -6.28437e-07        00000 
 6.09915e-07  1.50688e-06        00000 
 9.54307e-07  1.31497e-06        00000 
-2.30892e-07  2.57211e-07        00000 
-3.24514e-08  5.78703e-07        00000 
-1.65552e-06 -8.06791e-08        00000 
-1.58641e-06  8.50719e-07        00000 
 5.90581e-07  5.35493e-06        00000 
-1.76532e-06 -2.47771e-06        00000 
 5.28611e-07 -4.30101e-07        00000 
-3.71082e-07 -4.32420e-07        00000 
-3.26407e-07 -7.12162e-07        00000 
-3.85744e-07  6.78703e-07        00000 
-6.59243e-07  3.23299e-07        00000 
-9.66578e-07  1.13301e-06        00000 
-3.03285e-07  1.74364e-06        00000 
 3.15426e-07  1.97138e-07        00000 
-9.85760e-07 -9.07836e-07        00000 
-5.78527e-08 -1.93744e-06        00000 
-5.65158e-07 -3.16340e-07        00000 
-1.55277e-06  6.76206e-08        00000 
-3.26500e-07 -1.26810e-08        00000 
-1.50399e-06 -8.45435e-07        00000 
-9.87513e-07 -1.78291e-07        00000 
-1.65607e-06  2.54169e-07        00000 
-1.26306e-06  1.60972e-06        00000 
-2.00178e-06  2.13453e-06        00000 
-1.05224e-06 -7.25894e-07        00000 
-2.13176e-07  1.19252e-06        00000 
 4.49746e-07  4.45523e-07        00000 
 1.21335e-06 -7.66332e-08        00000 
 3.93693e-07  1.94940e-08        00000 
 1.02403e-06 -8.83609e-07        00000 
-2.12785e-07 -1.80904e-08        00000 
-2.03027e-07  1.38002e-06        00000 
-6.58505e-07  4.98342e-07        00000 
 6.89332e-07 -4.09101e-07        00000 
-1.76153e-06  5.17831e-07        00000 
 6.47176e-08 -5.20754e-07        00000 
 4.40101e-07 -3.67618e-08        00000 
 1.19872e-06 -4.82702e-08        00000 
 1.96878e-08  1.42511e-06        00000 
-3.02047e-07  7.21305e-07        00000 
-5.91929e-07  1.76826e-07        00000 
-4.88771e-07  6.21474e-07        00000 
-3.81631e-07  9.78602e-07        00000 
 9.86914e-07 -2.70769e-08        00000 
-8.92515e-07 -1.30113e-06        00000 
 1.20631e-06  5.79972e-07        00000 
 8.49200e-07 -2.15051e-07        00000 
 5.34089e-07 -9.56543e-09        00000 
 4.35755e-07 -1.94983e-07        00000 
-1.93158e-07  7.22475e-07        00000 
 6.82283e-07  7.48949e-07        00000 
-5.29104e-07 -3.56949e-07        00000 
-1.57388e-07 -5.39515e-07        00000 
 1.06347e-06 -9.70454e-08        00000 
 3.60590e-08 -1.08720e-07        00000 
-7.32184e-07  6.96449e-10        00000 
-1.07469e-07 -5.80650e-07        00000 
-3.15920e-07  9.94210e-07        00000 
 2.19797e-06  3.19909e-07        00000 
 1.51521e-06 -1.59694e-06        00000 
 1.06332e-06 -7.08614e-07        00000 
 8.70714e-07 -1.36355e-06        00000 
-1.02268e-06 -3.49554e-07        00000 
 1.08196e-06  1.94262e-06        00000 
 2.56067e-07  1.03200e-06        00000 
 1.26495e-06  1.45990e-06        00000 
-8.66614e-07  1.15938e-06        00000 
 1.48807e-06  1.87278e-06        00000 
 2.31003e-06  1.02446e-06        00000 
 1.21955e-07 -4.97483e-07        00000 
-9.23890e-08 -1.44961e-07        00000 
 1.85116e-07  1.16760e-06        00000 
 2.67431e-06  1.91442e-06        00000 
 3.09268e-07  5.69231e-07        00000 
 6.81318e-07 -5.21664e-07        00000 
 8.21484e-07  1.36030e-06        00000 
 2.70832e-06  2.84826e-06        00000 
 9.29852e-07  1.96821e-06        00000 
 2.85743e-07  1.15045e-06        00000 
 2.93039e-07  5.29828e-07        00000 
-7.33510e-07  7.18198e-07        00000 
-4.58998e-07 -1.06719e-06        00000 
 8.51348e-07 -3.72070e-07        00000 
 1.17499e-06 -1.59414e-07        00000 
 5.92959e-07  1.13774e-06        00000 
 4.54968e-08  9.38337e-07        00000 
-1.62432e-06  4.32025e-07        00000 
-2.95451e-07  1.89805e-07        00000 
-1.00543e-06 -2.04853e-06        00000 
 9.32704e-07 -4.54844e-07        00000 
-1.96579e-06 -1.55165e-06        00000 
-3.35798e-07 -3.97500e-07        00000 
 5.93189e-07  1.73160e-08        00000 
-6.05918e-07  4.42153e-07        00000 
-2.30120e-06  4.43649e-07        00000 
-9.98721e-07 -3.81677e-07        00000 
-1.47184e-06  8.49710e-07        00000 
-1.47143e-06 -5.92540e-07        00000 
-3.53108e-07  1.96556e-06        00000 
 2.10902e-07  4.59973e-07        00000 
-5.63970e-07  1.56034e-06        00000 
-8.80827e-07  9.89646e-07        00000 
 5.12022e-07  1.20031e-06        00000 
-1.42864e-06  1.05098e-06        00000 
 1.31138e-07  1.55221e-06        00000 
 7.08442e-07  1.30076e-06        00000 
-1.89111e-07  2.18353e-06        00000 
-1.78923e-07  7.53276e-07        00000 
 3.24726e-07  2.46065e-06        00000 
 6.65123e-07  1.53406e-06        00000 
 4.52821e-07  1.93421e-06        00000 
-5.00598e-07  1.79121e-06        00000 
-1.60999e-06  8.83483e-07        00000 
-2.33038e-07  2.07739e-06        00000 
-4.63422e-09  2.21683e-06        00000 
 3.78204e-07  7.81794e-07        00000 
 1.48370e-22  2.45361e-22        00000 
 4.09475e-08 -1.39259e-06        00000 
 8.32565e-07  2.50922e-07        00000 
-6.11965e-23  2.61307e-23        00000 
 1.20629e-06 -5.05606e-07        00000 
-4.44699e-08  1.55478e-07        00000 
 1.04225e-22 -2.97785e-23        00000 
 2.35620e-07  2.84145e-07        00000 
 1.01621e-06 -6.96820e-07        00000 
 6.50606e-23  1.92700e-22        00000 
 1.06050e-07 -5.37214e-08        00000 
 8.55737e-07  1.55435e-06        00000 
 1.19114e-22  2.97785e-23        00000 
 1.57337e-06 -3.08680e-07        00000 
-1.58780e-07  7.85578e-07        00000 
 6.84100e-23 -9.15714e-23        00000 
 1.46375e-07 -7.63778e-07        00000 
-1.38215e-06 -3.29393e-07        00000 
 4.46678e-23 -2.97785e-23        00000 
 2.77992e-07  5.38420e-07        00000 
-8.90810e-08 -5.28542e-07        00000 
-5.95570e-23  2.97785e-23        00000 
-5.99358e-07 -5.04204e-07        00000 
-6.88535e-07  6.34221e-07        00000 
 2.29031e-23 -1.18261e-22        00000 
-6.53996e-07 -8.77403e-08        00000 
-1.38163e-07 -9.29404e-07        00000 
-1.22169e-06 -1.14391e-07        00000 
 7.55454e-07 -2.99206e-06        00000 
 1.01085e-07  9.66184e-07        00000 
 4.19757e-07 -1.08465e-06        00000 
 7.10786e-07  9.42983e-07        00000 
-1.16365e-06 -6.58192e-07        00000 
 5.65200e-07 -1.38521e-06        00000 
 8.07832e-07  1.33318e-06        00000 
 1.94722e-06 -6.36539e-07        00000 
 9.86831e-07  8.92864e-07        00000 
 2.31739e-06 -1.40170e-06        00000 
 5.67742e-07 -1.49669e-06        00000 
-1.09533e-07 -6.25056e-08        00000 
 3.99156e-07 -2.48325e-07        00000 
 9.30906e-07  6.49118e-07        00000 
-2.85369e-07  1.07818e-06        00000 
 1.05197e-06 -5.58093e-07        00000 
 5.55872e-07 -4.04401e-07        00000 
 5.92523e-07 -1.07896e-06        00000 
 1.23650e-06 -2.25482e-07        00000 
 1.33762e-06  1.28561e-06        00000 
 1.10028e-07  2.87900e-07        00000 
 1.53010e-06  6.90059e-07        00000 
-7.15435e-07 -1.61350e-06        00000 
 7.23866e-07  9.33394e-07        00000 
 5.27669e-07  7.90153e-07        00000 
 6.41617e-07 -1.28491e-06        00000 
 1.05778e-06 -5.37897e-07        00000 
 1.99339e-06 -2.15344e-06        00000 
 1.77654e-06  1.01347e-06        00000 
 5.65809e-07 -1.10005e-06        00000 
-2.84551e-07 -2.85704e-07        00000 
-1.01422e-06 -4.22805e-07        00000 
-1.45512e-06  6.01182e-07        00000 
-1.26571e-07  2.91787e-07        00000 
 3.99520e-07 -3.34932e-07        00000 
 5.73709e-07  3.80552e-07        00000 
 7.40158e-07 -1.00561e-06        00000 
-3.28213e-07 -7.10685e-07        00000 
-1.46794e-07  4.26378e-07        00000 
-2.43051e-06 -1.25834e-06        00000 
-2.93767e-07 -2.62412e-07        00000 
-2.56640e-07 -3.95006e-07        00000 
-3.39658e-07 -1.04250e-06        00000 
 5.00640e-07  1.03220e-06        00000 
-3.30018e-07 -1.47126e-06        00000 
-6.99134e-07 -2.49318e-06        00000 
-1.29741e-06 -1.07882e-06        00000 
-2.50574e-07 -6.55233e-07        00000 
 4.86946e-07  3.97979e-07        00000 
 4.64842e-07  7.73996e-07        00000 
-8.38470e-07  2.57692e-06        00000 
 1.45206e-06  1.18956e-06        00000 
 1.50751e-06 -1.90089e-06        00000 
-5.15316e-07  4.93375e-07        00000 
 1.39828e-08  1.03413e-06        00000 
 1.10733e-06 -3.47257e-07        00000 
 1.00152e-07 -1.09736e-07        00000 
 4.68121e-07  7.54236e-07        00000 
 2.13601e-06  1.64025e-06        00000 
-1.29361e-06 -5.45786e-07        00000 
 8.23065e-07  9.57589e-07        00000 
 7.64648e-07  4.56035e-07        00000 
 5.61272e-07  9.97606e-07        00000 
 8.78986e-07  1.75500e-06        00000 
 4.44104e-07  7.51634e-08        00000 
-7.52028e-07  5.34844e-07        00000 
 6.39995e-07  2.36021e-06        00000 
-9.16405e-08  5.80945e-07        00000 
-1.38829e-06  8.43761e-07        00000 
-2.36756e-07 -2.99151e-07        00000 
 3.11218e-12  1.11565e-06        00000 
-1.44137e-06 -3.47370e-07        00000 
 2.25487e-07  9.79277e-07        00000 
-5.66404e-07 -2.86581e-08        00000 
-9.75868e-07 -2.91494e-07        00000 
-5.12728e-07  7.60941e-07        00000 
-2.15340e-07  5.37969e-07        00000 
-1.20836e-06  9.09597e-07        00000 
 2.15407e-06 -4.97494e-07        00000 
 2.49104e-06  1.63646e-06        00000 
-2.99822e-06 -1.94645e-06        00000 
 2.91221e-07 -2.09720e-06        00000 
-1.39601e-06  1.99700e-06        00000 
 9.64059e-07  7.72333e-07        00000 
 1.95967e-07  7.12738e-07        00000 
-1.52300e-06  1.33784e-06        00000 
 2.90976e-07  3.35299e-07        00000 
 1.69506e-07  9.58231e-07        00000 
 5.67727e-07 -1.87994e-07        00000 
 4.34738e-08  9.14817e-07        00000 
 1.30517e-06 -2.75414e-08        00000 
-2.10598e-06 -1.28260e-06        00000 
-1.43152e-06  1.54522e-07        00000 
-1.08808e-07  6.25728e-07        00000 
-1.11371e-06 -7.01677e-07        00000 
-3.73252e-07  6.80530e-08        00000 
 1.93191e-07  4.34013e-08        00000 
 2.50474e-06  1.05125e-06        00000 
 6.39550e-08 -8.17936e-08        00000 
 1.15193e-06  7.69795e-07        00000 
 1.70530e-06  1.84253e-06        00000 
-2.44814e-07  3.35860e-07        00000 
-2.32364e-07  1.69515e-07        00000 
 6.23619e-07 -6.93923e-07        00000 
 2.62512e-07  1.00493e-06        00000 
 6.96339e-07  3.17135e-07        00000 
 3.87554e-07  1.45773e-06        00000 
-6.55206e-07  9.86064e-07        00000 
 1.12286e-06  2.92581e-06        00000 
-9.20870e-08 -1.75781e-06        00000 
 7.42732e-07 -6.20883e-08        00000 
-3.29402e-07  4.42026e-07        00000 
-2.80220e-07  1.73087e-07        00000 
 5.74645e-07  2.31329e-07        00000 
-1.71911e-07  9.52535e-07        00000 
 4.88720e-07  2.05927e-07        00000 
-6.47020e-08  3.27495e-07        00000 
 2.74570e-07  1.21380e-07        00000 
 3.46251e-08 -1.52321e-06        00000 
-9.00174e-07 -4.35973e-07        00000 
 2.56911e-07  1.74054e-07        00000 
 4.80833e-07 -6.21335e-08        00000 
 3.74046e-07  5.16045e-07        00000 
 5.01903e-07  4.82242e-07        00000 
 8.76865e-07  8.11558e-07        00000 
-2.19091e-07  3.46666e-07        00000 
-7.83041e-07  3.12441e-07        00000 
-1.04317e-06  2.34354e-07        00000 
-5.46900e-08  5.94624e-07        00000 
-9.71790e-07  1.51565e-07        00000 
 3.82277e-07  2.32185e-07        00000 
-6.17663e-07  8.50714e-07        00000 
-3.87553e-07  1.79509e-06        00000 
-2.39575e-07 -3.64966e-06        00000 
-1.18381e-06  1.27943e-06        00000 
 9.31469e-07  2.94095e-06        00000 
-3.18885e-07  1.14985e-07        00000 
-1.36789e-06  1.44669e-06        00000 
-1.61951e-07 -5.34447e-07        00000 
 1.55671e-07  1.29851e-06        00000 
-1.49887e-06  4.73394e-07        00000 
 8.57394e-08 -8.43868e-07        00000 
-2.48159e-07  1.51399e-06        00000 
-1.55119e-06 -1.78202e-06        00000 
 1.25953e-06  7.76203e-07        00000 
 4.77455e-07  1.24724e-06        00000 
-1.15352e-06  1.36706e-07        00000 
 1.62939e-06  1.07800e-06        00000 
 6.58200e-07 -8.61196e-07        00000 
-1.12032e-06  1.66527e-07        00000 
 6.53870e-08  2.85288e-06        00000 
 1.29145e-06  3.88865e-07        00000 
-1.72907e-06  1.28840e-06        00000 
 5.34679e-07  2.73969e-06        00000 
-1.86564e-06  9.13188e-08        00000 
-3.04389e-06  1.47298e-06        00000 
 1.34786e-07  3.77448e-07        00000 
 5.12020e-07  1.20224e-06        00000 
-1.30256e-06 -4.64581e-07        00000 
 1.27993e-06  1.49954e-06        00000 
-1.65470e-07 -3.29414e-06        00000 
 1.34878e-06  1.43989e-06        00000 
-2.19644e-07  3.96276e-06        00000 
-5.67314e-07 -1.33017e-06        00000 
 1.81639e-06  3.38351e-07        00000 
-4.84447e-07  1.86466e-06        00000 
-1.52370e-07  1.96793e-07        00000 
 1.47541e-06  1.18498e-06        00000 
-1.58848e-06 -1.40851e-07        00000 
 3.40725e-07  7.63829e-07        00000 
 7.64477e-07  4.25364e-07        00000 
 5.36425e-07  3.20901e-07        00000 
-5.12019e-07  1.37488e-06        00000 
-4.90834e-07 -3.29058e-07        00000 
-5.16004e-07 -8.00502e-07        00000 
 2.61072e-07  1.31217e-06        00000 
-8.68992e-07 -5.08470e-07        00000 
-6.43708e-08 -5.00137e-07        00000 
 1.05711e-06 -3.60319e-07        00000 
 1.04510e-06  2.33297e-06        00000 
 1.49251e-06  7.24139e-07        00000 
 2.43391e-06 -5.26213e-08        00000 
-8.87934e-07 -4.36855e-07        00000 
 1.78149e-07 -2.63771e-07        00000 
-3.73224e-07  1.12030e-06        00000 
-1.58926e-06  4.85300e-07        00000 
-6.01674e-07 -2.55963e-07        00000 
 7.46633e-07  1.64286e-06        00000 
-8.41720e-07 -1.89922e-07        00000 
 2.47211e-07  1.49791e-06        00000 
 2.39893e-06 -8.08735e-07        00000 
-1.77502e-06 -4.46981e-07        00000 
 1.66792e-06 -9.99323e-08        00000 
 1.86106e-06 -5.22122e-07        00000 
-1.30453e-06  2.66274e-07        00000 
 7.24076e-07  8.07626e-07        00000 
 6.93865e-07 -1.64527e-07        00000 
-2.81834e-07  1.48972e-07        00000 
-6.38088e-07 -8.41426e-07        00000 
 9.17648e-08 -1.82300e-07        00000 
-1.92214e-07  9.30308e-07        00000 
-8.76665e-07  5.62041e-09        00000 
 2.13858e-07  2.04400e-07        00000 
 6.81014e-08  1.08489e-06        00000 
-3.55931e-07 -1.49157e-07        00000 
 7.83858e-07  3.15288e-07        00000 
-2.38327e-07  2.69080e-06        00000 
-4.16196e-07 -3.36008e-07        00000 
 1.97471e-06  1.51102e-06        00000 
-1.20839e-06  2.04736e-06        00000 
 1.15414e-08  1.04280e-07        00000 
 2.24741e-06  1.47986e-06        00000 
-8.97334e-07  1.14585e-07        00000 
-1.26672e-08 -6.51071e-08        00000 
-7.68487e-07  4.87171e-07        00000 
-1.63447e-06 -1.08485e-08        00000 
-5.57317e-07 -8.28404e-07        00000 
 6.90874e-07 -5.99231e-07        00000 
 1.04342e-06 -1.11066e-06        00000 
 5.76757e-07  7.01156e-07        00000 
 3.14900e-07 -5.95060e-07        00000 
 1.67827e-07  7.09037e-07        00000 
 8.52201e-07  4.38976e-07        00000 
 4.40177e-07  1.01252e-06        00000 
 1.28819e-06  4.80082e-07        00000 
 8.77502e-07  1.53726e-06        00000 
 6.91671e-07  4.24881e-07        00000 
 1.12119e-06 -4.44496e-07        00000 
-2.42986e-07 -1.11644e-07        00000 
 5.32251e-07  2.71594e-07        00000 
 1.05338e-06  4.46000e-07        00000 
 1.54647e-06  5.89123e-07        00000 
 2.63270e-07 -7.45810e-08        00000 
 7.08902e-07  1.33007e-06        00000 
 1.52035e-06  1.09164e-06        00000 
 2.08080e-07  1.84001e-06        00000 
 7.86487e-07 -5.32699e-07        00000 
 5.08713e-07  2.66174e-06        00000 
 1.19611e-06  4.49052e-07        00000 
 9.50748e-07  2.03124e-06        00000 
 1.39447e-06 -9.97877e-08        00000 
 9.39117e-07  1.94248e-06        00000 
 7.46635e-07  4.32032e-07        00000 
 4.67040e-07  1.25697e-06        00000 
-3.12065e-07  9.94386e-08        00000 
 1.23924e-06  1.55001e-06        00000 
-2.06958e-07  5.56387e-07        00000 
 4.23089e-08 -7.20400e-07        00000 
-1.23718e-07 -1.07930e-06        00000 
 1.15807e-07  1.07432e-06        00000 
 1.60770e-06 -1.76707e-06        00000 
 3.40532e-07  7.30208e-07        00000 
 5.70048e-07 -3.05714e-07        00000 
 9.65581e-07 -2.47576e-07        00000 
-6.14299e-07  1.05958e-06        00000 
-6.97916e-07  1.82973e-06        00000 
 5.61616e-07  6.47577e-07        00000 
-6.70175e-07 -1.18114e-06        00000 
 1.11263e-06 -1.08511e-06        00000 
 1.27517e-06 -2.55663e-07        00000 
 1.84647e-06  1.22388e-06        00000 
 4.88964e-07 -6.44218e-07        00000 
 1.38380e-06  4.11230e-07        00000 
 1.48616e-06 -7.22654e-07        00000 
-1.13363e-09 -5.41450e-07        00000 
 6.02952e-07  2.28369e-07        00000 
 8.47519e-07 -1.07410e-06        00000 
 2.26587e-06  5.21651e-07        00000 
 4.15031e-07  7.52744e-07        00000 
 2.80726e-07  5.51219e-07        00000 
 7.79598e-07 -1.69052e-06        00000 
 1.63137e-06  5.32023e-07        00000 
-8.95106e-07  1.41731e-06        00000 
 1.14203e-06  8.37743e-07        00000 
-2.40802e-07  1.62811e-07        00000 
 8.82494e-07 -1.87118e-06        00000 
-1.33392e-06 -1.61740e-06        00000 
 1.01831e-06 -9.89625e-07        00000 
 6.34519e-08 -2.55051e-07        00000 
 7.86925e-07 -9.39240e-08        00000 
-1.30245e-06 -2.05023e-07        00000 
-1.61972e-07 -1.96258e-06        00000 
-8.95530e-07 -2.70285e-07        00000 
-1.74166e-06  2.47836e-07        00000 
-1.82643e-07 -1.36713e-06        00000 
 1.15885e-06 -2.64200e-06        00000 
 7.28551e-07  1.17664e-06        00000 
-3.60650e-07  7.79987e-07        00000 