<?xml version="1.0" encoding="utf-8"?>
<VTKFile byte_order="LittleEndian" type="UnstructuredGrid" version="0.1">
   <UnstructuredGrid>
      <Piece NumberOfCells="1296" NumberOfPoints="685">
         <Points>
            <DataArray Name="Points" NumberOfComponents="3" format="ascii" type="Float32">
0.0000 0.0000 0.0000
0.0000 0.1111 0.0000
0.0000 0.2222 0.0000
0.0000 0.3333 0.0000
0.0000 0.4444 0.0000
0.0000 0.5556 0.0000
0.0000 0.6667 0.0000
0.0000 0.7778 0.0000
0.0000 0.8889 0.0000
0.0000 1.0000 0.0000
0.2222 0.0000 0.0000
0.2222 0.1111 0.0000
0.2222 0.2222 0.0000
0.2222 0.3333 0.0000
0.2222 0.4444 0.0000
0.2222 0.5556 0.0000
0.2222 0.6667 0.0000
0.2222 0.7778 0.0000
0.2222 0.8889 0.0000
0.2222 1.0000 0.0000
0.4444 0.0000 0.0000
0.4444 0.1111 0.0000
0.4444 0.2222 0.0000
0.4444 0.3333 0.0000
0.4444 0.4444 0.0000
0.4444 0.5556 0.0000
0.4444 0.6667 0.0000
0.4444 0.7778 0.0000
0.4444 0.8889 0.0000
0.4444 1.0000 0.0000
0.6667 0.0000 0.0000
0.6667 0.1111 0.0000
0.6667 0.2222 0.0000
0.6667 0.3333 0.0000
0.6667 0.4444 0.0000
0.6667 0.5556 0.0000
0.6667 0.6667 0.0000
0.6667 0.7778 0.0000
0.6667 0.8889 0.0000
0.6667 1.0000 0.0000
0.8889 0.0000 0.0000
0.8889 0.1111 0.0000
0.8889 0.2222 0.0000
0.8889 0.3333 0.0000
0.8889 0.4444 0.0000
0.8889 0.5556 0.0000
0.8889 0.6667 0.0000
0.8889 0.7778 0.0000
0.8889 0.8889 0.0000
0.8889 1.0000 0.0000
1.1111 0.0000 0.0000
1.1111 0.1111 0.0000
1.1111 0.2222 0.0000
1.1111 0.3333 0.0000
1.1111 0.4444 0.0000
1.1111 0.5556 0.0000
1.1111 0.6667 0.0000
1.1111 0.7778 0.0000
1.1111 0.8889 0.0000
1.1111 1.0000 0.0000
1.3333 0.0000 0.0000
1.3333 0.1111 0.0000
1.3333 0.2222 0.0000
1.3333 0.3333 0.0000
1.3333 0.4444 0.0000
1.3333 0.5556 0.0000
1.3333 0.6667 0.0000
1.3333 0.7778 0.0000
1.3333 0.8889 0.0000
1.3333 1.0000 0.0000
1.5556 0.0000 0.0000
1.5556 0.1111 0.0000
1.5556 0.2222 0.0000
1.5556 0.3333 0.0000
1.5556 0.4444 0.0000
1.5556 0.5556 0.0000
1.5556 0.6667 0.0000
1.5556 0.7778 0.0000
1.5556 0.8889 0.0000
1.5556 1.0000 0.0000
1.7778 0.0000 0.0000
1.7778 0.1111 0.0000
1.7778 0.2222 0.0000
1.7778 0.3333 0.0000
1.7778 0.4444 0.0000
1.7778 0.5556 0.0000
1.7778 0.6667 0.0000
1.7778 0.7778 0.0000
1.7778 0.8889 0.0000
1.7778 1.0000 0.0000
2.0000 0.0000 0.0000
2.0000 0.1111 0.0000
2.0000 0.2222 0.0000
2.0000 0.3333 0.0000
2.0000 0.4444 0.0000
2.0000 0.5556 0.0000
2.0000 0.6667 0.0000
2.0000 0.7778 0.0000
2.0000 0.8889 0.0000
2.0000 1.0000 0.0000
0.1111 0.0556 0.0000
0.1111 0.1667 0.0000
0.1111 0.2778 0.0000
0.1111 0.3889 0.0000
0.1111 0.5000 0.0000
0.1111 0.6111 0.0000
0.1111 0.7222 0.0000
0.1111 0.8333 0.0000
0.1111 0.9444 0.0000
0.3333 0.0556 0.0000
0.3333 0.1667 0.0000
0.3333 0.2778 0.0000
0.3333 0.3889 0.0000
0.3333 0.5000 0.0000
0.3333 0.6111 0.0000
0.3333 0.7222 0.0000
0.3333 0.8333 0.0000
0.3333 0.9444 0.0000
0.5556 0.0556 0.0000
0.5556 0.1667 0.0000
0.5556 0.2778 0.0000
0.5556 0.3889 0.0000
0.5556 0.5000 0.0000
0.5556 0.6111 0.0000
0.5556 0.7222 0.0000
0.5556 0.8333 0.0000
0.5556 0.9444 0.0000
0.7778 0.0556 0.0000
0.7778 0.1667 0.0000
0.7778 0.2778 0.0000
0.7778 0.3889 0.0000
0.7778 0.5000 0.0000
0.7778 0.6111 0.0000
0.7778 0.7222 0.0000
0.7778 0.8333 0.0000
0.7778 0.9444 0.0000
1.0000 0.0556 0.0000
1.0000 0.1667 0.0000
1.0000 0.2778 0.0000
1.0000 0.3889 0.0000
1.0000 0.5000 0.0000
1.0000 0.6111 0.0000
1.0000 0.7222 0.0000
1.0000 0.8333 0.0000
1.0000 0.9444 0.0000
1.2222 0.0556 0.0000
1.2222 0.1667 0.0000
1.2222 0.2778 0.0000
1.2222 0.3889 0.0000
1.2222 0.5000 0.0000
1.2222 0.6111 0.0000
1.2222 0.7222 0.0000
1.2222 0.8333 0.0000
1.2222 0.9444 0.0000
1.4444 0.0556 0.0000
1.4444 0.1667 0.0000
1.4444 0.2778 0.0000
1.4444 0.3889 0.0000
1.4444 0.5000 0.0000
1.4444 0.6111 0.0000
1.4444 0.7222 0.0000
1.4444 0.8333 0.0000
1.4444 0.9444 0.0000
1.6667 0.0556 0.0000
1.6667 0.1667 0.0000
1.6667 0.2778 0.0000
1.6667 0.3889 0.0000
1.6667 0.5000 0.0000
1.6667 0.6111 0.0000
1.6667 0.7222 0.0000
1.6667 0.8333 0.0000
1.6667 0.9444 0.0000
1.8889 0.0556 0.0000
1.8889 0.1667 0.0000
1.8889 0.2778 0.0000
1.8889 0.3889 0.0000
1.8889 0.5000 0.0000
1.8889 0.6111 0.0000
1.8889 0.7222 0.0000
1.8889 0.8333 0.0000
1.8889 0.9444 0.0000
0.0000 0.0556 0.0000
0.0556 0.0278 0.0000
0.0556 0.0833 0.0000
0.0000 0.1667 0.0000
0.0556 0.1389 0.0000
0.0556 0.1944 0.0000
0.0000 0.2778 0.0000
0.0556 0.2500 0.0000
0.0556 0.3056 0.0000
0.0000 0.3889 0.0000
0.0556 0.3611 0.0000
0.0556 0.4167 0.0000
0.0000 0.5000 0.0000
0.0556 0.4722 0.0000
0.0556 0.5278 0.0000
0.0000 0.6111 0.0000
0.0556 0.5833 0.0000
0.0556 0.6389 0.0000
0.0000 0.7222 0.0000
0.0556 0.6944 0.0000
0.0556 0.7500 0.0000
0.0000 0.8333 0.0000
0.0556 0.8056 0.0000
0.0556 0.8611 0.0000
0.0000 0.9444 0.0000
0.0556 0.9167 0.0000
0.0556 0.9722 0.0000
0.2222 0.0556 0.0000
0.2778 0.0278 0.0000
0.2778 0.0833 0.0000
0.2222 0.1667 0.0000
0.2778 0.1389 0.0000
0.2778 0.1944 0.0000
0.2222 0.2778 0.0000
0.2778 0.2500 0.0000
0.2778 0.3056 0.0000
0.2222 0.3889 0.0000
0.2778 0.3611 0.0000
0.2778 0.4167 0.0000
0.2222 0.5000 0.0000
0.2778 0.4722 0.0000
0.2778 0.5278 0.0000
0.2222 0.6111 0.0000
0.2778 0.5833 0.0000
0.2778 0.6389 0.0000
0.2222 0.7222 0.0000
0.2778 0.6944 0.0000
0.2778 0.7500 0.0000
0.2222 0.8333 0.0000
0.2778 0.8056 0.0000
0.2778 0.8611 0.0000
0.2222 0.9444 0.0000
0.2778 0.9167 0.0000
0.2778 0.9722 0.0000
0.4444 0.0556 0.0000
0.5000 0.0278 0.0000
0.5000 0.0833 0.0000
0.4444 0.1667 0.0000
0.5000 0.1389 0.0000
0.5000 0.1944 0.0000
0.4444 0.2778 0.0000
0.5000 0.2500 0.0000
0.5000 0.3056 0.0000
0.4444 0.3889 0.0000
0.5000 0.3611 0.0000
0.5000 0.4167 0.0000
0.4444 0.5000 0.0000
0.5000 0.4722 0.0000
0.5000 0.5278 0.0000
0.4444 0.6111 0.0000
0.5000 0.5833 0.0000
0.5000 0.6389 0.0000
0.4444 0.7222 0.0000
0.5000 0.6944 0.0000
0.5000 0.7500 0.0000
0.4444 0.8333 0.0000
0.5000 0.8056 0.0000
0.5000 0.8611 0.0000
0.4444 0.9444 0.0000
0.5000 0.9167 0.0000
0.5000 0.9722 0.0000
0.6667 0.0556 0.0000
0.7222 0.0278 0.0000
0.7222 0.0833 0.0000
0.6667 0.1667 0.0000
0.7222 0.1389 0.0000
0.7222 0.1944 0.0000
0.6667 0.2778 0.0000
0.7222 0.2500 0.0000
0.7222 0.3056 0.0000
0.6667 0.3889 0.0000
0.7222 0.3611 0.0000
0.7222 0.4167 0.0000
0.6667 0.5000 0.0000
0.7222 0.4722 0.0000
0.7222 0.5278 0.0000
0.6667 0.6111 0.0000
0.7222 0.5833 0.0000
0.7222 0.6389 0.0000
0.6667 0.7222 0.0000
0.7222 0.6944 0.0000
0.7222 0.7500 0.0000
0.6667 0.8333 0.0000
0.7222 0.8056 0.0000
0.7222 0.8611 0.0000
0.6667 0.9444 0.0000
0.7222 0.9167 0.0000
0.7222 0.9722 0.0000
0.8889 0.0556 0.0000
0.9444 0.0278 0.0000
0.9444 0.0833 0.0000
0.8889 0.1667 0.0000
0.9444 0.1389 0.0000
0.9444 0.1944 0.0000
0.8889 0.2778 0.0000
0.9444 0.2500 0.0000
0.9444 0.3056 0.0000
0.8889 0.3889 0.0000
0.9444 0.3611 0.0000
0.9444 0.4167 0.0000
0.8889 0.5000 0.0000
0.9444 0.4722 0.0000
0.9444 0.5278 0.0000
0.8889 0.6111 0.0000
0.9444 0.5833 0.0000
0.9444 0.6389 0.0000
0.8889 0.7222 0.0000
0.9444 0.6944 0.0000
0.9444 0.7500 0.0000
0.8889 0.8333 0.0000
0.9444 0.8056 0.0000
0.9444 0.8611 0.0000
0.8889 0.9444 0.0000
0.9444 0.9167 0.0000
0.9444 0.9722 0.0000
1.1111 0.0556 0.0000
1.1667 0.0278 0.0000
1.1667 0.0833 0.0000
1.1111 0.1667 0.0000
1.1667 0.1389 0.0000
1.1667 0.1944 0.0000
1.1111 0.2778 0.0000
1.1667 0.2500 0.0000
1.1667 0.3056 0.0000
1.1111 0.3889 0.0000
1.1667 0.3611 0.0000
1.1667 0.4167 0.0000
1.1111 0.5000 0.0000
1.1667 0.4722 0.0000
1.1667 0.5278 0.0000
1.1111 0.6111 0.0000
1.1667 0.5833 0.0000
1.1667 0.6389 0.0000
1.1111 0.7222 0.0000
1.1667 0.6944 0.0000
1.1667 0.7500 0.0000
1.1111 0.8333 0.0000
1.1667 0.8056 0.0000
1.1667 0.8611 0.0000
1.1111 0.9444 0.0000
1.1667 0.9167 0.0000
1.1667 0.9722 0.0000
1.3333 0.0556 0.0000
1.3889 0.0278 0.0000
1.3889 0.0833 0.0000
1.3333 0.1667 0.0000
1.3889 0.1389 0.0000
1.3889 0.1944 0.0000
1.3333 0.2778 0.0000
1.3889 0.2500 0.0000
1.3889 0.3056 0.0000
1.3333 0.3889 0.0000
1.3889 0.3611 0.0000
1.3889 0.4167 0.0000
1.3333 0.5000 0.0000
1.3889 0.4722 0.0000
1.3889 0.5278 0.0000
1.3333 0.6111 0.0000
1.3889 0.5833 0.0000
1.3889 0.6389 0.0000
1.3333 0.7222 0.0000
1.3889 0.6944 0.0000
1.3889 0.7500 0.0000
1.3333 0.8333 0.0000
1.3889 0.8056 0.0000
1.3889 0.8611 0.0000
1.3333 0.9444 0.0000
1.3889 0.9167 0.0000
1.3889 0.9722 0.0000
1.5556 0.0556 0.0000
1.6111 0.0278 0.0000
1.6111 0.0833 0.0000
1.5556 0.1667 0.0000
1.6111 0.1389 0.0000
1.6111 0.1944 0.0000
1.5556 0.2778 0.0000
1.6111 0.2500 0.0000
1.6111 0.3056 0.0000
1.5556 0.3889 0.0000
1.6111 0.3611 0.0000
1.6111 0.4167 0.0000
1.5556 0.5000 0.0000
1.6111 0.4722 0.0000
1.6111 0.5278 0.0000
1.5556 0.6111 0.0000
1.6111 0.5833 0.0000
1.6111 0.6389 0.0000
1.5556 0.7222 0.0000
1.6111 0.6944 0.0000
1.6111 0.7500 0.0000
1.5556 0.8333 0.0000
1.6111 0.8056 0.0000
1.6111 0.8611 0.0000
1.5556 0.9444 0.0000
1.6111 0.9167 0.0000
1.6111 0.9722 0.0000
1.7778 0.0556 0.0000
1.8333 0.0278 0.0000
1.8333 0.0833 0.0000
1.7778 0.1667 0.0000
1.8333 0.1389 0.0000
1.8333 0.1944 0.0000
1.7778 0.2778 0.0000
1.8333 0.2500 0.0000
1.8333 0.3056 0.0000
1.7778 0.3889 0.0000
1.8333 0.3611 0.0000
1.8333 0.4167 0.0000
1.7778 0.5000 0.0000
1.8333 0.4722 0.0000
1.8333 0.5278 0.0000
1.7778 0.6111 0.0000
1.8333 0.5833 0.0000
1.8333 0.6389 0.0000
1.7778 0.7222 0.0000
1.8333 0.6944 0.0000
1.8333 0.7500 0.0000
1.7778 0.8333 0.0000
1.8333 0.8056 0.0000
1.8333 0.8611 0.0000
1.7778 0.9444 0.0000
1.8333 0.9167 0.0000
1.8333 0.9722 0.0000
0.1111 0.1111 0.0000
0.1667 0.0833 0.0000
0.1111 0.2222 0.0000
0.1667 0.1944 0.0000
0.1111 0.3333 0.0000
0.1667 0.3056 0.0000
0.1111 0.4444 0.0000
0.1667 0.4167 0.0000
0.1111 0.5556 0.0000
0.1667 0.5278 0.0000
0.1111 0.6667 0.0000
0.1667 0.6389 0.0000
0.1111 0.7778 0.0000
0.1667 0.7500 0.0000
0.1111 0.8889 0.0000
0.1667 0.8611 0.0000
0.1111 1.0000 0.0000
0.1667 0.9722 0.0000
0.3333 0.1111 0.0000
0.3889 0.0833 0.0000
0.3333 0.2222 0.0000
0.3889 0.1944 0.0000
0.3333 0.3333 0.0000
0.3889 0.3056 0.0000
0.3333 0.4444 0.0000
0.3889 0.4167 0.0000
0.3333 0.5556 0.0000
0.3889 0.5278 0.0000
0.3333 0.6667 0.0000
0.3889 0.6389 0.0000
0.3333 0.7778 0.0000
0.3889 0.7500 0.0000
0.3333 0.8889 0.0000
0.3889 0.8611 0.0000
0.3333 1.0000 0.0000
0.3889 0.9722 0.0000
0.5556 0.1111 0.0000
[...]
         <PointData>
            <DataArray Name="fValues" NumberOfComponents="3" format="ascii" type="Float64">
-2.13698e-25 -5.69860e-25        00000 
-1.15683e-24 -7.07166e-25        00000 
-1.06005e-24  3.36218e-27        00000 
 3.36823e-25 -4.89924e-25        00000 
-1.47864e-24 -1.63132e-24        00000 
 4.89924e-25  4.89924e-25        00000 
 5.61956e-26  2.90104e-25        00000 
-4.89481e-25  6.11852e-26        00000 
-1.47618e-24 -1.23015e-25        00000 
-4.76368e-25 -5.69860e-25        00000 
-2.63181e-09  1.50480e-08        00000 
 6.08981e-10  5.96675e-09        00000 
 1.61997e-09  1.63445e-09        00000 
 8.82601e-10 -3.37081e-09        00000 
-3.47736e-09 -1.49220e-09        00000 
-1.64171e-09 -1.10947e-09        00000 
 1.08496e-09  2.77061e-09        00000 
-9.86582e-09 -1.34305e-09        00000 
-4.60977e-09 -1.93529e-09        00000 
-3.74893e-10 -3.27314e-09        00000 
 4.90032e-10  7.64393e-09        00000 
 1.19539e-09  5.47711e-09        00000 
 6.71383e-09 -1.47014e-09        00000 
-2.92432e-09 -1.65802e-09        00000 
-5.04957e-09 -3.09939e-09        00000 
 2.74224e-09 -1.70028e-10        00000 
 5.21960e-09 -1.60335e-09        00000 
 1.30937e-09 -7.38285e-09        00000 
-1.96157e-09 -3.61657e-09        00000 
-6.97642e-10  1.48844e-10        00000 
 2.32019e-09  1.69626e-08        00000 
-7.41693e-10  4.60494e-09        00000 
 2.81391e-09  2.27022e-09        00000 
 3.50569e-09  2.28273e-09        00000 
-1.40091e-09 -1.61961e-09        00000 
 1.22852e-08  8.10982e-09        00000 
 3.50112e-09  1.12693e-09        00000 
-2.65415e-09 -6.99906e-10        00000 
 7.33570e-09  3.02318e-09        00000 
-3.26608e-10 -9.16762e-09        00000 
 1.04595e-09  4.74492e-09        00000 
-8.38725e-11  2.03749e-09        00000 
 6.26905e-09 -3.64740e-09        00000 
 7.85298e-09 -5.03286e-09        00000 
-2.90513e-09 -7.24733e-09        00000 
 9.66391e-09  6.36292e-09        00000 
 3.55516e-09  2.21430e-09        00000 
-1.13815e-10 -1.82967e-09        00000 
 8.79965e-10  1.58933e-09        00000 
 8.20551e-10 -1.46926e-08        00000 
 6.01953e-09  1.07736e-08        00000 
 2.84490e-09  4.26212e-09        00000 
 2.39213e-09  4.73807e-09        00000 
 4.82193e-09  7.10409e-09        00000 
-1.37382e-09  2.32504e-09        00000 
 6.76134e-09  8.98086e-09        00000 
 6.98374e-09  2.11001e-09        00000 
 1.95503e-09  3.62056e-09        00000 
-5.65450e-10  3.39426e-11        00000 
-1.09909e-09 -3.94235e-09        00000 
 1.34402e-09 -4.66036e-09        00000 
-4.11177e-10  1.85400e-09        00000 
 5.36446e-09  2.70575e-11        00000 
-3.40341e-09  3.25448e-09        00000 
 4.97280e-09  9.19542e-10        00000 
 2.17076e-09  5.11056e-09        00000 
 3.13437e-09  6.72613e-09        00000 
 3.26082e-09  2.64727e-10        00000 
 7.97999e-09  6.10927e-09        00000 
 4.94306e-09  7.06962e-09        00000 
-2.24496e-09  2.10957e-09        00000 
 3.64142e-09  3.83812e-09        00000 
 4.39280e-09  9.77721e-10        00000 
 5.03900e-09  4.96080e-09        00000 
 2.98647e-09  6.34863e-09        00000 
 1.26175e-09  4.74010e-09        00000 
-4.51621e-10 -2.44043e-09        00000 
 4.55225e-09 -2.39788e-09        00000 
 4.77968e-09 -2.99987e-09        00000 
-2.62315e-09 -4.15559e-09        00000 
-1.65335e-09 -5.35204e-09        00000 
-2.84848e-09  6.92550e-09        00000 
-4.27974e-09  7.23020e-10        00000 
-9.52150e-09  2.21009e-09        00000 
-4.24740e-09  3.40886e-09        00000 
 1.12436e-10  2.65618e-09        00000 
 4.29782e-09  2.69505e-09        00000 
-4.11211e-09 -7.64700e-10        00000 
-1.03842e-09  3.29526e-09        00000 
-6.79690e-09  5.50574e-09        00000 
-2.00029e-09  4.80327e-11        00000 
-1.22964e-09  4.06924e-09        00000 
-4.67020e-09 -3.61297e-10        00000 
-3.11513e-09  2.27729e-10        00000 
-4.53656e-09 -2.01801e-09        00000 
-1.41398e-09  2.41971e-09        00000 
 1.27318e-09  4.83344e-09        00000 
-1.94598e-09  4.55101e-09        00000 
-2.10952e-09  4.05525e-09        00000 
-1.79547e-09  4.05731e-09        00000 
 1.11572e-09  1.54222e-09        00000 
-1.67088e-09  7.85280e-09        00000 
 2.18796e-09  4.40291e-09        00000 
 2.17348e-09 -2.51783e-09        00000 
 7.04221e-09 -1.39208e-10        00000 
 8.43899e-09  2.97641e-09        00000 
-1.66559e-09 -3.82342e-09        00000 
-1.69173e-09  1.34455e-09        00000 
 1.09169e-09 -2.29356e-09        00000 
 1.87257e-09  1.26083e-09        00000 
-5.82855e-09  9.14039e-10        00000 
-3.32747e-09 -7.82192e-10        00000 
-3.65996e-09  2.70341e-09        00000 
-1.94425e-09  2.41920e-09        00000 
 2.16727e-09 -1.73057e-09        00000 
-9.60103e-10  2.66019e-09        00000 
-3.74148e-09 -8.73806e-10        00000 
-4.88263e-09 -7.64851e-10        00000 
 2.47761e-09 -3.09838e-09        00000 
-7.84134e-10  2.67061e-09        00000 
 2.17071e-11  4.65529e-09        00000 
 2.83448e-09  6.79758e-09        00000 
-1.87178e-10  4.94797e-09        00000 
 2.84560e-09  4.75357e-10        00000 
 7.84660e-09  4.87961e-09        00000 
-5.54206e-09  1.04536e-09        00000 
 8.61370e-10  3.33436e-09        00000 
 3.56445e-09 -4.36521e-09        00000 
 9.30513e-10  8.58670e-10        00000 
 3.16467e-09  2.95302e-11        00000 
-3.78770e-09  2.53446e-09        00000 
 1.74796e-09  1.30996e-09        00000 
 7.23232e-09  5.09561e-09        00000 
 7.07423e-09  4.62598e-09        00000 
-1.08164e-09 -2.35257e-09        00000 
 6.67526e-10  4.31478e-09        00000 
 5.68220e-09  3.23769e-09        00000 
 4.70854e-09  2.24398e-09        00000 
 3.93223e-09  2.55469e-10        00000 
-1.50467e-09  5.55558e-09        00000 
 2.30784e-11  3.45845e-09        00000 
 4.31896e-10  3.03968e-09        00000 
-2.63786e-09  3.00712e-09        00000 
-4.94104e-09  1.87271e-10        00000 
-2.46516e-09  6.22439e-09        00000 
 6.23036e-09  4.46681e-09        00000 
 3.69508e-09  4.48579e-09        00000 
 8.03934e-09  1.14387e-09        00000 
 4.90505e-09  5.49269e-09        00000 
-5.52492e-09 -1.66874e-09        00000 
 4.87697e-09 -4.43897e-10        00000 
 8.48883e-09  2.01043e-09        00000 
-1.13744e-10 -9.09708e-10        00000 
-3.55931e-09  5.24959e-09        00000 
 1.77123e-09  8.13964e-09        00000 
 3.11385e-09  6.22224e-09        00000 
 2.49457e-09 -4.95021e-10        00000 
-1.21352e-09 -1.78122e-09        00000 
 7.26638e-09  2.13873e-09        00000 
 3.49019e-09  2.50346e-09        00000 
 9.55544e-09  7.36122e-09        00000 
 5.10286e-09  1.92043e-09        00000 
-5.74346e-10  2.65139e-09        00000 
 1.94201e-10  3.72643e-09        00000 
 2.86030e-09 -2.80977e-10        00000 
 1.88692e-09 -3.56911e-09        00000 
-1.06479e-09  1.15253e-09        00000 
 8.85052e-10 -1.05599e-09        00000 
-4.03134e-09 -3.98765e-09        00000 
-5.55292e-09 -3.15522e-09        00000 
-6.07361e-09  1.65809e-09        00000 
-5.60823e-09  5.13027e-09        00000 
 1.26543e-09  4.15412e-09        00000 
 3.26224e-10 -1.26246e-09        00000 
-1.48219e-09  2.07152e-10        00000 
 2.70654e-09 -3.69954e-09        00000 
 4.24382e-09  2.61835e-10        00000 
 3.52952e-09  4.82450e-09        00000 
 2.69864e-09  9.57947e-09        00000 
 2.37640e-09  1.62353e-09        00000 
 1.37987e-09 -4.12541e-11        00000 
 2.40707e-25  4.93060e-25        00000 
-3.17315e-09 -5.24869e-09        00000 
-2.47789e-09  1.21101e-09        00000 
-5.59702e-26 -4.65849e-25        00000 
 3.50746e-09  2.92503e-09        00000 
 1.22304e-09 -1.11805e-09        00000 
       00000 -1.74483e-25        00000 
-4.90046e-09 -1.56580e-09        00000 
 2.27880e-09 -6.10089e-10        00000 
 2.46441e-25  7.37176e-25        00000 
-8.65575e-10 -4.66400e-09        00000 
 7.03857e-10  8.08695e-10        00000 
-6.97934e-25 -9.30578e-25        00000 
-5.27489e-09 -8.30299e-09        00000 
-1.16656e-09 -1.06397e-09        00000 
-4.74655e-25  8.82228e-25        00000 
-4.89029e-09 -8.16770e-09        00000 
-8.08502e-09  1.68831e-09        00000 
 9.30578e-25        00000        00000 
-3.75646e-09 -2.92660e-09        00000 
-1.49707e-09 -4.70660e-10        00000 
-1.62851e-24 -3.48967e-25        00000 
-4.00855e-09  2.34481e-09        00000 
-6.16304e-09 -2.36755e-09        00000 
 6.17693e-25 -4.63612e-25        00000 
-4.39587e-09  3.11731e-09        00000 
-6.87132e-10 -6.99528e-09        00000 
 2.35991e-10 -6.43891e-09        00000 
-6.44923e-09 -7.99206e-09        00000 
-5.79817e-09  2.98462e-09        00000 
-7.24404e-10 -4.33351e-09        00000 
-6.10248e-09  3.67631e-09        00000 
-1.76055e-09  1.96316e-09        00000 
 4.94050e-09  6.27463e-10        00000 
-6.82427e-10 -3.32121e-09        00000 
 1.24456e-09 -4.38471e-10        00000 
 4.50712e-09  1.74036e-09        00000 
 2.98732e-09 -4.24498e-09        00000 
-2.21860e-09 -6.51874e-09        00000 
-4.82365e-09  7.27442e-10        00000 
-3.57118e-09 -4.54311e-09        00000 
-1.36938e-09 -1.45454e-09        00000 
-2.50728e-10 -1.86438e-09        00000 
-2.23974e-09 -3.34227e-09        00000 
 1.83480e-09 -3.28517e-09        00000 
 2.97566e-11 -8.95593e-10        00000 
-4.03305e-09 -1.00854e-09        00000 
-3.97202e-09 -3.60517e-09        00000 
-5.86746e-09  2.87556e-10        00000 
-5.60308e-09  4.90092e-09        00000 
-1.31051e-09 -3.00453e-09        00000 
-2.45794e-09  1.87527e-09        00000 
-2.23053e-09 -3.23903e-09        00000 
-3.94949e-09 -3.82092e-09        00000 
-4.55926e-09 -7.00074e-09        00000 
-5.41061e-09 -7.41784e-09        00000 
-2.44766e-09  2.91702e-09        00000 
-1.43050e-09 -3.58972e-09        00000 
-5.51383e-09  2.15110e-10        00000 
 4.43949e-09  2.39656e-09        00000 
 8.45819e-10  2.26149e-09        00000 
-4.18552e-09  8.16847e-10        00000 
-5.21334e-09 -2.27266e-09        00000 
-4.33145e-09  6.64110e-09        00000 
-4.05248e-09  1.55200e-09        00000 
-3.00312e-09  2.15234e-09        00000 
-2.88551e-10 -2.52527e-09        00000 
 2.97231e-09  4.32587e-09        00000 
-1.79087e-09 -2.20536e-09        00000 
-4.56330e-09 -1.98233e-09        00000 
-3.68963e-09 -3.02134e-09        00000 
-6.30877e-09 -3.83742e-09        00000 
 1.80339e-09 -3.20220e-09        00000 
-6.33253e-09 -3.45949e-09        00000 
-5.00520e-09 -4.02590e-09        00000 
-3.51221e-09 -6.15504e-09        00000 
-8.03269e-11  1.98479e-09        00000 
 9.56419e-10 -1.98341e-09        00000 
-3.67661e-09  1.56735e-10        00000 
-1.24798e-09  1.42035e-09        00000 
-1.66547e-09  6.32383e-10        00000 
-3.46020e-10 -4.49806e-10        00000 
-2.04523e-10 -1.29197e-08        00000 
-3.02789e-09  5.27860e-09        00000 
-1.41667e-09 -2.07696e-09        00000 
 2.20064e-09  7.25823e-10        00000 
 2.25199e-10  7.43784e-09        00000 
 1.45548e-10  2.46809e-09        00000 
 6.67896e-10 -7.95989e-10        00000 
-5.41547e-10 -3.59566e-09        00000 
-3.28271e-11 -5.52973e-10        00000 
 1.92860e-09 -5.58162e-09        00000 
 4.05061e-09 -6.24082e-09        00000 
 3.71607e-09 -3.23950e-09        00000 
 2.58169e-09  3.57322e-09        00000 
 5.28497e-09  2.93318e-09        00000 
 4.20049e-09 -6.09365e-10        00000 
 8.09820e-10 -5.67949e-09        00000 
 1.64242e-09  1.55034e-09        00000 
 7.05207e-09  4.27477e-09        00000 
-1.22526e-10  1.36037e-09        00000 
 2.35076e-10 -4.57700e-09        00000 
 9.99030e-10  2.84864e-09        00000 
 5.17248e-09  1.02329e-08        00000 
 6.25263e-09  1.27707e-09        00000 
 2.64734e-10  9.26623e-09        00000 
 8.39819e-10 -6.34220e-09        00000 
 2.17095e-09  1.34879e-08        00000 
 4.07262e-09 -7.71571e-09        00000 
-4.59040e-09 -5.27092e-09        00000 
 3.17269e-09  1.79107e-10        00000 
-3.31178e-09 -1.42410e-09        00000 
-7.05853e-10  1.58798e-09        00000 
 6.33570e-09  1.09264e-09        00000 
 4.39493e-09  4.39192e-09        00000 
 5.47521e-09 -6.52449e-09        00000 
 2.76526e-09 -1.72478e-09        00000 
-2.74213e-09  5.47227e-09        00000 
 3.16696e-09 -3.35141e-09        00000 
-6.10939e-10 -7.36797e-09        00000 
 2.26409e-09 -2.94455e-09        00000 
 2.67404e-09  2.72671e-09        00000 
-3.04725e-09  2.69579e-09        00000 
 4.09720e-09 -6.56266e-09        00000 
-7.77814e-09 -8.18176e-09        00000 
 1.77046e-09  2.54778e-09        00000 
-1.35022e-09  2.93397e-09        00000 
 1.43324e-09  1.74626e-09        00000 
-2.00851e-09 -5.09853e-09        00000 
 5.87863e-09  2.64103e-09        00000 
 7.76754e-09  6.82839e-09        00000 
 2.26946e-09  1.23757e-09        00000 
-2.84925e-09  1.07645e-08        00000 
 8.54499e-11 -5.82151e-09        00000 
-4.15938e-09  1.68940e-08        00000 
 1.12625e-09 -1.25508e-09        00000 
-1.01704e-09 -2.30364e-09        00000 
 4.00416e-09  1.10782e-09        00000 
-1.10995e-09 -1.05834e-09        00000 
 4.29361e-09  4.05514e-10        00000 
 4.71661e-09  4.89550e-09        00000 
-2.85107e-09 -1.57482e-09        00000 
-3.04809e-09 -6.39415e-09        00000 
-3.19145e-09  9.64533e-09        00000 
 3.24198e-09  2.28034e-09        00000 
-5.13427e-09 -2.19025e-10        00000 
-2.67178e-09 -6.07182e-09        00000 
-5.79612e-09 -3.10934e-09        00000 
 2.25489e-09  9.98649e-09        00000 
-1.08969e-09  2.20793e-09        00000 
 2.30439e-09 -1.20324e-09        00000 
-2.22090e-09 -2.30995e-09        00000 
-4.48028e-09  1.11278e-10        00000 
 3.24322e-09 -4.97079e-09        00000 
-1.97096e-09  3.41695e-09        00000 
 3.12662e-09 -1.66271e-09        00000 
-2.19217e-09 -2.39095e-09        00000 
 7.52325e-09  3.67111e-09        00000 
 6.37934e-09 -2.35104e-09        00000 
-3.00054e-09 -3.10715e-09        00000 
 3.27611e-09  2.83266e-09        00000 
 3.65137e-09 -3.03385e-09        00000 
 5.72419e-09 -6.76501e-10        00000 
 4.92105e-09  1.29919e-08        00000 
 7.69592e-09  1.77695e-09        00000 
-2.27971e-10  4.95671e-09        00000 
 2.33689e-09  9.71710e-10        00000 
 2.75401e-09 -2.17163e-09        00000 
 1.06070e-09 -6.86974e-10        00000 
 3.11812e-09 -3.43108e-09        00000 
 2.70904e-09 -3.76711e-09        00000 
-1.45189e-09 -1.37106e-09        00000 
 4.74074e-10 -7.69681e-09        00000 
-1.44234e-09 -4.42232e-09        00000 
-1.56695e-09 -5.23620e-09        00000 
-3.65137e-09 -6.49671e-09        00000 
-3.85140e-09  2.69385e-09        00000 
-9.43260e-10  2.74244e-09        00000 
-6.90542e-09 -1.67326e-09        00000 
-3.04544e-09 -5.19977e-09        00000 
-7.12816e-10 -2.38764e-09        00000 
-3.13713e-09  1.72240e-09        00000 
 6.17723e-09  3.94624e-09        00000 
 4.97437e-09  6.06413e-10        00000 
 6.65273e-09 -1.90936e-09        00000 
 1.50189e-09 -6.91671e-10        00000 
 2.03747e-09 -5.17860e-09        00000 
-3.47686e-09 -4.86355e-09        00000 
 7.13300e-09  1.24726e-09        00000 
-1.16890e-09  2.83171e-09        00000 
-4.26664e-09 -1.77033e-09        00000 
-1.05914e-09  2.77134e-09        00000 
 3.51454e-09 -5.78984e-09        00000 
-2.93053e-09  4.25233e-09        00000 
 3.95752e-09  2.39982e-09        00000 
 5.81616e-09 -2.55451e-09        00000 
-8.33609e-11 -2.26849e-09        00000 
-8.30067e-09 -2.19818e-09        00000 
-5.18557e-09 -4.91305e-09        00000 
-6.09964e-09  4.77010e-09        00000 
-5.07012e-09  9.83206e-10        00000 
-3.31380e-09  2.18816e-09        00000 
-6.45784e-09 -7.45359e-11        00000 
-6.38983e-09  2.15736e-09        00000 
-7.10980e-09 -6.21370e-10        00000 
-3.84341e-09 -6.51454e-10        00000 
-1.85761e-09  4.64829e-09        00000 
-1.37311e-09  4.05873e-09        00000 
 3.85984e-09 -4.19561e-10        00000 
-6.60629e-09 -6.16028e-09        00000 
 4.57695e-09 -2.75406e-10        00000 
 1.21065e-09  1.07165e-09        00000 
-1.68956e-09  2.09266e-09        00000 
-3.09768e-09  2.50876e-09        00000 
 4.59877e-09 -2.48860e-09        00000 
 2.27411e-09  7.10338e-09        00000 
 3.72040e-10 -2.15010e-10        00000 
-1.58764e-09  8.91976e-09        00000 
-1.93683e-09  7.38851e-10        00000 
-2.51970e-09  6.12133e-10        00000 
-3.94965e-09  4.99270e-10        00000 
-1.93404e-09  3.53315e-09        00000 
 4.50143e-10 -5.89012e-10        00000 
-6.06184e-09 -1.08068e-09        00000 
-1.07678e-09  9.12067e-10        00000 
-2.20945e-09  7.93922e-09        00000 
-5.53302e-09 -1.45164e-10        00000 
-5.31850e-09  2.29332e-09        00000 
-3.39531e-09  2.69374e-09        00000 
-2.31688e-09 -1.88342e-09        00000 
 2.12185e-09  3.26774e-09        00000 
-5.08322e-09  3.25458e-09        00000 
-2.99229e-09 -2.09046e-09        00000 
-1.47895e-09  4.45075e-09        00000 
-2.14726e-09 -3.25458e-09        00000 
-1.19697e-08 -4.93313e-09        00000 
 1.25959e-09  3.24142e-09        00000 
-1.87453e-09  3.77379e-09        00000 
-2.79613e-09  1.01195e-09        00000 
-5.10880e-09 -6.06235e-10        00000 
-1.88402e-09  5.55013e-09        00000 
-4.53775e-09  7.68839e-09        00000 
-4.02525e-09 -1.14619e-09        00000 
-6.84986e-10  7.81690e-11        00000 
-5.13067e-09  2.67125e-09        00000 
-1.77429e-09 -3.94535e-09        00000 
-4.28527e-09  3.86888e-09        00000 
 4.63988e-09  1.18195e-09        00000 
 1.72797e-09  3.25308e-09        00000 
 1.14592e-09 -4.12069e-09        00000 
-2.67846e-09  4.56533e-10        00000 
-2.86786e-09 -4.69754e-09        00000 
-3.47402e-10  4.07231e-09        00000 
 9.13383e-10  2.29700e-09        00000 
 1.87280e-09  1.54242e-09        00000 
-5.99626e-10 -3.08169e-09        00000 
-1.32190e-10  1.81063e-09        00000 
 2.13604e-09  7.10867e-10        00000 
-2.81871e-09  4.09708e-09        00000 
 1.00219e-10  4.32556e-09        00000 
-2.03028e-10  9.84564e-11        00000 
-2.90856e-09  2.83924e-09        00000 
 1.52163e-09  1.86527e-09        00000 
-2.35370e-09 -7.95072e-10        00000 
 1.53607e-09  6.13095e-09        00000 
 1.79947e-09  4.94138e-09        00000 
 4.55105e-09  1.35195e-08        00000 
-2.44330e-09  1.77053e-09        00000 
 4.43283e-09  1.08266e-08        00000 
 3.95255e-09 -1.98678e-09        00000 
-3.11235e-09  9.74056e-09        00000 
-7.67560e-10  1.83610e-09        00000 
-8.78690e-10 -1.34582e-09        00000 
 9.95559e-10 -2.36901e-09        00000 
-4.30001e-09  3.50383e-10        00000 
-3.70982e-09  4.82009e-10        00000 
-4.04912e-09 -3.31227e-10        00000 
-4.42710e-09  7.36364e-10        00000 
-7.75231e-10  8.89898e-10        00000 
 1.81569e-09  9.57964e-10        00000 
-1.49458e-09  2.89370e-09        00000 
-5.47158e-09 -5.85634e-09        00000 
-3.57762e-10 -1.43601e-09        00000 
 8.53568e-10 -1.04101e-09        00000 
-1.54470e-09 -1.86371e-09        00000 
 1.29261e-09 -2.11353e-09        00000 
-3.61596e-10 -1.42053e-09        00000 
-2.62948e-09 -4.87961e-09        00000 
-4.94073e-09  2.14055e-09        00000 
-1.50381e-09 -4.62854e-09        00000 
 3.28784e-09  6.94484e-11        00000 
 9.17666e-10 -2.48168e-09        00000 
-2.20347e-09 -3.04169e-09        00000 
-3.93043e-09  2.16352e-09        00000 
 6.07412e-09  3.13099e-09        00000 
 2.79134e-09  3.01995e-09        00000 
 6.61600e-09  7.06694e-09        00000 
-2.90369e-09 -2.34067e-09        00000 
-3.16930e-09 -6.15361e-09        00000 
-2.48727e-09 -3.43104e-09        00000 
 8.73914e-10 -6.31402e-09        00000 
-2.32220e-10 -2.20156e-09        00000 
 6.78433e-09 -8.08558e-09        00000 
 3.60174e-10 -6.96329e-09        00000 
 9.82529e-10 -2.02195e-09        00000 
 3.51295e-09 -3.83701e-09        00000 
-9.61978e-09  8.89088e-10        00000 
 6.06244e-09 -1.52740e-09        00000 
 5.61314e-09  4.83803e-09        00000 
 2.31049e-09 -2.66592e-09        00000 
-3.64106e-09  2.86940e-09        00000 
 7.33564e-10 -9.86390e-10        00000 
 3.43975e-09  7.85343e-09        00000 
 5.64140e-09 -7.85894e-09        00000 
 7.67851e-09  1.86181e-08        00000 
 3.64025e-09 -3.34249e-09        00000 