<?xml version="1.0" encoding="utf-8"?>
<VTKFile byte_order="LittleEndian" type="UnstructuredGrid" version="0.1">
   <UnstructuredGrid>
      <Piece NumberOfCells="1296" NumberOfPoints="685">
         <Points>
            <DataArray Name="Points" NumberOfComponents="3" format="ascii" type="Float32">
0.0000 0.0000 0.0000
0.0000 0.1111 0.0000
0.0000 0.2222 0.0000
0.0000 0.3333 0.0000
0.0000 0.4444 0.0000
0.0000 0.5556 0.0000
0.0000 0.6667 0.0000
0.0000 0.7778 0.0000
0.0000 0.8889 0.0000
0.0000 1.0000 0.0000
0.2222 0.0000 0.0000
0.2222 0.1111 0.0000
0.2222 0.2222 0.0000
0.2222 0.3333 0.0000
0.2222 0.4444 0.0000
0.2222 0.5556 0.0000
0.2222 0.6667 0.0000
0.2222 0.7778 0.0000
0.2222 0.8889 0.0000
0.2222 1.0000 0.0000
0.4444 0.0000 0.0000
0.4444 0.1111 0.0000
0.4444 0.2222 0.0000
0.4444 0.3333 0.0000
0.4444 0.4444 0.0000
0.4444 0.5556 0.0000
0.4444 0.6667 0.0000
0.4444 0.7778 0.0000
0.4444 0.8889 0.0000
0.4444 1.0000 0.0000
0.6667 0.0000 0.0000
0.6667 0.1111 0.0000
0.6667 0.2222 0.0000
0.6667 0.3333 0.0000
0.6667 0.4444 0.0000
0.6667 0.5556 0.0000
0.6667 0.6667 0.0000
0.6667 0.7778 0.0000
0.6667 0.8889 0.0000
0.6667 1.0000 0.0000
0.8889 0.0000 0.0000
0.8889 0.1111 0.0000
0.8889 0.2222 0.0000
0.8889 0.3333 0.0000
0.8889 0.4444 0.0000
0.8889 0.5556 0.0000
0.8889 0.6667 0.0000
0.8889 0.7778 0.0000
0.8889 0.8889 0.0000
0.8889 1.0000 0.0000
1.1111 0.0000 0.0000
1.1111 0.1111 0.0000
1.1111 0.2222 0.0000
1.1111 0.3333 0.0000
1.1111 0.4444 0.0000
1.1111 0.5556 0.0000
1.1111 0.6667 0.0000
1.1111 0.7778 0.0000
1.1111 0.8889 0.0000
1.1111 1.0000 0.0000
1.3333 0.0000 0.0000
1.3333 0.1111 0.0000
1.3333 0.2222 0.0000
1.3333 0.3333 0.0000
1.3333 0.4444 0.0000
1.3333 0.5556 0.0000
1.3333 0.6667 0.0000
1.3333 0.7778 0.0000
1.3333 0.8889 0.0000
1.3333 1.0000 0.0000
1.5556 0.0000 0.0000
1.5556 0.1111 0.0000
1.5556 0.2222 0.0000
1.5556 0.3333 0.0000
1.5556 0.4444 0.0000
1.5556 0.5556 0.0000
1.5556 0.6667 0.0000
1.5556 0.7778 0.0000
1.5556 0.8889 0.0000
1.5556 1.0000 0.0000
1.7778 0.0000 0.0000
1.7778 0.1111 0.0000
1.7778 0.2222 0.0000
1.7778 0.3333 0.0000
1.7778 0.4444 0.0000
1.7778 0.5556 0.0000
1.7778 0.6667 0.0000
1.7778 0.7778 0.0000
1.7778 0.8889 0.0000
1.7778 1.0000 0.0000
2.0000 0.0000 0.0000
2.0000 0.1111 0.0000
2.0000 0.2222 0.0000
2.0000 0.3333 0.0000
2.0000 0.4444 0.0000
2.0000 0.5556 0.0000
2.0000 0.6667 0.0000
2.0000 0.7778 0.0000
2.0000 0.8889 0.0000
2.0000 1.0000 0.0000
0.1111 0.0556 0.0000
0.1111 0.1667 0.0000
0.1111 0.2778 0.0000
0.1111 0.3889 0.0000
0.1111 0.5000 0.0000
0.1111 0.6111 0.0000
0.1111 0.7222 0.0000
0.1111 0.8333 0.0000
0.1111 0.9444 0.0000
0.3333 0.0556 0.0000
0.3333 0.1667 0.0000
0.3333 0.2778 0.0000
0.3333 0.3889 0.0000
0.3333 0.5000 0.0000
0.3333 0.6111 0.0000
0.3333 0.7222 0.0000
0.3333 0.8333 0.0000
0.3333 0.9444 0.0000
0.5556 0.0556 0.0000
0.5556 0.1667 0.0000
0.5556 0.2778 0.0000
0.5556 0.3889 0.0000
0.5556 0.5000 0.0000
0.5556 0.6111 0.0000
0.5556 0.7222 0.0000
0.5556 0.8333 0.0000
0.5556 0.9444 0.0000
0.7778 0.0556 0.0000
0.7778 0.1667 0.0000
0.7778 0.2778 0.0000
0.7778 0.3889 0.0000
0.7778 0.5000 0.0000
0.7778 0.6111 0.0000
0.7778 0.7222 0.0000
0.7778 0.8333 0.0000
0.7778 0.9444 0.0000
1.0000 0.0556 0.0000
1.0000 0.1667 0.0000
1.0000 0.2778 0.0000
1.0000 0.3889 0.0000
1.0000 0.5000 0.0000
1.0000 0.6111 0.0000
1.0000 0.7222 0.0000
1.0000 0.8333 0.0000
1.0000 0.9444 0.0000
1.2222 0.0556 0.0000
1.2222 0.1667 0.0000
1.2222 0.2778 0.0000
1.2222 0.3889 0.0000
1.2222 0.5000 0.0000
1.2222 0.6111 0.0000
1.2222 0.7222 0.0000
1.2222 0.8333 0.0000
1.2222 0.9444 0.0000
1.4444 0.0556 0.0000
1.4444 0.1667 0.0000
1.4444 0.2778 0.0000
1.4444 0.3889 0.0000
1.4444 0.5000 0.0000
1.4444 0.6111 0.0000
1.4444 0.7222 0.0000
1.4444 0.8333 0.0000
1.4444 0.9444 0.0000
1.6667 0.0556 0.0000
1.6667 0.1667 0.0000
1.6667 0.2778 0.0000
1.6667 0.3889 0.0000
1.6667 0.5000 0.0000
1.6667 0.6111 0.0000
1.6667 0.7222 0.0000
1.6667 0.8333 0.0000
1.6667 0.9444 0.0000
1.8889 0.0556 0.0000
1.8889 0.1667 0.0000
1.8889 0.2778 0.0000
1.8889 0.3889 0.0000
1.8889 0.5000 0.0000
1.8889 0.6111 0.0000
1.8889 0.7222 0.0000
1.8889 0.8333 0.0000
1.8889 0.9444 0.0000
0.0000 0.0556 0.0000
0.0556 0.0278 0.0000
0.0556 0.0833 0.0000
0.0000 0.1667 0.0000
0.0556 0.1389 0.0000
0.0556 0.1944 0.0000
0.0000 0.2778 0.0000
0.0556 0.2500 0.0000
0.0556 0.3056 0.0000
0.0000 0.3889 0.0000
0.0556 0.3611 0.0000
0.0556 0.4167 0.0000
0.0000 0.5000 0.0000
0.0556 0.4722 0.0000
0.0556 0.5278 0.0000
0.0000 0.6111 0.0000
0.0556 0.5833 0.0000
0.0556 0.6389 0.0000
0.0000 0.7222 0.0000
0.0556 0.6944 0.0000
0.0556 0.7500 0.0000
0.0000 0.8333 0.0000
0.0556 0.8056 0.0000
0.0556 0.8611 0.0000
0.0000 0.9444 0.0000
0.0556 0.9167 0.0000
0.0556 0.9722 0.0000
0.2222 0.0556 0.0000
0.2778 0.0278 0.0000
0.2778 0.0833 0.0000
0.2222 0.1667 0.0000
0.2778 0.1389 0.0000
0.2778 0.1944 0.0000
0.2222 0.2778 0.0000
0.2778 0.2500 0.0000
0.2778 0.3056 0.0000
0.2222 0.3889 0.0000
0.2778 0.3611 0.0000
0.2778 0.4167 0.0000
0.2222 0.5000 0.0000
0.2778 0.4722 0.0000
0.2778 0.5278 0.0000
0.2222 0.6111 0.0000
0.2778 0.5833 0.0000
0.2778 0.6389 0.0000
0.2222 0.7222 0.0000
0.2778 0.6944 0.0000
0.2778 0.7500 0.0000
0.2222 0.8333 0.0000
0.2778 0.8056 0.0000
0.2778 0.8611 0.0000
0.2222 0.9444 0.0000
0.2778 0.9167 0.0000
0.2778 0.9722 0.0000
0.4444 0.0556 0.0000
0.5000 0.0278 0.0000
0.5000 0.0833 0.0000
0.4444 0.1667 0.0000
0.5000 0.1389 0.0000
0.5000 0.1944 0.0000
0.4444 0.2778 0.0000
0.5000 0.2500 0.0000
0.5000 0.3056 0.0000
0.4444 0.3889 0.0000
0.5000 0.3611 0.0000
0.5000 0.4167 0.0000
0.4444 0.5000 0.0000
0.5000 0.4722 0.0000
0.5000 0.5278 0.0000
0.4444 0.6111 0.0000
0.5000 0.5833 0.0000
0.5000 0.6389 0.0000
0.4444 0.7222 0.0000
0.5000 0.6944 0.0000
0.5000 0.7500 0.0000
0.4444 0.8333 0.0000
0.5000 0.8056 0.0000
0.5000 0.8611 0.0000
0.4444 0.9444 0.0000
0.5000 0.9167 0.0000
0.5000 0.9722 0.0000
0.6667 0.0556 0.0000
0.7222 0.0278 0.0000
0.7222 0.0833 0.0000
0.6667 0.1667 0.0000
0.7222 0.1389 0.0000
0.7222 0.1944 0.0000
0.6667 0.2778 0.0000
0.7222 0.2500 0.0000
0.7222 0.3056 0.0000
0.6667 0.3889 0.0000
0.7222 0.3611 0.0000
0.7222 0.4167 0.0000
0.6667 0.5000 0.0000
0.7222 0.4722 0.0000
0.7222 0.5278 0.0000
0.6667 0.6111 0.0000
0.7222 0.5833 0.0000
0.7222 0.6389 0.0000
0.6667 0.7222 0.0000
0.7222 0.6944 0.0000
0.7222 0.7500 0.0000
0.6667 0.8333 0.0000
0.7222 0.8056 0.0000
0.7222 0.8611 0.0000
0.6667 0.9444 0.0000
0.7222 0.9167 0.0000
0.7222 0.9722 0.0000
0.8889 0.0556 0.0000
0.9444 0.0278 0.0000
0.9444 0.0833 0.0000
0.8889 0.1667 0.0000
0.9444 0.1389 0.0000
0.9444 0.1944 0.0000
0.8889 0.2778 0.0000
0.9444 0.2500 0.0000
0.9444 0.3056 0.0000
0.8889 0.3889 0.0000
0.9444 0.3611 0.0000
0.9444 0.4167 0.0000
0.8889 0.5000 0.0000
0.9444 0.4722 0.0000
0.9444 0.5278 0.0000
0.8889 0.6111 0.0000
0.9444 0.5833 0.0000
0.9444 0.6389 0.0000
0.8889 0.7222 0.0000
0.9444 0.6944 0.0000
0.9444 0.7500 0.0000
0.8889 0.8333 0.0000
0.9444 0.8056 0.0000
0.9444 0.8611 0.0000
0.8889 0.9444 0.0000
0.9444 0.9167 0.0000
0.9444 0.9722 0.0000
1.1111 0.0556 0.0000
1.1667 0.0278 0.0000
1.1667 0.0833 0.0000
1.1111 0.1667 0.0000
1.1667 0.1389 0.0000
1.1667 0.1944 0.0000
1.1111 0.2778 0.0000
1.1667 0.2500 0.0000
1.1667 0.3056 0.0000
1.1111 0.3889 0.0000
1.1667 0.3611 0.0000
1.1667 0.4167 0.0000
1.1111 0.5000 0.0000
1.1667 0.4722 0.0000
1.1667 0.5278 0.0000
1.1111 0.6111 0.0000
1.1667 0.5833 0.0000
1.1667 0.6389 0.0000
1.1111 0.7222 0.0000
1.1667 0.6944 0.0000
1.1667 0.7500 0.0000
1.1111 0.8333 0.0000
1.1667 0.8056 0.0000
1.1667 0.8611 0.0000
1.1111 0.9444 0.0000
1.1667 0.9167 0.0000
1.1667 0.9722 0.0000
1.3333 0.0556 0.0000
1.3889 0.0278 0.0000
1.3889 0.0833 0.0000
1.3333 0.1667 0.0000
1.3889 0.1389 0.0000
1.3889 0.1944 0.0000
1.3333 0.2778 0.0000
1.3889 0.2500 0.0000
1.3889 0.3056 0.0000
1.3333 0.3889 0.0000
1.3889 0.3611 0.0000
1.3889 0.4167 0.0000
1.3333 0.5000 0.0000
1.3889 0.4722 0.0000
1.3889 0.5278 0.0000
1.3333 0.6111 0.0000
1.3889 0.5833 0.0000
1.3889 0.6389 0.0000
1.3333 0.7222 0.0000
1.3889 0.6944 0.0000
1.3889 0.7500 0.0000
1.3333 0.8333 0.0000
1.3889 0.8056 0.0000
1.3889 0.8611 0.0000
1.3333 0.9444 0.0000
1.3889 0.9167 0.0000
1.3889 0.9722 0.0000
1.5556 0.0556 0.0000
1.6111 0.0278 0.0000
1.6111 0.0833 0.0000
1.5556 0.1667 0.0000
1.6111 0.1389 0.0000
1.6111 0.1944 0.0000
1.5556 0.2778 0.0000
1.6111 0.2500 0.0000
1.6111 0.3056 0.0000
1.5556 0.3889 0.0000
1.6111 0.3611 0.0000
1.6111 0.4167 0.0000
1.5556 0.5000 0.0000
1.6111 0.4722 0.0000
1.6111 0.5278 0.0000
1.5556 0.6111 0.0000
1.6111 0.5833 0.0000
1.6111 0.6389 0.0000
1.5556 0.7222 0.0000
1.6111 0.6944 0.0000
1.6111 0.7500 0.0000
1.5556 0.8333 0.0000
1.6111 0.8056 0.0000
1.6111 0.8611 0.0000
1.5556 0.9444 0.0000
1.6111 0.9167 0.0000
1.6111 0.9722 0.0000
1.7778 0.0556 0.0000
1.8333 0.0278 0.0000
1.8333 0.0833 0.0000
1.7778 0.1667 0.0000
1.8333 0.1389 0.0000
1.8333 0.1944 0.0000
1.7778 0.2778 0.0000
1.8333 0.2500 0.0000
1.8333 0.3056 0.0000
1.7778 0.3889 0.0000
1.8333 0.3611 0.0000
1.8333 0.4167 0.0000
1.7778 0.5000 0.0000
1.8333 0.4722 0.0000
1.8333 0.5278 0.0000
1.7778 0.6111 0.0000
1.8333 0.5833 0.0000
1.8333 0.6389 0.0000
1.7778 0.7222 0.0000
1.8333 0.6944 0.0000
1.8333 0.7500 0.0000
1.7778 0.8333 0.0000
1.8333 0.8056 0.0000
1.8333 0.8611 0.0000
1.7778 0.9444 0.0000
1.8333 0.9167 0.0000
1.8333 0.9722 0.0000
0.1111 0.1111 0.0000
0.1667 0.0833 0.0000
0.1111 0.2222 0.0000
0.1667 0.1944 0.0000
0.1111 0.3333 0.0000
0.1667 0.3056 0.0000
0.1111 0.4444 0.0000
0.1667 0.4167 0.0000
0.1111 0.5556 0.0000
0.1667 0.5278 0.0000
0.1111 0.6667 0.0000
0.1667 0.6389 0.0000
0.1111 0.7778 0.0000
0.1667 0.7500 0.0000
0.1111 0.8889 0.0000
0.1667 0.8611 0.0000
0.1111 1.0000 0.0000
0.1667 0.9722 0.0000
0.3333 0.1111 0.0000
0.3889 0.0833 0.0000
0.3333 0.2222 0.0000
0.3889 0.1944 0.0000
0.3333 0.3333 0.0000
0.3889 0.3056 0.0000
0.3333 0.4444 0.0000
0.3889 0.4167 0.0000
0.3333 0.5556 0.0000
0.3889 0.5278 0.0000
0.3333 0.6667 0.0000
0.3889 0.6389 0.0000
0.3333 0.7778 0.0000
0.3889 0.7500 0.0000
0.3333 0.8889 0.0000
0.3889 0.8611 0.0000
0.3333 1.0000 0.0000
0.3889 0.9722 0.0000
0.5556 0.1111 0.0000
[...]
         <PointData>
            <DataArray Name="fValues" NumberOfComponents="3" format="ascii" type="Float64">
       00000  2.84930e-25        00000 
 2.76717e-25 -4.92182e-25        00000 
-5.67037e-25  2.32951e-25        00000 
-4.89924e-25 -2.44962e-24        00000 
-4.42248e-25  5.82380e-25        00000 
 1.22481e-24  4.89924e-25        00000 
-3.64071e-25  7.30063e-25        00000 
       00000 -9.78962e-25        00000 
-1.84522e-25 -9.84119e-25        00000 
 2.84930e-25        00000        00000 
-1.92923e-09  5.31646e-10        00000 
 8.80541e-10 -1.40793e-09        00000 
 7.04518e-09 -5.13381e-09        00000 
 3.32790e-09 -1.33384e-09        00000 
-3.17457e-09 -8.79010e-09        00000 
 1.08773e-09 -6.52629e-09        00000 
 4.01894e-11 -2.50156e-09        00000 
-3.15231e-09 -4.87243e-09        00000 
-4.22216e-09 -5.32783e-09        00000 
-5.12576e-09 -1.69020e-08        00000 
 6.56056e-09  1.03695e-09        00000 
-5.22061e-09 -1.36170e-09        00000 
 6.77725e-10 -9.43351e-09        00000 
 3.38946e-09  7.27901e-09        00000 
-8.09203e-10  1.74861e-09        00000 
 4.66872e-09  6.54712e-09        00000 
 5.00042e-09  5.05903e-09        00000 
 1.61863e-09 -2.14187e-09        00000 
-2.00844e-09  6.30708e-09        00000 
-5.36054e-09  1.22933e-08        00000 
 1.21111e-09  1.40099e-08        00000 
 9.27006e-10 -3.02266e-09        00000 
 5.90283e-09 -9.19576e-09        00000 
 4.53000e-09 -7.29279e-09        00000 
 7.91587e-10 -9.65131e-09        00000 
 5.67559e-09 -1.63798e-09        00000 
 4.66191e-09 -2.16610e-09        00000 
 2.96135e-10  2.07402e-09        00000 
 1.22852e-09  5.91699e-09        00000 
-2.35766e-09 -1.25649e-08        00000 
-4.92116e-09  1.69584e-08        00000 
 6.42155e-09  5.22339e-09        00000 
 1.29914e-08 -5.60252e-10        00000 
 4.37684e-09 -1.22470e-09        00000 
 6.64537e-09 -4.64704e-09        00000 
 8.28680e-09  9.29169e-09        00000 
 7.94905e-09  5.48367e-09        00000 
 5.73694e-09  9.87727e-09        00000 
-1.12038e-09  1.13818e-08        00000 
 6.93712e-09 -1.30832e-09        00000 
-2.69040e-09 -7.73552e-09        00000 
-5.16656e-09 -1.99239e-09        00000 
-2.72690e-09 -1.57181e-08        00000 
-9.24378e-09 -1.71214e-08        00000 
-9.27778e-09 -1.57778e-08        00000 
-1.78153e-09 -4.89187e-09        00000 
 1.25289e-09 -1.28310e-08        00000 
 4.10887e-09 -1.34893e-09        00000 
-1.62650e-09 -7.84905e-10        00000 
 3.98898e-10  1.07470e-08        00000 
-8.45102e-09 -1.23284e-08        00000 
-2.89810e-09  4.38356e-09        00000 
 1.11887e-08  4.81379e-10        00000 
-7.01867e-10  1.22230e-08        00000 
-3.64161e-10  8.60194e-09        00000 
 8.43964e-09  1.10948e-08        00000 
 5.51814e-09  8.11762e-09        00000 
 1.45198e-08  1.25392e-08        00000 
 6.87148e-09  9.77210e-09        00000 
-3.86182e-09  6.90008e-09        00000 
 5.77705e-10  1.07338e-08        00000 
-3.96904e-09  8.10619e-09        00000 
-4.68232e-10  6.14164e-09        00000 
 2.01756e-09  9.52336e-09        00000 
-1.74484e-09  1.48601e-09        00000 
-4.04661e-09  5.56537e-10        00000 
-7.52061e-09 -7.05917e-09        00000 
-4.27317e-09 -1.08120e-08        00000 
-2.07240e-09 -5.34015e-09        00000 
-1.22617e-09  4.66639e-09        00000 
-7.53361e-09  9.01683e-09        00000 
-1.02871e-08  1.42956e-08        00000 
-1.03403e-08  6.19520e-09        00000 
-1.83605e-09  1.10128e-08        00000 
 2.75109e-09  6.29037e-09        00000 
-5.23087e-10  5.34743e-09        00000 
 7.13806e-09  1.84306e-09        00000 
 4.80859e-09  8.96959e-09        00000 
 4.72269e-09  1.68028e-08        00000 
-2.95443e-09  4.62308e-09        00000 
-1.35086e-08 -7.73348e-09        00000 
-1.00639e-08 -1.01736e-08        00000 
-3.88345e-09 -1.03810e-08        00000 
-5.56247e-09 -5.76537e-09        00000 
-5.31857e-09 -3.50196e-09        00000 
-1.90021e-09 -5.29144e-09        00000 
 5.45288e-09 -8.68776e-09        00000 
 9.97991e-09 -6.02723e-09        00000 
 1.22606e-08 -4.28360e-09        00000 
 1.75786e-09  1.30820e-09        00000 
 1.20598e-09 -1.63724e-09        00000 
-9.15461e-09 -6.68976e-11        00000 
-4.97172e-09 -9.95434e-09        00000 
-7.10882e-09 -1.11587e-08        00000 
-3.96704e-09  8.45901e-10        00000 
-2.13123e-09 -2.39861e-09        00000 
-3.03549e-09 -1.15417e-09        00000 
-6.41323e-09  1.58305e-09        00000 
-4.84390e-09  5.05166e-10        00000 
 1.21421e-09 -1.20210e-08        00000 
 5.35321e-09 -4.17377e-09        00000 
 7.77005e-09 -1.71785e-09        00000 
 7.92876e-09  5.32589e-10        00000 
 8.21336e-09  2.45832e-09        00000 
 7.95657e-09 -7.35349e-10        00000 
 9.60769e-09  7.28457e-09        00000 
 4.37902e-09  1.87691e-09        00000 
-4.92518e-09 -2.29180e-10        00000 
 5.78737e-09  2.71920e-09        00000 
 1.87478e-09  4.47125e-09        00000 
 1.63044e-10  1.92717e-10        00000 
 3.17377e-09  3.76435e-09        00000 
-3.31845e-09  5.00307e-09        00000 
-1.01365e-08  3.35424e-09        00000 
 1.73478e-09  8.36403e-09        00000 
-9.25317e-09  1.01160e-08        00000 
-4.13590e-09  9.43234e-09        00000 
-2.16963e-09 -5.54815e-09        00000 
-6.08607e-09  9.08763e-09        00000 
-6.29171e-09  5.49146e-09        00000 
-3.77358e-09  1.85468e-08        00000 
-1.27976e-09  1.22008e-08        00000 
-1.63752e-09  1.41933e-08        00000 
 6.34122e-10  1.83903e-08        00000 
-7.48860e-11  1.29620e-08        00000 
-8.17997e-09  2.29008e-08        00000 
 7.49901e-09 -1.95658e-09        00000 
 3.41830e-09  5.81358e-09        00000 
-5.00999e-09  6.64244e-09        00000 
-1.09666e-08  1.04116e-08        00000 
-5.57363e-09  2.40133e-09        00000 
-7.97866e-09  8.54301e-09        00000 
-6.24599e-09  1.08762e-08        00000 
 9.79657e-10  7.34593e-09        00000 
-7.47674e-10  1.10791e-08        00000 
-3.16359e-09 -7.48311e-09        00000 
-4.63565e-09  2.12630e-09        00000 
-1.05892e-09 -8.46804e-09        00000 
-1.32740e-08 -3.62555e-09        00000 
-1.60029e-08 -1.58617e-09        00000 
-1.06958e-08 -2.64837e-09        00000 
-7.43722e-09  1.31517e-09        00000 
-4.83098e-10 -4.91759e-09        00000 
-1.75755e-08 -4.80778e-09        00000 
 4.44995e-09  1.08045e-08        00000 
 5.25246e-09  8.65639e-09        00000 
 1.00212e-08  4.12415e-09        00000 
 9.92040e-09  8.35157e-09        00000 
 5.80117e-09  6.31391e-09        00000 
 9.30333e-09  3.37325e-10        00000 
 6.13364e-09 -5.09640e-09        00000 
 1.44885e-09 -4.27484e-09        00000 
 3.11969e-09 -7.40705e-09        00000 
 1.46570e-09 -4.12942e-09        00000 
 4.73286e-09 -4.23060e-10        00000 
 8.18619e-09 -4.00971e-09        00000 
 9.29452e-09 -2.01964e-09        00000 
 2.92983e-09  2.35240e-10        00000 
 7.00540e-09 -4.34288e-09        00000 
 6.63519e-09  8.03773e-10        00000 
 3.53393e-09  2.80924e-09        00000 
 9.28399e-10 -9.32389e-10        00000 
-5.31471e-09  7.34314e-09        00000 
 9.92196e-10  6.88113e-09        00000 
 3.69387e-09  2.86299e-09        00000 
 1.13436e-08  2.51397e-09        00000 
 1.17483e-08  2.38069e-09        00000 
 1.30208e-08  1.62153e-08        00000 
 2.07068e-08  1.29274e-08        00000 
 1.41770e-08  1.63852e-08        00000 
 8.54170e-09  1.27866e-08        00000 
 7.11824e-26 -8.21722e-25        00000 
-2.26946e-09  3.10943e-09        00000 
 8.65752e-10 -3.85522e-09        00000 
 9.45062e-26  8.33592e-25        00000 
 7.74427e-09 -1.04049e-09        00000 
 6.52028e-09 -8.51450e-09        00000 
 4.65289e-25 -2.79173e-24        00000 
 8.39347e-10 -9.37057e-09        00000 
-2.86379e-09 -1.23586e-08        00000 
-1.32216e-24 -2.88880e-24        00000 
-3.44798e-09 -1.13805e-08        00000 
-4.26663e-09 -8.27613e-09        00000 
 1.45403e-25 -2.32645e-24        00000 
 5.12159e-10 -8.14785e-09        00000 
-5.94573e-10 -8.18187e-09        00000 
-4.04611e-25 -1.21677e-25        00000 
-5.02933e-09 -1.04210e-08        00000 
-3.79441e-09 -9.74756e-10        00000 
-6.97934e-25  9.30578e-25        00000 
-5.71476e-09 -7.70934e-09        00000 
-2.55849e-09 -5.70319e-09        00000 
-4.65289e-25 -6.97934e-25        00000 
-5.95565e-09 -5.68729e-09        00000 
-1.97649e-09 -5.92249e-09        00000 
 4.58781e-25  1.15089e-24        00000 
-8.69838e-10 -7.22299e-09        00000 
 3.25067e-09  6.58070e-09        00000 
 1.84675e-09 -7.41585e-11        00000 
 6.66200e-10 -1.35428e-09        00000 
 5.11381e-09 -7.47777e-09        00000 
 7.51046e-09 -1.37202e-09        00000 
-3.02374e-10 -1.84779e-09        00000 
-2.15093e-09  6.55209e-10        00000 
 9.18561e-09 -1.52393e-09        00000 
-1.60797e-09 -8.07057e-10        00000 
 1.63477e-09 -4.16028e-09        00000 
 4.67889e-09 -3.79535e-09        00000 
 2.17328e-09 -5.05315e-09        00000 
 7.86409e-10 -7.53504e-09        00000 
-6.37111e-10 -2.08879e-09        00000 
-1.35045e-09 -5.91452e-09        00000 
-1.43620e-10 -2.14342e-09        00000 
-1.63135e-09  1.32702e-09        00000 
 4.19882e-11 -2.68976e-09        00000 
 4.87617e-09 -4.60495e-09        00000 
 3.74626e-09  3.11835e-09        00000 
 3.20083e-10  1.19666e-09        00000 
 4.45029e-09  1.23424e-10        00000 
-3.18665e-09  3.57456e-09        00000 
-5.24190e-09 -2.27557e-09        00000 
 2.02854e-10 -2.60164e-09        00000 
 2.34506e-09 -8.42657e-10        00000 
 4.09461e-10 -9.33058e-09        00000 
-1.64026e-09  1.59841e-08        00000 
 5.00428e-09 -1.29557e-09        00000 
 3.35601e-09  7.23484e-09        00000 
 7.79013e-09 -5.28524e-09        00000 
 2.39949e-09 -1.99295e-09        00000 
-1.26022e-09  3.81195e-09        00000 
-1.32057e-09 -2.40475e-09        00000 
 6.47514e-09 -3.24682e-09        00000 
 6.84557e-11 -4.94390e-09        00000 
-1.06456e-08 -6.00708e-09        00000 
 5.21199e-10  3.89267e-09        00000 
 1.10824e-09 -1.55354e-09        00000 
-4.33970e-10 -5.80777e-09        00000 
-7.22212e-12 -4.00202e-10        00000 
-1.25815e-10  2.27445e-09        00000 
-2.96754e-09 -4.21179e-09        00000 
 4.29704e-10  4.98008e-09        00000 
-2.16419e-09 -2.39756e-10        00000 
 2.19581e-09  4.59432e-10        00000 
 8.33727e-09  1.97017e-09        00000 
-4.37399e-09  8.17597e-09        00000 
-2.67955e-09 -1.93012e-09        00000 
 1.20518e-09  7.00389e-09        00000 
-2.21959e-09  5.02775e-09        00000 
-1.36817e-09 -2.25663e-09        00000 
 2.86972e-10 -1.56468e-09        00000 
-8.36198e-09  7.14552e-09        00000 
-4.93265e-09  1.01500e-08        00000 
 2.78453e-09 -6.74307e-09        00000 
 7.88134e-10 -2.86019e-08        00000 
 1.31109e-08  9.00521e-09        00000 
 2.94477e-09 -2.64185e-09        00000 
-2.64094e-09 -6.54962e-09        00000 
 5.27520e-09  2.62180e-09        00000 
 9.05030e-09  4.46853e-09        00000 
 3.58527e-09 -5.71768e-09        00000 
-6.53289e-10 -1.91748e-09        00000 
 5.42948e-09  1.05541e-08        00000 
 3.30957e-09 -1.75960e-09        00000 
 7.61386e-09 -5.39771e-09        00000 
 5.41979e-09  7.32096e-09        00000 
 4.54746e-09  4.06046e-09        00000 
-4.03211e-09  3.29580e-09        00000 
-1.28011e-09  5.79464e-09        00000 
-3.71785e-09 -1.69475e-09        00000 
-2.69709e-10  3.00440e-10        00000 
 1.21290e-08  7.07827e-09        00000 
-2.29039e-09  7.72126e-09        00000 
-5.46267e-10 -2.73045e-09        00000 
-1.55652e-09  1.90303e-09        00000 
-1.55841e-10 -2.71894e-10        00000 
 3.46351e-09  6.85137e-09        00000 
-9.39042e-09  8.61534e-09        00000 
-1.54058e-09 -1.59268e-08        00000 
 2.09368e-09  4.20350e-08        00000 
 8.00763e-09 -1.92907e-08        00000 
-6.39348e-09 -1.27391e-08        00000 
 8.90052e-09  4.94910e-09        00000 
 1.13368e-08 -5.08668e-09        00000 
-4.85622e-09 -5.18897e-09        00000 
-6.79380e-09  3.95232e-09        00000 
 2.14337e-09 -4.23308e-10        00000 
-7.96368e-09  2.40441e-09        00000 
-9.01713e-09 -7.11424e-09        00000 
-2.12990e-09  1.45130e-08        00000 
-4.84555e-09 -1.93381e-09        00000 
-7.26681e-09 -1.13402e-08        00000 
 2.43034e-09  8.71563e-09        00000 
 2.81108e-10  4.85304e-10        00000 
-8.74927e-09 -1.04516e-08        00000 
-2.15290e-09  1.93936e-09        00000 
-5.56887e-09  1.86097e-09        00000 
-4.90103e-09 -5.38643e-09        00000 
 4.70005e-10  4.49246e-09        00000 
-3.62534e-09  6.00031e-09        00000 
-3.34837e-09 -4.02817e-09        00000 
 3.01723e-09  5.41652e-10        00000 
-9.32077e-09  1.18725e-10        00000 
-8.55064e-09 -2.19309e-09        00000 
 4.11669e-10  9.03366e-09        00000 
-8.73933e-09  3.56530e-10        00000 
-7.31937e-09  2.39477e-08        00000 
-9.46584e-10  2.25433e-09        00000 
-8.04123e-09  1.29759e-08        00000 
-5.98021e-09 -8.52670e-09        00000 
-9.69862e-09  7.92286e-09        00000 
-5.66571e-10 -1.54708e-09        00000 
-6.08825e-09 -7.58531e-09        00000 
-5.67431e-09  4.70129e-09        00000 
 9.89398e-10 -2.65676e-09        00000 
-8.76383e-09 -1.26186e-08        00000 
-8.75925e-09  7.05221e-09        00000 
-2.47493e-09 -5.67039e-09        00000 
-8.60475e-09 -2.48600e-08        00000 
-2.94449e-09  3.10536e-09        00000 
-4.23744e-09  7.59098e-11        00000 
-1.40777e-08 -1.58310e-08        00000 
-1.15852e-08  1.98677e-10        00000 
-4.45434e-09 -3.14620e-09        00000 
-8.86687e-09 -1.00576e-08        00000 
 3.35321e-10  9.85197e-10        00000 
 7.92709e-10  5.64077e-09        00000 
-2.07593e-09 -8.49317e-09        00000 
-4.75061e-09 -3.00769e-09        00000 
 2.45391e-09 -3.98756e-09        00000 
-1.83228e-09 -6.74635e-09        00000 
-5.67552e-09 -3.17435e-09        00000 
-2.54832e-09  3.47127e-09        00000 
-3.78222e-09 -1.74231e-08        00000 
-3.17248e-09 -7.41877e-09        00000 
-9.69998e-09  5.53046e-09        00000 
-1.00169e-08  3.46260e-09        00000 
 4.64978e-09  2.26317e-09        00000 
-8.67789e-09  1.16417e-09        00000 
-1.25674e-08  7.03786e-09        00000 
-2.04162e-09 -3.84477e-09        00000 
-9.68528e-09 -4.51038e-10        00000 
-9.28044e-09  3.99889e-09        00000 
-4.09671e-09 -2.98426e-09        00000 
-1.86003e-08 -2.60502e-09        00000 
-1.18527e-08  9.95441e-10        00000 
 7.04719e-09 -7.09822e-09        00000 
-1.90766e-08 -1.01371e-09        00000 
-8.91411e-09 -2.81028e-09        00000 
 2.75542e-09 -2.24833e-09        00000 
-1.29025e-08  4.12106e-09        00000 
-9.65312e-09  9.01346e-09        00000 
 1.15982e-08 -2.97325e-09        00000 
-1.61758e-08  1.28911e-08        00000 
-1.30572e-08  3.08023e-09        00000 
 1.03504e-08 -2.41304e-09        00000 
-6.32021e-09  9.77683e-09        00000 
-1.23487e-09 -1.68067e-09        00000 
 8.21857e-09 -3.64874e-09        00000 
-3.97865e-09  3.86505e-09        00000 
-8.01525e-10 -7.12162e-09        00000 
-1.10527e-09 -3.44070e-09        00000 
-6.60128e-09  2.01331e-09        00000 
-9.26348e-09  8.21641e-09        00000 
-2.48777e-09 -4.69603e-09        00000 
-6.62569e-09  4.49619e-09        00000 
-3.31659e-09 -3.08507e-09        00000 
-3.31365e-10 -1.33678e-08        00000 
-5.28734e-09  8.82074e-09        00000 
-1.02109e-10  1.53264e-09        00000 
-1.03890e-08 -1.24442e-08        00000 
-4.81522e-09 -9.82551e-10        00000 
-1.90909e-09 -7.14652e-09        00000 
-2.77368e-09 -6.57217e-09        00000 
-5.52552e-09 -6.70086e-10        00000 
-1.31249e-09 -5.78536e-09        00000 
-7.16270e-09 -5.63868e-09        00000 
-4.81165e-10 -1.15472e-09        00000 
 4.08783e-09 -1.03612e-08        00000 
-6.38949e-09 -5.05835e-09        00000 
 2.13598e-09 -1.00785e-09        00000 
-9.10581e-10 -5.03029e-09        00000 
-1.23200e-09 -1.49206e-09        00000 
-4.03504e-10 -3.55236e-09        00000 
-1.27494e-09 -1.08083e-08        00000 
-5.07397e-10 -5.64420e-09        00000 
-4.84995e-09  2.48698e-10        00000 
 7.00517e-09 -7.46537e-09        00000 
-1.13536e-08 -5.54019e-10        00000 
-1.49338e-08  5.99514e-09        00000 
 3.80793e-09  8.62917e-09        00000 
-4.26420e-09 -8.95207e-09        00000 
-1.13507e-08  2.31017e-09        00000 
 1.93738e-09  5.55236e-09        00000 
 3.24613e-09 -7.09478e-09        00000 
-6.62143e-09  6.87871e-10        00000 
 5.42992e-09  7.85356e-09        00000 
 5.65455e-09 -8.61626e-09        00000 
-1.15891e-08 -6.20611e-09        00000 
-4.29540e-09  1.12882e-08        00000 
 2.39274e-09 -4.09483e-10        00000 
-8.99952e-09 -1.08315e-08        00000 
-4.15317e-09  8.66746e-09        00000 
 5.59193e-09 -8.50496e-09        00000 
-1.07811e-08 -6.23055e-10        00000 
 3.93346e-09  8.60630e-09        00000 
 7.11677e-09 -7.23676e-09        00000 
-6.81833e-09 -7.19757e-09        00000 
 8.04938e-11  1.51917e-08        00000 
 1.14346e-08 -1.22862e-08        00000 
-7.97691e-10  5.52394e-10        00000 
 8.44066e-09  2.94941e-09        00000 
 4.31408e-09 -5.60443e-09        00000 
-5.08450e-09  1.80137e-10        00000 
 2.83843e-09 -3.13871e-09        00000 
-3.66642e-09  8.25194e-09        00000 
-1.05675e-09  6.05003e-09        00000 
-3.49670e-09 -1.36380e-10        00000 
 8.40010e-09  1.02553e-08        00000 
 3.09498e-09  2.06867e-09        00000 
 6.20061e-09  1.02849e-08        00000 
-3.01337e-10  4.25856e-09        00000 
 3.27068e-09  8.75548e-09        00000 
-3.07574e-09  4.11776e-10        00000 
 1.99788e-09  1.29224e-08        00000 
-4.49500e-10  1.47034e-09        00000 
 6.20765e-09  9.22568e-09        00000 
-1.18383e-09 -2.70686e-09        00000 
 3.49263e-09  7.46782e-09        00000 
-5.38096e-09 -3.62905e-10        00000 
 8.44467e-10  9.96756e-09        00000 
-5.78552e-09 -1.19378e-08        00000 
-7.86192e-09  1.03567e-08        00000 
 1.07583e-08 -1.95542e-09        00000 
 4.18200e-09  9.19537e-09        00000 
 4.42369e-09  3.32608e-09        00000 
 1.44071e-09  1.07753e-08        00000 
 1.14586e-08  1.23605e-09        00000 
-2.58106e-09  1.17815e-08        00000 
 1.23421e-08  2.43598e-09        00000 
 4.23038e-10  1.65506e-08        00000 
 1.19031e-08 -4.27114e-10        00000 
-7.50239e-09  1.00646e-08        00000 
 8.79395e-09 -1.25972e-09        00000 
 5.87825e-11  4.87990e-09        00000 
 7.59587e-09 -6.13931e-09        00000 
-7.43315e-09  1.11697e-08        00000 
-4.25376e-09  2.83758e-09        00000 
-5.82805e-09  5.98735e-09        00000 
-4.70779e-09 -3.06662e-09        00000 
-6.52069e-09 -8.21725e-11        00000 
 9.46772e-09 -1.68177e-09        00000 
 2.49139e-09  7.46103e-09        00000 
-2.22723e-09 -2.79718e-09        00000 
-1.38168e-09  9.22347e-09        00000 
 2.15475e-09  3.88332e-10        00000 
-5.49248e-09  1.77396e-08        00000 
 7.39151e-09 -3.37187e-10        00000 
 3.35355e-09  1.80238e-08        00000 
-6.59406e-09 -7.75912e-09        00000 
-1.02826e-08  8.53560e-09        00000 
-4.74791e-09 -1.32235e-09        00000 
 5.89865e-09  1.91692e-09        00000 
-7.29981e-09  4.00760e-09        00000 
-1.27057e-09  1.27336e-08        00000 
-1.16997e-08  1.14743e-08        00000 
-1.69082e-09  5.01169e-09        00000 
 6.88146e-09  1.32088e-08        00000 
 5.26732e-09  1.66073e-08        00000 
 5.35263e-09 -8.69580e-09        00000 
-3.00008e-09  1.11261e-08        00000 
-2.28725e-10 -2.69465e-09        00000 
 2.84876e-11  6.61308e-09        00000 
-4.18532e-09  3.17455e-09        00000 
-6.55788e-09  4.80452e-09        00000 
 4.05728e-09 -1.07681e-08        00000 
-4.53863e-09  9.85740e-09        00000 
-1.49555e-09 -3.14910e-09        00000 
-1.61036e-08  1.60964e-09        00000 
-3.91363e-09 -5.52939e-09        00000 
 1.30908e-11 -8.29691e-09        00000 
-1.60819e-09 -1.43898e-09        00000 
-4.61040e-09  5.40415e-09        00000 
-7.39440e-09  3.38822e-09        00000 
-8.27710e-09  1.11158e-08        00000 
-1.51005e-09 -2.04847e-08        00000 
-1.04713e-08  2.35922e-08        00000 
 2.29877e-09 -8.41606e-09        00000 