<?xml version="1.0" encoding="utf-8"?>
<VTKFile byte_order="LittleEndian" type="UnstructuredGrid" version="0.1">
   <UnstructuredGrid>
      <Piece NumberOfCells="1296" NumberOfPoints="685">
         <Points>
            <DataArray Name="Points" NumberOfComponents="3" format="ascii" type="Float32">
0.0000 0.0000 0.0000
0.0000 0.1111 0.0000
0.0000 0.2222 0.0000
0.0000 0.3333 0.0000
0.0000 0.4444 0.0000
0.0000 0.5556 0.0000
0.0000 0.6667 0.0000
0.0000 0.7778 0.0000
0.0000 0.8889 0.0000
0.0000 1.0000 0.0000
0.2222 0.0000 0.0000
0.2222 0.1111 0.0000
0.2222 0.2222 0.0000
0.2222 0.3333 0.0000
0.2222 0.4444 0.0000
0.2222 0.5556 0.0000
0.2222 0.6667 0.0000
0.2222 0.7778 0.0000
0.2222 0.8889 0.0000
0.2222 1.0000 0.0000
0.4444 0.0000 0.0000
0.4444 0.1111 0.0000
0.4444 0.2222 0.0000
0.4444 0.3333 0.0000
0.4444 0.4444 0.0000
0.4444 0.5556 0.0000
0.4444 0.6667 0.0000
0.4444 0.7778 0.0000
0.4444 0.8889 0.0000
0.4444 1.0000 0.0000
0.6667 0.0000 0.0000
0.6667 0.1111 0.0000
0.6667 0.2222 0.0000
0.6667 0.3333 0.0000
0.6667 0.4444 0.0000
0.6667 0.5556 0.0000
0.6667 0.6667 0.0000
0.6667 0.7778 0.0000
0.6667 0.8889 0.0000
0.6667 1.0000 0.0000
0.8889 0.0000 0.0000
0.8889 0.1111 0.0000
0.8889 0.2222 0.0000
0.8889 0.3333 0.0000
0.8889 0.4444 0.0000
0.8889 0.5556 0.0000
0.8889 0.6667 0.0000
0.8889 0.7778 0.0000
0.8889 0.8889 0.0000
0.8889 1.0000 0.0000
1.1111 0.0000 0.0000
1.1111 0.1111 0.0000
1.1111 0.2222 0.0000
1.1111 0.3333 0.0000
1.1111 0.4444 0.0000
1.1111 0.5556 0.0000
1.1111 0.6667 0.0000
1.1111 0.7778 0.0000
1.1111 0.8889 0.0000
1.1111 1.0000 0.0000
1.3333 0.0000 0.0000
1.3333 0.1111 0.0000
1.3333 0.2222 0.0000
1.3333 0.3333 0.0000
1.3333 0.4444 0.0000
1.3333 0.5556 0.0000
1.3333 0.6667 0.0000
1.3333 0.7778 0.0000
1.3333 0.8889 0.0000
1.3333 1.0000 0.0000
1.5556 0.0000 0.0000
1.5556 0.1111 0.0000
1.5556 0.2222 0.0000
1.5556 0.3333 0.0000
1.5556 0.4444 0.0000
1.5556 0.5556 0.0000
1.5556 0.6667 0.0000
1.5556 0.7778 0.0000
1.5556 0.8889 0.0000
1.5556 1.0000 0.0000
1.7778 0.0000 0.0000
1.7778 0.1111 0.0000
1.7778 0.2222 0.0000
1.7778 0.3333 0.0000
1.7778 0.4444 0.0000
1.7778 0.5556 0.0000
1.7778 0.6667 0.0000
1.7778 0.7778 0.0000
1.7778 0.8889 0.0000
1.7778 1.0000 0.0000
2.0000 0.0000 0.0000
2.0000 0.1111 0.0000
2.0000 0.2222 0.0000
2.0000 0.3333 0.0000
2.0000 0.4444 0.0000
2.0000 0.5556 0.0000
2.0000 0.6667 0.0000
2.0000 0.7778 0.0000
2.0000 0.8889 0.0000
2.0000 1.0000 0.0000
0.1111 0.0556 0.0000
0.1111 0.1667 0.0000
0.1111 0.2778 0.0000
0.1111 0.3889 0.0000
0.1111 0.5000 0.0000
0.1111 0.6111 0.0000
0.1111 0.7222 0.0000
0.1111 0.8333 0.0000
0.1111 0.9444 0.0000
0.3333 0.0556 0.0000
0.3333 0.1667 0.0000
0.3333 0.2778 0.0000
0.3333 0.3889 0.0000
0.3333 0.5000 0.0000
0.3333 0.6111 0.0000
0.3333 0.7222 0.0000
0.3333 0.8333 0.0000
0.3333 0.9444 0.0000
0.5556 0.0556 0.0000
0.5556 0.1667 0.0000
0.5556 0.2778 0.0000
0.5556 0.3889 0.0000
0.5556 0.5000 0.0000
0.5556 0.6111 0.0000
0.5556 0.7222 0.0000
0.5556 0.8333 0.0000
0.5556 0.9444 0.0000
0.7778 0.0556 0.0000
0.7778 0.1667 0.0000
0.7778 0.2778 0.0000
0.7778 0.3889 0.0000
0.7778 0.5000 0.0000
0.7778 0.6111 0.0000
0.7778 0.7222 0.0000
0.7778 0.8333 0.0000
0.7778 0.9444 0.0000
1.0000 0.0556 0.0000
1.0000 0.1667 0.0000
1.0000 0.2778 0.0000
1.0000 0.3889 0.0000
1.0000 0.5000 0.0000
1.0000 0.6111 0.0000
1.0000 0.7222 0.0000
1.0000 0.8333 0.0000
1.0000 0.9444 0.0000
1.2222 0.0556 0.0000
1.2222 0.1667 0.0000
1.2222 0.2778 0.0000
1.2222 0.3889 0.0000
1.2222 0.5000 0.0000
1.2222 0.6111 0.0000
1.2222 0.7222 0.0000
1.2222 0.8333 0.0000
1.2222 0.9444 0.0000
1.4444 0.0556 0.0000
1.4444 0.1667 0.0000
1.4444 0.2778 0.0000
1.4444 0.3889 0.0000
1.4444 0.5000 0.0000
1.4444 0.6111 0.0000
1.4444 0.7222 0.0000
1.4444 0.8333 0.0000
1.4444 0.9444 0.0000
1.6667 0.0556 0.0000
1.6667 0.1667 0.0000
1.6667 0.2778 0.0000
1.6667 0.3889 0.0000
1.6667 0.5000 0.0000
1.6667 0.6111 0.0000
1.6667 0.7222 0.0000
1.6667 0.8333 0.0000
1.6667 0.9444 0.0000
1.8889 0.0556 0.0000
1.8889 0.1667 0.0000
1.8889 0.2778 0.0000
1.8889 0.3889 0.0000
1.8889 0.5000 0.0000
1.8889 0.6111 0.0000
1.8889 0.7222 0.0000
1.8889 0.8333 0.0000
1.8889 0.9444 0.0000
0.0000 0.0556 0.0000
0.0556 0.0278 0.0000
0.0556 0.0833 0.0000
0.0000 0.1667 0.0000
0.0556 0.1389 0.0000
0.0556 0.1944 0.0000
0.0000 0.2778 0.0000
0.0556 0.2500 0.0000
0.0556 0.3056 0.0000
0.0000 0.3889 0.0000
0.0556 0.3611 0.0000
0.0556 0.4167 0.0000
0.0000 0.5000 0.0000
0.0556 0.4722 0.0000
0.0556 0.5278 0.0000
0.0000 0.6111 0.0000
0.0556 0.5833 0.0000
0.0556 0.6389 0.0000
0.0000 0.7222 0.0000
0.0556 0.6944 0.0000
0.0556 0.7500 0.0000
0.0000 0.8333 0.0000
0.0556 0.8056 0.0000
0.0556 0.8611 0.0000
0.0000 0.9444 0.0000
0.0556 0.9167 0.0000
0.0556 0.9722 0.0000
0.2222 0.0556 0.0000
0.2778 0.0278 0.0000
0.2778 0.0833 0.0000
0.2222 0.1667 0.0000
0.2778 0.1389 0.0000
0.2778 0.1944 0.0000
0.2222 0.2778 0.0000
0.2778 0.2500 0.0000
0.2778 0.3056 0.0000
0.2222 0.3889 0.0000
0.2778 0.3611 0.0000
0.2778 0.4167 0.0000
0.2222 0.5000 0.0000
0.2778 0.4722 0.0000
0.2778 0.5278 0.0000
0.2222 0.6111 0.0000
0.2778 0.5833 0.0000
0.2778 0.6389 0.0000
0.2222 0.7222 0.0000
0.2778 0.6944 0.0000
0.2778 0.7500 0.0000
0.2222 0.8333 0.0000
0.2778 0.8056 0.0000
0.2778 0.8611 0.0000
0.2222 0.9444 0.0000
0.2778 0.9167 0.0000
0.2778 0.9722 0.0000
0.4444 0.0556 0.0000
0.5000 0.0278 0.0000
0.5000 0.0833 0.0000
0.4444 0.1667 0.0000
0.5000 0.1389 0.0000
0.5000 0.1944 0.0000
0.4444 0.2778 0.0000
0.5000 0.2500 0.0000
0.5000 0.3056 0.0000
0.4444 0.3889 0.0000
0.5000 0.3611 0.0000
0.5000 0.4167 0.0000
0.4444 0.5000 0.0000
0.5000 0.4722 0.0000
0.5000 0.5278 0.0000
0.4444 0.6111 0.0000
0.5000 0.5833 0.0000
0.5000 0.6389 0.0000
0.4444 0.7222 0.0000
0.5000 0.6944 0.0000
0.5000 0.7500 0.0000
0.4444 0.8333 0.0000
0.5000 0.8056 0.0000
0.5000 0.8611 0.0000
0.4444 0.9444 0.0000
0.5000 0.9167 0.0000
0.5000 0.9722 0.0000
0.6667 0.0556 0.0000
0.7222 0.0278 0.0000
0.7222 0.0833 0.0000
0.6667 0.1667 0.0000
0.7222 0.1389 0.0000
0.7222 0.1944 0.0000
0.6667 0.2778 0.0000
0.7222 0.2500 0.0000
0.7222 0.3056 0.0000
0.6667 0.3889 0.0000
0.7222 0.3611 0.0000
0.7222 0.4167 0.0000
0.6667 0.5000 0.0000
0.7222 0.4722 0.0000
0.7222 0.5278 0.0000
0.6667 0.6111 0.0000
0.7222 0.5833 0.0000
0.7222 0.6389 0.0000
0.6667 0.7222 0.0000
0.7222 0.6944 0.0000
0.7222 0.7500 0.0000
0.6667 0.8333 0.0000
0.7222 0.8056 0.0000
0.7222 0.8611 0.0000
0.6667 0.9444 0.0000
0.7222 0.9167 0.0000
0.7222 0.9722 0.0000
0.8889 0.0556 0.0000
0.9444 0.0278 0.0000
0.9444 0.0833 0.0000
0.8889 0.1667 0.0000
0.9444 0.1389 0.0000
0.9444 0.1944 0.0000
0.8889 0.2778 0.0000
0.9444 0.2500 0.0000
0.9444 0.3056 0.0000
0.8889 0.3889 0.0000
0.9444 0.3611 0.0000
0.9444 0.4167 0.0000
0.8889 0.5000 0.0000
0.9444 0.4722 0.0000
0.9444 0.5278 0.0000
0.8889 0.6111 0.0000
0.9444 0.5833 0.0000
0.9444 0.6389 0.0000
0.8889 0.7222 0.0000
0.9444 0.6944 0.0000
0.9444 0.7500 0.0000
0.8889 0.8333 0.0000
0.9444 0.8056 0.0000
0.9444 0.8611 0.0000
0.8889 0.9444 0.0000
0.9444 0.9167 0.0000
0.9444 0.9722 0.0000
1.1111 0.0556 0.0000
1.1667 0.0278 0.0000
1.1667 0.0833 0.0000
1.1111 0.1667 0.0000
1.1667 0.1389 0.0000
1.1667 0.1944 0.0000
1.1111 0.2778 0.0000
1.1667 0.2500 0.0000
1.1667 0.3056 0.0000
1.1111 0.3889 0.0000
1.1667 0.3611 0.0000
1.1667 0.4167 0.0000
1.1111 0.5000 0.0000
1.1667 0.4722 0.0000
1.1667 0.5278 0.0000
1.1111 0.6111 0.0000
1.1667 0.5833 0.0000
1.1667 0.6389 0.0000
1.1111 0.7222 0.0000
1.1667 0.6944 0.0000
1.1667 0.7500 0.0000
1.1111 0.8333 0.0000
1.1667 0.8056 0.0000
1.1667 0.8611 0.0000
1.1111 0.9444 0.0000
1.1667 0.9167 0.0000
1.1667 0.9722 0.0000
1.3333 0.0556 0.0000
1.3889 0.0278 0.0000
1.3889 0.0833 0.0000
1.3333 0.1667 0.0000
1.3889 0.1389 0.0000
1.3889 0.1944 0.0000
1.3333 0.2778 0.0000
1.3889 0.2500 0.0000
1.3889 0.3056 0.0000
1.3333 0.3889 0.0000
1.3889 0.3611 0.0000
1.3889 0.4167 0.0000
1.3333 0.5000 0.0000
1.3889 0.4722 0.0000
1.3889 0.5278 0.0000
1.3333 0.6111 0.0000
1.3889 0.5833 0.0000
1.3889 0.6389 0.0000
1.3333 0.7222 0.0000
1.3889 0.6944 0.0000
1.3889 0.7500 0.0000
1.3333 0.8333 0.0000
1.3889 0.8056 0.0000
1.3889 0.8611 0.0000
1.3333 0.9444 0.0000
1.3889 0.9167 0.0000
1.3889 0.9722 0.0000
1.5556 0.0556 0.0000
1.6111 0.0278 0.0000
1.6111 0.0833 0.0000
1.5556 0.1667 0.0000
1.6111 0.1389 0.0000
1.6111 0.1944 0.0000
1.5556 0.2778 0.0000
1.6111 0.2500 0.0000
1.6111 0.3056 0.0000
1.5556 0.3889 0.0000
1.6111 0.3611 0.0000
1.6111 0.4167 0.0000
1.5556 0.5000 0.0000
1.6111 0.4722 0.0000
1.6111 0.5278 0.0000
1.5556 0.6111 0.0000
1.6111 0.5833 0.0000
1.6111 0.6389 0.0000
1.5556 0.7222 0.0000
1.6111 0.6944 0.0000
1.6111 0.7500 0.0000
1.5556 0.8333 0.0000
1.6111 0.8056 0.0000
1.6111 0.8611 0.0000
1.5556 0.9444 0.0000
1.6111 0.9167 0.0000
1.6111 0.9722 0.0000
1.7778 0.0556 0.0000
1.8333 0.0278 0.0000
1.8333 0.0833 0.0000
1.7778 0.1667 0.0000
1.8333 0.1389 0.0000
1.8333 0.1944 0.0000
1.7778 0.2778 0.0000
1.8333 0.2500 0.0000
1.8333 0.3056 0.0000
1.7778 0.3889 0.0000
1.8333 0.3611 0.0000
1.8333 0.4167 0.0000
1.7778 0.5000 0.0000
1.8333 0.4722 0.0000
1.8333 0.5278 0.0000
1.7778 0.6111 0.0000
1.8333 0.5833 0.0000
1.8333 0.6389 0.0000
1.7778 0.7222 0.0000
1.8333 0.6944 0.0000
1.8333 0.7500 0.0000
1.7778 0.8333 0.0000
1.8333 0.8056 0.0000
1.8333 0.8611 0.0000
1.7778 0.9444 0.0000
1.8333 0.9167 0.0000
1.8333 0.9722 0.0000
0.1111 0.1111 0.0000
0.1667 0.0833 0.0000
0.1111 0.2222 0.0000
0.1667 0.1944 0.0000
0.1111 0.3333 0.0000
0.1667 0.3056 0.0000
0.1111 0.4444 0.0000
0.1667 0.4167 0.0000
0.1111 0.5556 0.0000
0.1667 0.5278 0.0000
0.1111 0.6667 0.0000
0.1667 0.6389 0.0000
0.1111 0.7778 0.0000
0.1667 0.7500 0.0000
0.1111 0.8889 0.0000
0.1667 0.8611 0.0000
0.1111 1.0000 0.0000
0.1667 0.9722 0.0000
0.3333 0.1111 0.0000
0.3889 0.0833 0.0000
0.3333 0.2222 0.0000
0.3889 0.1944 0.0000
0.3333 0.3333 0.0000
0.3889 0.3056 0.0000
0.3333 0.4444 0.0000
0.3889 0.4167 0.0000
0.3333 0.5556 0.0000
0.3889 0.5278 0.0000
0.3333 0.6667 0.0000
0.3889 0.6389 0.0000
0.3333 0.7778 0.0000
0.3889 0.7500 0.0000
0.3333 0.8889 0.0000
0.3889 0.8611 0.0000
0.3333 1.0000 0.0000
0.3889 0.9722 0.0000
0.5556 0.1111 0.0000
[...]
         <PointData>
            <DataArray Name="fValues" NumberOfComponents="3" format="ascii" type="Float64">
       00000 -2.91769e-22        00000 
-8.81559e-22 -1.40105e-21        00000 
-2.30180e-21  1.27312e-21        00000 
 3.13552e-21 -2.82196e-21        00000 
 8.20132e-21  1.61471e-21        00000 
-3.76262e-22  2.00673e-21        00000 
-1.94372e-21  4.87897e-22        00000 
 1.00246e-21 -1.87961e-22        00000 
-2.01548e-21  1.32266e-21        00000 
-1.16707e-21 -1.16707e-21        00000 
-7.48622e-06  2.59112e-05        00000 
-1.71913e-06  1.31619e-05        00000 
 1.86085e-05 -1.30646e-05        00000 
-3.31185e-06  7.21100e-08        00000 
-5.98928e-06 -2.23329e-05        00000 
 2.38824e-06  1.61761e-05        00000 
 4.69998e-06  4.50203e-06        00000 
 2.54958e-05  1.88113e-05        00000 
 5.77057e-06 -6.53240e-07        00000 
 8.17006e-06  1.84707e-05        00000 
 2.88762e-06  5.45870e-05        00000 
 1.74856e-05  1.13364e-05        00000 
-8.49313e-06 -2.12480e-05        00000 
-3.65107e-05 -2.64992e-05        00000 
 1.30892e-05 -5.87671e-06        00000 
 4.87440e-06 -9.90166e-06        00000 
 3.23534e-06  2.15678e-05        00000 
 1.87853e-06 -1.15070e-05        00000 
 9.82418e-07  1.30336e-05        00000 
 1.24273e-05  1.34768e-05        00000 
 1.05011e-05  3.37082e-05        00000 
 1.49605e-06  1.21632e-05        00000 
 8.91987e-06  2.14108e-05        00000 
-3.50626e-05 -5.89712e-06        00000 
 1.64865e-05 -7.57066e-06        00000 
 3.08735e-05  1.50215e-05        00000 
-1.05541e-06  2.99858e-05        00000 
-8.59977e-06 -4.67692e-06        00000 
 6.67599e-06 -1.30338e-05        00000 
-1.52148e-05  4.50221e-05        00000 
-2.79552e-05 -1.87392e-05        00000 
 5.99889e-07  3.20418e-05        00000 
-1.17150e-05 -1.02922e-05        00000 
-2.26832e-05 -8.81993e-06        00000 
-1.17314e-05  6.07348e-06        00000 
-2.59754e-05 -1.18275e-05        00000 
-7.90167e-06  1.88482e-05        00000 
-1.03186e-05 -1.54538e-05        00000 
-1.56687e-05 -1.38787e-05        00000 
-2.77691e-05 -1.01314e-06        00000 
 1.60505e-05 -5.46701e-05        00000 
-1.45573e-05 -8.55271e-06        00000 
 1.18800e-05  6.98292e-06        00000 
-6.59090e-06 -4.53062e-06        00000 
-1.22833e-05 -6.36347e-06        00000 
-1.35094e-06  9.00053e-06        00000 
-1.72007e-05  1.20383e-05        00000 
-1.72184e-05  8.77299e-06        00000 
-2.90779e-05 -7.50922e-06        00000 
-2.34683e-05  3.44063e-05        00000 
 3.16788e-07  1.60136e-05        00000 
-1.08325e-05  9.50046e-06        00000 
-7.36308e-06 -1.66119e-05        00000 
 7.14807e-06  1.24859e-05        00000 
-4.62770e-07  1.31723e-05        00000 
-4.78120e-06  8.71691e-06        00000 
-4.35036e-06  2.61152e-06        00000 
-2.94158e-05 -5.48299e-06        00000 
-1.39027e-05  1.87306e-05        00000 
 1.28997e-05  4.58691e-05        00000 
-1.53590e-05 -1.00091e-05        00000 
-7.12282e-06  9.88907e-06        00000 
-5.78113e-06  3.20001e-06        00000 
 5.36538e-06  8.18152e-07        00000 
-7.35814e-06  1.42610e-05        00000 
-9.15627e-06  4.72139e-06        00000 
-4.61874e-06  1.22973e-05        00000 
-1.13122e-06  3.57848e-05        00000 
 1.04134e-06 -3.17950e-06        00000 
-2.64502e-05 -2.94745e-05        00000 
 4.83110e-07 -4.83951e-05        00000 
-1.72773e-06 -1.16274e-06        00000 
-2.29093e-05 -6.41427e-06        00000 
-8.98438e-06  3.06224e-07        00000 
-1.74969e-05 -4.15587e-06        00000 
-9.31971e-06  1.32464e-05        00000 
-2.04968e-05  1.70396e-05        00000 
-1.09402e-05  1.33535e-05        00000 
-2.29160e-05  2.92197e-05        00000 
-1.20574e-05  1.85796e-05        00000 
 1.01153e-05  1.05696e-05        00000 
 9.14778e-06  7.85423e-06        00000 
 8.52528e-07  1.03367e-05        00000 
 7.75526e-06  1.12163e-05        00000 
 1.54823e-05 -1.12344e-05        00000 
-1.52167e-06  1.09289e-05        00000 
-1.30077e-05  2.18964e-05        00000 
-6.59644e-06  1.98804e-05        00000 
 7.28565e-06  6.56859e-07        00000 
-1.62793e-05  6.43703e-06        00000 
-2.82646e-06 -6.82100e-07        00000 
 1.02319e-05 -4.92514e-06        00000 
 2.34952e-05  6.89794e-06        00000 
 4.72168e-06  9.03001e-06        00000 
 1.72051e-06  8.88192e-06        00000 
 2.32518e-06 -2.36872e-06        00000 
-2.19102e-06  1.43298e-06        00000 
-1.13547e-05  1.11855e-05        00000 
 1.35102e-05  6.92555e-06        00000 
-7.22094e-06 -2.04756e-05        00000 
-6.58085e-07  9.98819e-06        00000 
 1.42602e-05 -3.22394e-06        00000 
 3.78012e-06 -8.61136e-06        00000 
-1.44712e-06 -8.52635e-06        00000 
 3.24080e-07  5.52313e-06        00000 
 4.91335e-06  1.12906e-05        00000 
 2.18966e-06 -3.39657e-06        00000 
-2.11408e-06  1.50570e-06        00000 
 1.47192e-05 -3.73508e-06        00000 
-6.40373e-06 -4.77313e-06        00000 
-8.58013e-06 -1.31420e-05        00000 
-2.47835e-06 -1.01914e-05        00000 
 7.96836e-07  2.33290e-06        00000 
 2.47013e-05  5.15684e-06        00000 
 6.12836e-06 -1.13565e-05        00000 
 2.49119e-05 -1.29119e-06        00000 
 2.44907e-05 -2.00553e-05        00000 
-9.74964e-06 -3.82202e-06        00000 
 1.13226e-05  2.83364e-05        00000 
-4.74718e-06  1.94294e-05        00000 
 1.86645e-05  2.46215e-05        00000 
-9.01088e-06 -1.01819e-06        00000 
 1.67305e-05  2.41452e-05        00000 
 1.89518e-05  1.95126e-06        00000 
 9.57441e-07 -3.09521e-06        00000 
-4.87647e-06 -9.59689e-06        00000 
-1.77189e-06  2.85256e-05        00000 
 3.80245e-05  4.21064e-05        00000 
 1.15653e-05  2.00748e-05        00000 
 1.27080e-05 -5.68228e-06        00000 
 8.45965e-06  2.08513e-05        00000 
 2.52878e-05  3.01708e-05        00000 
 1.05154e-05  2.59799e-05        00000 
-6.34168e-06  1.31031e-05        00000 
-6.38819e-06  1.06983e-05        00000 
-1.18219e-05  1.81631e-06        00000 
-7.99178e-06 -1.29142e-05        00000 
 1.36228e-06  4.95469e-06        00000 
 8.48428e-06 -6.63487e-07        00000 
 8.14135e-06  1.63306e-05        00000 
 2.08770e-07  9.39831e-06        00000 
-4.65166e-06  1.41609e-05        00000 
 2.99685e-06 -5.11688e-06        00000 
-2.18245e-05 -2.25863e-05        00000 
 1.29170e-05 -1.11649e-05        00000 
-2.78018e-05 -2.67447e-05        00000 
-2.84950e-06  1.62805e-06        00000 
 1.03294e-05  7.74425e-07        00000 
-1.84301e-05  9.10162e-06        00000 
-3.11975e-05  6.31843e-06        00000 
 2.49365e-06  3.33276e-06        00000 
-1.73914e-05  1.47962e-05        00000 
-1.07228e-05  2.65759e-06        00000 
 5.54192e-06  3.67570e-05        00000 
-4.74886e-06  1.10215e-05        00000 
 5.98144e-07  8.09298e-06        00000 
-1.77493e-05  1.07313e-05        00000 
-2.91046e-06  2.28209e-05        00000 
-2.56078e-05  1.79271e-05        00000 
 5.37362e-06  3.19768e-05        00000 
 1.39910e-05  1.56008e-05        00000 
 4.67882e-06  3.29765e-05        00000 
-6.90853e-06  1.36197e-05        00000 
 1.65233e-06  4.02047e-05        00000 
 1.49159e-06  1.93702e-05        00000 
 1.36588e-06  1.94386e-05        00000 
-4.96605e-06  3.43762e-05        00000 
-2.11800e-05  1.77565e-05        00000 
 1.59019e-06  3.19528e-05        00000 
 1.22534e-05  3.44149e-05        00000 
 8.45398e-06  7.26541e-06        00000 
-6.48385e-22  1.62325e-21        00000 
 4.17768e-06 -2.74839e-06        00000 
 5.54478e-06  1.04330e-05        00000 
 1.45406e-22  5.32275e-22        00000 
 2.23823e-06 -7.30094e-07        00000 
-5.02878e-07  1.85007e-07        00000 
 4.76456e-22 -1.07203e-21        00000 
-9.15551e-06  2.67987e-06        00000 
 1.07537e-05 -1.26148e-05        00000 
 9.22602e-23  3.42342e-21        00000 
-6.27518e-07 -2.07593e-06        00000 
 1.81748e-05  2.09538e-05        00000 
 4.76456e-21  1.54848e-21        00000 
 1.31451e-05  2.78515e-06        00000 
 6.33413e-06  1.47741e-05        00000 
-1.22453e-21 -1.03423e-21        00000 
 2.26501e-06 -1.05129e-05        00000 
-1.46972e-05 -2.94438e-06        00000 
       00000  7.14684e-22        00000 
 9.09652e-06  5.72145e-06        00000 
 1.01312e-05 -6.99317e-06        00000 
 4.76456e-22        00000        00000 
-8.43190e-06 -1.42759e-06        00000 
-7.91792e-06  2.08292e-06        00000 
 3.66450e-22  8.33819e-24        00000 
-5.99440e-06  6.37140e-06        00000 
-9.21656e-06 -1.42080e-05        00000 
-2.23848e-05 -1.52185e-06        00000 
 5.41500e-06 -2.30040e-05        00000 
 1.41674e-06  9.42204e-06        00000 
-1.09693e-06 -6.46439e-06        00000 
 1.05153e-05  3.14303e-05        00000 
-1.62047e-05  1.13727e-06        00000 
 6.49873e-06 -1.95869e-05        00000 
 6.22565e-06  1.16522e-05        00000 
 2.79067e-05 -9.53663e-06        00000 
-1.78905e-06  1.38059e-05        00000 
 3.15926e-05 -9.55297e-06        00000 
 8.71106e-06 -1.79688e-05        00000 
-6.16666e-06  7.44669e-06        00000 
 6.50256e-06  1.27172e-05        00000 
 7.55648e-06  2.01481e-05        00000 
 4.47070e-06  5.44189e-06        00000 
 1.12960e-05 -5.16902e-06        00000 
 1.23572e-05  4.82303e-06        00000 
 5.86624e-06 -2.12469e-05        00000 
 1.32280e-05  8.13886e-06        00000 
 1.55279e-05  9.91748e-06        00000 
 4.35810e-06  8.88546e-06        00000 
 2.06874e-05  7.81624e-06        00000 
-8.75324e-06 -7.50603e-06        00000 
 7.78567e-06  1.30948e-05        00000 
-2.92430e-06 -8.24468e-07        00000 
 3.55237e-06  6.13203e-06        00000 
 8.26817e-06 -1.35699e-06        00000 
 2.80699e-05 -3.80645e-05        00000 
 1.81326e-05  2.18622e-05        00000 
-3.96136e-06 -1.36486e-05        00000 
 6.67350e-06 -7.70621e-06        00000 
-2.18063e-05 -9.54374e-06        00000 
-2.62556e-05 -1.10736e-06        00000 
 5.07986e-06 -8.07081e-06        00000 
 4.70166e-06 -7.23490e-06        00000 
 7.20393e-06  8.55084e-06        00000 
 4.83241e-06 -1.05886e-05        00000 
-1.21458e-06 -1.15421e-05        00000 
 6.74280e-07  1.34527e-05        00000 
-2.96302e-05 -1.94689e-05        00000 
-1.60020e-06 -4.15040e-06        00000 
-2.91181e-06 -1.10067e-06        00000 
-3.59723e-07 -6.42031e-06        00000 
 8.43813e-07  1.82997e-05        00000 
-5.69861e-06 -1.52128e-05        00000 
-1.54923e-05 -2.13284e-05        00000 
-1.44697e-05 -1.07993e-06        00000 
 1.97608e-07 -1.77821e-05        00000 
 2.09213e-06  2.82749e-06        00000 
 1.57218e-05  1.67238e-05        00000 
-4.53731e-06  3.98115e-05        00000 
 2.42386e-05  3.75506e-06        00000 
 1.68032e-05 -2.96478e-05        00000 
-4.27780e-06 -7.27088e-06        00000 
-5.26889e-06 -9.24957e-06        00000 
 1.23483e-05  4.94033e-06        00000 
 4.59769e-06 -7.00542e-06        00000 
 6.95216e-06  1.37480e-05        00000 
 2.02095e-05  8.61503e-06        00000 
-1.50299e-05 -1.87768e-06        00000 
 1.04300e-05  1.49807e-05        00000 
 1.15288e-05  2.09753e-05        00000 
 1.02312e-05  2.32321e-05        00000 
 1.11122e-05  1.63920e-05        00000 
 7.56766e-06  4.83736e-06        00000 
-1.01915e-05  1.54882e-05        00000 
 4.76850e-06  2.34839e-05        00000 
 2.24622e-06  1.03063e-05        00000 
-1.41728e-05  1.41472e-05        00000 
-1.05523e-06 -3.99580e-07        00000 
 9.39424e-06  1.62129e-05        00000 
-1.64429e-05 -5.42600e-06        00000 
-1.69793e-06  1.62803e-05        00000 
-1.53061e-05 -7.41849e-06        00000 
-1.16690e-06  9.38747e-07        00000 
 4.28442e-06  1.35704e-05        00000 
 2.21501e-06  1.16448e-06        00000 
-1.86852e-05  1.91347e-06        00000 
 2.65770e-05  1.69463e-05        00000 
 3.02021e-05 -2.37335e-05        00000 
-4.11595e-05 -3.02739e-05        00000 
-1.64092e-06  1.17804e-07        00000 
-8.97733e-06  7.22189e-06        00000 
 9.94147e-06  8.32348e-06        00000 
 3.85606e-06 -1.35544e-07        00000 
-1.34060e-05  1.26742e-05        00000 
 2.21572e-06  5.21273e-06        00000 
 6.09723e-06  2.52935e-05        00000 
-9.86075e-06  2.45830e-06        00000 
 3.02746e-06  5.15684e-06        00000 
 1.17609e-05 -4.42258e-06        00000 
-2.41517e-05 -1.11272e-05        00000 
-2.37526e-05 -7.62817e-07        00000 
-5.41416e-06  8.20778e-06        00000 
-1.10858e-05 -8.62757e-06        00000 
-1.39528e-05 -8.62795e-06        00000 
-3.64009e-06 -1.06144e-05        00000 
 2.21076e-05  1.27994e-05        00000 
-8.20128e-06 -1.12786e-06        00000 
 3.54208e-06  3.34556e-06        00000 
 2.42607e-05  2.76147e-05        00000 
-1.53419e-05  1.33321e-05        00000 
 1.25039e-05  5.59793e-06        00000 
 9.67088e-06 -9.61293e-06        00000 
-3.51972e-06  1.45179e-05        00000 
 2.11073e-05  2.17043e-06        00000 
 1.46297e-05  1.74466e-05        00000 
-1.69688e-05  1.43905e-05        00000 
 1.42281e-05  4.88642e-05        00000 
-1.74082e-05 -1.87577e-05        00000 
 1.15902e-05 -5.17279e-06        00000 
-5.80478e-07  1.79531e-05        00000 
 5.46101e-06  2.39876e-06        00000 
 1.67254e-05  6.53750e-06        00000 
-4.78550e-06  2.46855e-05        00000 
-8.73348e-06 -2.84724e-07        00000 
 3.74867e-06  2.83120e-06        00000 
 3.61636e-06  8.40974e-06        00000 
 1.70389e-06 -1.43285e-05        00000 
-4.39987e-06 -6.11775e-06        00000 
 1.68484e-06  3.66196e-06        00000 
 5.04279e-06 -3.79113e-06        00000 
 5.71574e-06  1.29637e-05        00000 
 8.37972e-06 -1.53918e-05        00000 
 1.40024e-05  1.38771e-05        00000 
-6.44791e-06  1.95823e-05        00000 
-7.05941e-06 -8.01987e-06        00000 
-1.63841e-05 -6.16349e-06        00000 
-1.70014e-05  1.14114e-05        00000 
-1.31591e-05 -1.00857e-05        00000 
 5.45057e-06  8.00039e-06        00000 
-8.29407e-06  2.05771e-05        00000 
 7.15797e-06  2.16380e-05        00000 
 3.04853e-06 -3.47591e-05        00000 
-1.61761e-05 -5.52026e-07        00000 
 7.43387e-06 -5.05915e-06        00000 
-4.77182e-06  1.72390e-05        00000 
-1.72630e-05  1.74331e-05        00000 
-2.20559e-06 -1.44782e-05        00000 
-4.39494e-06  9.29672e-06        00000 
-3.07934e-05  1.24490e-05        00000 
 3.77611e-06 -1.18555e-05        00000 
-2.81112e-06  1.85562e-05        00000 
-2.55482e-05 -2.64919e-05        00000 
 1.45975e-05  3.45736e-06        00000 
 7.48319e-06  1.36110e-05        00000 
-9.57792e-06  2.89363e-06        00000 
 2.72150e-05  1.09630e-05        00000 
 9.25971e-07 -1.71753e-05        00000 
-1.33493e-05  1.33055e-05        00000 
-3.57385e-06  3.03590e-05        00000 
 1.06672e-05  8.21744e-06        00000 
-1.31298e-05  2.44325e-05        00000 
 7.01401e-06  3.37093e-05        00000 
-2.03059e-05  7.16933e-06        00000 
-3.11591e-05  1.09218e-05        00000 
 9.06316e-07  9.13863e-06        00000 
 3.87133e-06  2.75116e-05        00000 
-9.27221e-06  8.07273e-06        00000 
 1.75047e-05  7.29362e-06        00000 
 1.55787e-06  5.92994e-06        00000 
 1.75768e-05  1.51202e-05        00000 
-9.46665e-06  6.78628e-05        00000 
 1.22417e-05 -1.56145e-05        00000 
 1.17666e-05  1.08661e-05        00000 
 1.32205e-06  3.71634e-05        00000 
 4.76080e-06 -7.23487e-06        00000 
 7.93469e-06  2.18878e-05        00000 
-1.62236e-05 -1.22753e-05        00000 
 8.23301e-06  1.58492e-05        00000 
 3.62356e-08  6.97578e-06        00000 
 1.14388e-05 -1.89943e-06        00000 
-1.75434e-05  2.14692e-05        00000 
-1.15229e-05 -6.47668e-07        00000 
-7.33340e-06 -1.55236e-06        00000 
 4.89182e-06  2.22189e-05        00000 
-9.18681e-06 -1.79024e-05        00000 
-5.43799e-06 -7.01431e-06        00000 
 8.42733e-06 -8.31275e-06        00000 
 1.76263e-05  5.69054e-06        00000 
 9.10632e-06  1.87195e-05        00000 
 2.19492e-05 -1.23725e-06        00000 
-1.40687e-05 -1.50489e-05        00000 
 6.68537e-06 -2.55056e-06        00000 
 4.53385e-06  1.44694e-05        00000 
-1.51783e-06  1.91912e-05        00000 
-1.62819e-06  5.04342e-06        00000 
 9.46619e-06  4.11848e-05        00000 
-1.80834e-06 -6.62637e-07        00000 
 3.99233e-07  4.54471e-05        00000 
 2.66353e-05 -1.75278e-05        00000 
-2.13230e-05  8.06316e-06        00000 
 1.17212e-05  1.14509e-05        00000 
 1.03807e-05 -1.05147e-05        00000 
-1.44755e-05  1.42111e-05        00000 
 1.26454e-05  1.30790e-05        00000 
 6.28045e-06 -3.24278e-06        00000 
-4.52216e-06  1.08041e-05        00000 
-3.95398e-06 -5.72569e-06        00000 
 1.69760e-05  3.79997e-06        00000 
 1.39382e-06  2.13923e-05        00000 
-4.28642e-06  3.70219e-06        00000 
 4.46460e-06  6.10563e-06        00000 
-5.09968e-06 -1.20199e-06        00000 
-1.66132e-06 -7.72936e-06        00000 
 6.93070e-06  4.00327e-06        00000 
-2.44763e-06  1.86852e-05        00000 
-1.35787e-05 -6.34906e-06        00000 
 7.51480e-06  1.54203e-05        00000 
-6.12563e-06  1.91509e-05        00000 
-1.03002e-05 -8.12086e-07        00000 
 4.00707e-05 -3.92389e-06        00000 
 7.43993e-06 -1.92793e-05        00000 
 1.64641e-06  1.70971e-05        00000 
 6.19865e-06 -1.67063e-05        00000 
-1.89893e-05 -4.47288e-06        00000 
-7.64334e-06 -9.27924e-06        00000 
 1.66213e-05 -4.13764e-06        00000 
 2.94655e-05  4.70774e-06        00000 
 4.84283e-06  5.67122e-06        00000 
 3.82188e-06 -5.11544e-06        00000 
 5.30749e-06  2.16601e-06        00000 
 1.02636e-05 -3.16076e-06        00000 
 1.18760e-05  1.38069e-05        00000 
 1.50260e-05  1.01222e-05        00000 
 9.51415e-06  1.41557e-05        00000 
 8.48385e-06  6.66761e-06        00000 
 1.36171e-05 -1.04998e-05        00000 
-7.51339e-06 -9.73187e-06        00000 
 8.12833e-06  1.02113e-05        00000 
 2.38596e-05  3.00120e-06        00000 
 2.22536e-05  2.20163e-05        00000 
 4.52677e-06  5.19615e-06        00000 
 1.21857e-05  7.54919e-06        00000 
 1.57800e-05  5.58914e-06        00000 
 1.79949e-06  1.47088e-05        00000 
 8.41608e-06 -7.95141e-06        00000 
 1.87712e-05  3.14473e-05        00000 
 2.96307e-06  7.21736e-06        00000 
 8.87903e-06  1.33760e-05        00000 
 1.59065e-05  4.73349e-06        00000 
 7.54525e-06  1.65774e-05        00000 
 7.30657e-06  5.70824e-06        00000 
-5.57895e-08 -2.99596e-06        00000 
-9.94223e-06 -2.75334e-06        00000 
 1.41702e-05  2.05599e-05        00000 
 8.18488e-06 -4.71008e-07        00000 
-8.97245e-07 -8.78388e-06        00000 
 1.32543e-05  2.41244e-07        00000 
-4.55866e-06 -8.94873e-07        00000 
 2.66217e-05  1.47229e-05        00000 
 8.39149e-06  1.75777e-05        00000 
-3.18383e-06  4.74260e-06        00000 
 9.07630e-06  3.98308e-06        00000 
-1.79278e-06  2.09256e-05        00000 
 3.85950e-06  2.66137e-05        00000 
 1.41189e-05  1.88298e-05        00000 
-3.91704e-06 -1.16555e-05        00000 
 1.84142e-05 -1.45363e-05        00000 
 8.57081e-06 -1.26230e-05        00000 
 2.53968e-05  1.41504e-05        00000 
 8.29017e-08 -5.29618e-06        00000 
 9.11324e-07 -2.75347e-06        00000 
 2.16202e-05  2.64113e-06        00000 
 1.81570e-06 -1.00731e-05        00000 
 1.33952e-05 -1.80434e-06        00000 
 1.88625e-05 -2.21931e-05        00000 
 1.30042e-05  2.40006e-05        00000 
 1.31648e-06 -3.01565e-05        00000 
 4.09074e-06  1.43955e-05        00000 
-4.84036e-06 -3.76942e-05        00000 
 1.17658e-05  1.14767e-05        00000 
-1.89209e-05  2.47054e-05        00000 
-9.78989e-08  4.84265e-06        00000 
-1.61692e-05  6.42571e-06        00000 
 4.68340e-06 -2.25948e-05        00000 
-1.69514e-05 -1.46710e-05        00000 
 8.61254e-06 -8.60751e-06        00000 
 4.63579e-06 -5.99026e-06        00000 
 1.08003e-05 -1.55372e-06        00000 
-3.09477e-05 -1.30454e-05        00000 
-5.72760e-06 -2.17311e-05        00000 
-9.86212e-06 -1.11529e-05        00000 
-2.76239e-05 -3.42437e-06        00000 
-8.31202e-07 -1.98935e-05        00000 
 1.01553e-05 -8.45140e-07        00000 
 5.13634e-06 -1.09831e-05        00000 
-1.86357e-05 -2.40749e-06        00000 