<?xml version="1.0" encoding="utf-8"?>
<VTKFile byte_order="LittleEndian" type="UnstructuredGrid" version="0.1">
   <UnstructuredGrid>
      <Piece NumberOfCells="1296" NumberOfPoints="685">
         <Points>
            <DataArray Name="Points" NumberOfComponents="3" format="ascii" type="Float32">
0.0000 0.0000 0.0000
0.0000 0.1111 0.0000
0.0000 0.2222 0.0000
0.0000 0.3333 0.0000
0.0000 0.4444 0.0000
0.0000 0.5556 0.0000
0.0000 0.6667 0.0000
0.0000 0.7778 0.0000
0.0000 0.8889 0.0000
0.0000 1.0000 0.0000
0.2222 0.0000 0.0000
0.2222 0.1111 0.0000
0.2222 0.2222 0.0000
0.2222 0.3333 0.0000
0.2222 0.4444 0.0000
0.2222 0.5556 0.0000
0.2222 0.6667 0.0000
0.2222 0.7778 0.0000
0.2222 0.8889 0.0000
0.2222 1.0000 0.0000
0.4444 0.0000 0.0000
0.4444 0.1111 0.0000
0.4444 0.2222 0.0000
0.4444 0.3333 0.0000
0.4444 0.4444 0.0000
0.4444 0.5556 0.0000
0.4444 0.6667 0.0000
0.4444 0.7778 0.0000
0.4444 0.8889 0.0000
0.4444 1.0000 0.0000
0.6667 0.0000 0.0000
0.6667 0.1111 0.0000
0.6667 0.2222 0.0000
0.6667 0.3333 0.0000
0.6667 0.4444 0.0000
0.6667 0.5556 0.0000
0.6667 0.6667 0.0000
0.6667 0.7778 0.0000
0.6667 0.8889 0.0000
0.6667 1.0000 0.0000
0.8889 0.0000 0.0000
0.8889 0.1111 0.0000
0.8889 0.2222 0.0000
0.8889 0.3333 0.0000
0.8889 0.4444 0.0000
0.8889 0.5556 0.0000
0.8889 0.6667 0.0000
0.8889 0.7778 0.0000
0.8889 0.8889 0.0000
0.8889 1.0000 0.0000
1.1111 0.0000 0.0000
1.1111 0.1111 0.0000
1.1111 0.2222 0.0000
1.1111 0.3333 0.0000
1.1111 0.4444 0.0000
1.1111 0.5556 0.0000
1.1111 0.6667 0.0000
1.1111 0.7778 0.0000
1.1111 0.8889 0.0000
1.1111 1.0000 0.0000
1.3333 0.0000 0.0000
1.3333 0.1111 0.0000
1.3333 0.2222 0.0000
1.3333 0.3333 0.0000
1.3333 0.4444 0.0000
1.3333 0.5556 0.0000
1.3333 0.6667 0.0000
1.3333 0.7778 0.0000
1.3333 0.8889 0.0000
1.3333 1.0000 0.0000
1.5556 0.0000 0.0000
1.5556 0.1111 0.0000
1.5556 0.2222 0.0000
1.5556 0.3333 0.0000
1.5556 0.4444 0.0000
1.5556 0.5556 0.0000
1.5556 0.6667 0.0000
1.5556 0.7778 0.0000
1.5556 0.8889 0.0000
1.5556 1.0000 0.0000
1.7778 0.0000 0.0000
1.7778 0.1111 0.0000
1.7778 0.2222 0.0000
1.7778 0.3333 0.0000
1.7778 0.4444 0.0000
1.7778 0.5556 0.0000
1.7778 0.6667 0.0000
1.7778 0.7778 0.0000
1.7778 0.8889 0.0000
1.7778 1.0000 0.0000
2.0000 0.0000 0.0000
2.0000 0.1111 0.0000
2.0000 0.2222 0.0000
2.0000 0.3333 0.0000
2.0000 0.4444 0.0000
2.0000 0.5556 0.0000
2.0000 0.6667 0.0000
2.0000 0.7778 0.0000
2.0000 0.8889 0.0000
2.0000 1.0000 0.0000
0.1111 0.0556 0.0000
0.1111 0.1667 0.0000
0.1111 0.2778 0.0000
0.1111 0.3889 0.0000
0.1111 0.5000 0.0000
0.1111 0.6111 0.0000
0.1111 0.7222 0.0000
0.1111 0.8333 0.0000
0.1111 0.9444 0.0000
0.3333 0.0556 0.0000
0.3333 0.1667 0.0000
0.3333 0.2778 0.0000
0.3333 0.3889 0.0000
0.3333 0.5000 0.0000
0.3333 0.6111 0.0000
0.3333 0.7222 0.0000
0.3333 0.8333 0.0000
0.3333 0.9444 0.0000
0.5556 0.0556 0.0000
0.5556 0.1667 0.0000
0.5556 0.2778 0.0000
0.5556 0.3889 0.0000
0.5556 0.5000 0.0000
0.5556 0.6111 0.0000
0.5556 0.7222 0.0000
0.5556 0.8333 0.0000
0.5556 0.9444 0.0000
0.7778 0.0556 0.0000
0.7778 0.1667 0.0000
0.7778 0.2778 0.0000
0.7778 0.3889 0.0000
0.7778 0.5000 0.0000
0.7778 0.6111 0.0000
0.7778 0.7222 0.0000
0.7778 0.8333 0.0000
0.7778 0.9444 0.0000
1.0000 0.0556 0.0000
1.0000 0.1667 0.0000
1.0000 0.2778 0.0000
1.0000 0.3889 0.0000
1.0000 0.5000 0.0000
1.0000 0.6111 0.0000
1.0000 0.7222 0.0000
1.0000 0.8333 0.0000
1.0000 0.9444 0.0000
1.2222 0.0556 0.0000
1.2222 0.1667 0.0000
1.2222 0.2778 0.0000
1.2222 0.3889 0.0000
1.2222 0.5000 0.0000
1.2222 0.6111 0.0000
1.2222 0.7222 0.0000
1.2222 0.8333 0.0000
1.2222 0.9444 0.0000
1.4444 0.0556 0.0000
1.4444 0.1667 0.0000
1.4444 0.2778 0.0000
1.4444 0.3889 0.0000
1.4444 0.5000 0.0000
1.4444 0.6111 0.0000
1.4444 0.7222 0.0000
1.4444 0.8333 0.0000
1.4444 0.9444 0.0000
1.6667 0.0556 0.0000
1.6667 0.1667 0.0000
1.6667 0.2778 0.0000
1.6667 0.3889 0.0000
1.6667 0.5000 0.0000
1.6667 0.6111 0.0000
1.6667 0.7222 0.0000
1.6667 0.8333 0.0000
1.6667 0.9444 0.0000
1.8889 0.0556 0.0000
1.8889 0.1667 0.0000
1.8889 0.2778 0.0000
1.8889 0.3889 0.0000
1.8889 0.5000 0.0000
1.8889 0.6111 0.0000
1.8889 0.7222 0.0000
1.8889 0.8333 0.0000
1.8889 0.9444 0.0000
0.0000 0.0556 0.0000
0.0556 0.0278 0.0000
0.0556 0.0833 0.0000
0.0000 0.1667 0.0000
0.0556 0.1389 0.0000
0.0556 0.1944 0.0000
0.0000 0.2778 0.0000
0.0556 0.2500 0.0000
0.0556 0.3056 0.0000
0.0000 0.3889 0.0000
0.0556 0.3611 0.0000
0.0556 0.4167 0.0000
0.0000 0.5000 0.0000
0.0556 0.4722 0.0000
0.0556 0.5278 0.0000
0.0000 0.6111 0.0000
0.0556 0.5833 0.0000
0.0556 0.6389 0.0000
0.0000 0.7222 0.0000
0.0556 0.6944 0.0000
0.0556 0.7500 0.0000
0.0000 0.8333 0.0000
0.0556 0.8056 0.0000
0.0556 0.8611 0.0000
0.0000 0.9444 0.0000
0.0556 0.9167 0.0000
0.0556 0.9722 0.0000
0.2222 0.0556 0.0000
0.2778 0.0278 0.0000
0.2778 0.0833 0.0000
0.2222 0.1667 0.0000
0.2778 0.1389 0.0000
0.2778 0.1944 0.0000
0.2222 0.2778 0.0000
0.2778 0.2500 0.0000
0.2778 0.3056 0.0000
0.2222 0.3889 0.0000
0.2778 0.3611 0.0000
0.2778 0.4167 0.0000
0.2222 0.5000 0.0000
0.2778 0.4722 0.0000
0.2778 0.5278 0.0000
0.2222 0.6111 0.0000
0.2778 0.5833 0.0000
0.2778 0.6389 0.0000
0.2222 0.7222 0.0000
0.2778 0.6944 0.0000
0.2778 0.7500 0.0000
0.2222 0.8333 0.0000
0.2778 0.8056 0.0000
0.2778 0.8611 0.0000
0.2222 0.9444 0.0000
0.2778 0.9167 0.0000
0.2778 0.9722 0.0000
0.4444 0.0556 0.0000
0.5000 0.0278 0.0000
0.5000 0.0833 0.0000
0.4444 0.1667 0.0000
0.5000 0.1389 0.0000
0.5000 0.1944 0.0000
0.4444 0.2778 0.0000
0.5000 0.2500 0.0000
0.5000 0.3056 0.0000
0.4444 0.3889 0.0000
0.5000 0.3611 0.0000
0.5000 0.4167 0.0000
0.4444 0.5000 0.0000
0.5000 0.4722 0.0000
0.5000 0.5278 0.0000
0.4444 0.6111 0.0000
0.5000 0.5833 0.0000
0.5000 0.6389 0.0000
0.4444 0.7222 0.0000
0.5000 0.6944 0.0000
0.5000 0.7500 0.0000
0.4444 0.8333 0.0000
0.5000 0.8056 0.0000
0.5000 0.8611 0.0000
0.4444 0.9444 0.0000
0.5000 0.9167 0.0000
0.5000 0.9722 0.0000
0.6667 0.0556 0.0000
0.7222 0.0278 0.0000
0.7222 0.0833 0.0000
0.6667 0.1667 0.0000
0.7222 0.1389 0.0000
0.7222 0.1944 0.0000
0.6667 0.2778 0.0000
0.7222 0.2500 0.0000
0.7222 0.3056 0.0000
0.6667 0.3889 0.0000
0.7222 0.3611 0.0000
0.7222 0.4167 0.0000
0.6667 0.5000 0.0000
0.7222 0.4722 0.0000
0.7222 0.5278 0.0000
0.6667 0.6111 0.0000
0.7222 0.5833 0.0000
0.7222 0.6389 0.0000
0.6667 0.7222 0.0000
0.7222 0.6944 0.0000
0.7222 0.7500 0.0000
0.6667 0.8333 0.0000
0.7222 0.8056 0.0000
0.7222 0.8611 0.0000
0.6667 0.9444 0.0000
0.7222 0.9167 0.0000
0.7222 0.9722 0.0000
0.8889 0.0556 0.0000
0.9444 0.0278 0.0000
0.9444 0.0833 0.0000
0.8889 0.1667 0.0000
0.9444 0.1389 0.0000
0.9444 0.1944 0.0000
0.8889 0.2778 0.0000
0.9444 0.2500 0.0000
0.9444 0.3056 0.0000
0.8889 0.3889 0.0000
0.9444 0.3611 0.0000
0.9444 0.4167 0.0000
0.8889 0.5000 0.0000
0.9444 0.4722 0.0000
0.9444 0.5278 0.0000
0.8889 0.6111 0.0000
0.9444 0.5833 0.0000
0.9444 0.6389 0.0000
0.8889 0.7222 0.0000
0.9444 0.6944 0.0000
0.9444 0.7500 0.0000
0.8889 0.8333 0.0000
0.9444 0.8056 0.0000
0.9444 0.8611 0.0000
0.8889 0.9444 0.0000
0.9444 0.9167 0.0000
0.9444 0.9722 0.0000
1.1111 0.0556 0.0000
1.1667 0.0278 0.0000
1.1667 0.0833 0.0000
1.1111 0.1667 0.0000
1.1667 0.1389 0.0000
1.1667 0.1944 0.0000
1.1111 0.2778 0.0000
1.1667 0.2500 0.0000
1.1667 0.3056 0.0000
1.1111 0.3889 0.0000
1.1667 0.3611 0.0000
1.1667 0.4167 0.0000
1.1111 0.5000 0.0000
1.1667 0.4722 0.0000
1.1667 0.5278 0.0000
1.1111 0.6111 0.0000
1.1667 0.5833 0.0000
1.1667 0.6389 0.0000
1.1111 0.7222 0.0000
1.1667 0.6944 0.0000
1.1667 0.7500 0.0000
1.1111 0.8333 0.0000
1.1667 0.8056 0.0000
1.1667 0.8611 0.0000
1.1111 0.9444 0.0000
1.1667 0.9167 0.0000
1.1667 0.9722 0.0000
1.3333 0.0556 0.0000
1.3889 0.0278 0.0000
1.3889 0.0833 0.0000
1.3333 0.1667 0.0000
1.3889 0.1389 0.0000
1.3889 0.1944 0.0000
1.3333 0.2778 0.0000
1.3889 0.2500 0.0000
1.3889 0.3056 0.0000
1.3333 0.3889 0.0000
1.3889 0.3611 0.0000
1.3889 0.4167 0.0000
1.3333 0.5000 0.0000
1.3889 0.4722 0.0000
1.3889 0.5278 0.0000
1.3333 0.6111 0.0000
1.3889 0.5833 0.0000
1.3889 0.6389 0.0000
1.3333 0.7222 0.0000
1.3889 0.6944 0.0000
1.3889 0.7500 0.0000
1.3333 0.8333 0.0000
1.3889 0.8056 0.0000
1.3889 0.8611 0.0000
1.3333 0.9444 0.0000
1.3889 0.9167 0.0000
1.3889 0.9722 0.0000
1.5556 0.0556 0.0000
1.6111 0.0278 0.0000
1.6111 0.0833 0.0000
1.5556 0.1667 0.0000
1.6111 0.1389 0.0000
1.6111 0.1944 0.0000
1.5556 0.2778 0.0000
1.6111 0.2500 0.0000
1.6111 0.3056 0.0000
1.5556 0.3889 0.0000
1.6111 0.3611 0.0000
1.6111 0.4167 0.0000
1.5556 0.5000 0.0000
1.6111 0.4722 0.0000
1.6111 0.5278 0.0000
1.5556 0.6111 0.0000
1.6111 0.5833 0.0000
1.6111 0.6389 0.0000
1.5556 0.7222 0.0000
1.6111 0.6944 0.0000
1.6111 0.7500 0.0000
1.5556 0.8333 0.0000
1.6111 0.8056 0.0000
1.6111 0.8611 0.0000
1.5556 0.9444 0.0000
1.6111 0.9167 0.0000
1.6111 0.9722 0.0000
1.7778 0.0556 0.0000
1.8333 0.0278 0.0000
1.8333 0.0833 0.0000
1.7778 0.1667 0.0000
1.8333 0.1389 0.0000
1.8333 0.1944 0.0000
1.7778 0.2778 0.0000
1.8333 0.2500 0.0000
1.8333 0.3056 0.0000
1.7778 0.3889 0.0000
1.8333 0.3611 0.0000
1.8333 0.4167 0.0000
1.7778 0.5000 0.0000
1.8333 0.4722 0.0000
1.8333 0.5278 0.0000
1.7778 0.6111 0.0000
1.8333 0.5833 0.0000
1.8333 0.6389 0.0000
1.7778 0.7222 0.0000
1.8333 0.6944 0.0000
1.8333 0.7500 0.0000
1.7778 0.8333 0.0000
1.8333 0.8056 0.0000
1.8333 0.8611 0.0000
1.7778 0.9444 0.0000
1.8333 0.9167 0.0000
1.8333 0.9722 0.0000
0.1111 0.1111 0.0000
0.1667 0.0833 0.0000
0.1111 0.2222 0.0000
0.1667 0.1944 0.0000
0.1111 0.3333 0.0000
0.1667 0.3056 0.0000
0.1111 0.4444 0.0000
0.1667 0.4167 0.0000
0.1111 0.5556 0.0000
0.1667 0.5278 0.0000
0.1111 0.6667 0.0000
0.1667 0.6389 0.0000
0.1111 0.7778 0.0000
0.1667 0.7500 0.0000
0.1111 0.8889 0.0000
0.1667 0.8611 0.0000
0.1111 1.0000 0.0000
0.1667 0.9722 0.0000
0.3333 0.1111 0.0000
0.3889 0.0833 0.0000
0.3333 0.2222 0.0000
0.3889 0.1944 0.0000
0.3333 0.3333 0.0000
0.3889 0.3056 0.0000
0.3333 0.4444 0.0000
0.3889 0.4167 0.0000
0.3333 0.5556 0.0000
0.3889 0.5278 0.0000
0.3333 0.6667 0.0000
0.3889 0.6389 0.0000
0.3333 0.7778 0.0000
0.3889 0.7500 0.0000
0.3333 0.8889 0.0000
0.3889 0.8611 0.0000
0.3333 1.0000 0.0000
0.3889 0.9722 0.0000
0.5556 0.1111 0.0000
[...]
         <PointData>
            <DataArray Name="fValues" NumberOfComponents="3" format="ascii" type="Float64">
 2.86820e-17 -2.39017e-17        00000 
 5.88056e-17 -3.17241e-17        00000 
-6.71637e-17  6.77298e-18        00000 
-3.28783e-17 -3.26214e-17        00000 
-2.92114e-19 -3.99692e-18        00000 
 3.95567e-17  8.21957e-18        00000 
 3.04599e-18  4.42394e-18        00000 
-1.23182e-17 -1.74508e-17        00000 
-3.30215e-17 -3.30215e-17        00000 
 3.34624e-17  5.73640e-17        00000 
-8.16857e-02  1.35205e-01        00000 
 5.93014e-02 -1.26914e-02        00000 
 2.78861e-01 -8.97127e-02        00000 
-1.22537e-01  1.31387e-01        00000 
-2.60356e-02 -8.74712e-02        00000 
-2.94737e-02 -1.34562e-01        00000 
 5.78777e-03 -2.78485e-01        00000 
 2.77697e-01  1.50497e-01        00000 
 4.55422e-02  1.21667e-01        00000 
 4.99995e-02  4.53437e-01        00000 
 3.87896e-02  3.55586e-01        00000 
 1.50484e-01  1.58716e-02        00000 
-1.00451e-01 -3.12626e-01        00000 
-1.67736e-01 -3.38039e-01        00000 
 8.83493e-02 -9.01761e-02        00000 
 1.10848e-01 -1.99375e-01        00000 
 2.16704e-01  1.70196e-01        00000 
 6.12556e-02 -2.78472e-01        00000 
 9.04789e-02  5.64460e-02        00000 
 9.65089e-02 -3.59428e-02        00000 
 1.49103e-01  7.38194e-02        00000 
 7.35810e-02  1.42483e-01        00000 
 1.60123e-02  4.06218e-01        00000 
-4.06819e-01  8.32818e-02        00000 
 1.38501e-01  3.51092e-02        00000 
 2.26353e-01  1.99306e-01        00000 
-2.27728e-01  3.62823e-01        00000 
-1.15059e-01  3.25331e-02        00000 
-9.43749e-03  1.55309e-02        00000 
-3.90340e-01  7.64251e-01        00000 
-2.03374e-01  1.07340e-01        00000 
-1.34216e-01  1.86631e-01        00000 
 2.93160e-02 -3.03919e-01        00000 
-2.71928e-01 -8.02117e-02        00000 
-2.08315e-01  4.38490e-02        00000 
-2.27148e-01 -7.89866e-02        00000 
-9.49002e-03  1.19194e-01        00000 
 5.99109e-02 -5.47214e-02        00000 
 1.17758e-02  1.14417e-01        00000 
-2.07663e-01  3.16675e-01        00000 
 2.30310e-01 -2.47467e-01        00000 
-4.94922e-02  1.65446e-02        00000 
 2.04615e-01  2.28089e-01        00000 
-1.41906e-02 -8.81844e-02        00000 
-1.81987e-01 -7.16166e-02        00000 
 1.23644e-01  1.88897e-01        00000 
 1.28040e-01  3.47225e-01        00000 
-1.67886e-01 -5.98266e-02        00000 
-3.05825e-01 -2.26857e-01        00000 
-2.50412e-01  1.92323e-01        00000 
 9.90209e-02  1.53758e-01        00000 
 5.68047e-02  2.42656e-01        00000 
-1.11724e-01 -1.47590e-02        00000 
 4.13904e-02  6.13353e-02        00000 
-4.29658e-02  1.22708e-02        00000 
 1.63418e-02  6.97280e-02        00000 
 1.54911e-04 -3.50217e-02        00000 
-2.39421e-01 -3.24153e-01        00000 
-1.11940e-01  2.83930e-01        00000 
-1.43823e-01  3.57097e-01        00000 
-8.29259e-02  3.30417e-02        00000 
-9.41149e-02  1.39013e-01        00000 
 1.32739e-01  1.07352e-01        00000 
 2.39777e-01  1.26596e-01        00000 
 1.03146e-01  1.96132e-01        00000 
-1.76640e-01  8.52797e-02        00000 
 6.85092e-02  9.35890e-02        00000 
-6.86967e-02  4.35955e-01        00000 
-3.18925e-02 -1.33580e-01        00000 
-9.47158e-02 -2.64699e-01        00000 
 5.21158e-03 -5.33640e-01        00000 
 1.17964e-01  4.36825e-02        00000 
-1.39833e-01  2.25936e-02        00000 
-3.45449e-02  5.04261e-02        00000 
-3.52400e-02  9.95318e-02        00000 
 5.53713e-02  2.96412e-01        00000 
-2.45071e-02  2.85185e-01        00000 
-1.40112e-01  2.48249e-02        00000 
-2.31586e-01  1.90015e-01        00000 
-5.59197e-02  3.32542e-01        00000 
 2.25692e-01  6.27518e-02        00000 
 9.99481e-02 -3.72884e-02        00000 
-7.81846e-02  1.36472e-02        00000 
-5.31066e-02  3.54778e-03        00000 
 2.05393e-01 -8.36491e-02        00000 
 1.06920e-01  1.41078e-01        00000 
-1.00682e-01  1.94693e-01        00000 
 3.14890e-02  1.65516e-01        00000 
 8.08954e-02  2.99923e-01        00000 
 1.06898e-01  3.74282e-02        00000 
-4.30464e-02  7.70497e-02        00000 
 1.24458e-01  2.35253e-02        00000 
 1.52942e-01  1.45328e-01        00000 
 2.55563e-02  6.24283e-02        00000 
 6.50040e-03 -9.90656e-03        00000 
 1.79079e-01 -1.14653e-01        00000 
 3.70213e-02 -2.04700e-01        00000 
-6.22152e-02 -9.08477e-02        00000 
 4.02717e-02 -7.48587e-02        00000 
 1.35749e-01 -1.49486e-01        00000 
-1.60494e-01  9.14167e-02        00000 
 6.68229e-02  2.20222e-02        00000 
-5.05522e-02 -1.87682e-01        00000 
-2.94060e-01 -2.62044e-01        00000 
-1.23414e-01 -9.65606e-02        00000 
 1.16282e-02  7.12550e-02        00000 
 3.74527e-02 -1.69066e-02        00000 
-1.48305e-01 -1.93383e-02        00000 
 2.85562e-01  3.42421e-02        00000 
-4.57348e-02 -4.63811e-02        00000 
-9.99242e-02 -2.78042e-01        00000 
 3.69311e-02 -3.34450e-02        00000 
 9.72423e-02 -3.34938e-02        00000 
 1.78521e-01  2.16420e-01        00000 
-9.37191e-02  2.17005e-01        00000 
 1.79275e-01  1.39079e-01        00000 
 2.14477e-01 -8.43128e-02        00000 
-1.76178e-01 -3.78209e-02        00000 
 1.51440e-02  7.57000e-02        00000 
-1.69880e-01  5.66108e-02        00000 
-2.88598e-02  1.35230e-01        00000 
 6.87253e-03 -1.88978e-01        00000 
 1.10333e-01 -1.83950e-02        00000 
-4.40961e-02 -4.62228e-01        00000 
-1.12682e-01 -1.53024e-01        00000 
-3.03352e-03 -2.10808e-01        00000 
 8.79171e-02  1.64300e-01        00000 
 2.82940e-01  3.47761e-01        00000 
 8.11013e-02  1.21568e-01        00000 
 2.20538e-02 -1.33153e-01        00000 
 1.66143e-02 -2.02654e-02        00000 
 9.36194e-03 -9.24386e-02        00000 
-3.09611e-02  8.34699e-02        00000 
-1.96726e-01 -7.75544e-02        00000 
-2.16857e-01  8.17312e-02        00000 
-6.04906e-02  4.39774e-02        00000 
 1.66464e-02  2.41288e-02        00000 
 3.69268e-02  1.34252e-01        00000 
 2.10119e-01 -3.71329e-02        00000 
 2.35244e-01  6.51862e-02        00000 
 5.28113e-02  3.15938e-02        00000 
 1.12937e-01  1.22128e-01        00000 
 1.21310e-01 -3.23657e-02        00000 
-4.00434e-01 -4.35743e-02        00000 
 8.30365e-03  8.45126e-02        00000 
-2.20826e-02  1.50590e-04        00000 
 1.79944e-02  1.85315e-01        00000 
-3.42551e-03 -1.01863e-01        00000 
-2.48386e-01 -1.47319e-01        00000 
-2.35819e-01 -1.02860e-01        00000 
 5.99723e-02  2.70613e-02        00000 
-1.88282e-01  2.34993e-01        00000 
-9.09921e-02  1.31556e-01        00000 
 5.34003e-02  4.55710e-01        00000 
-4.39213e-03  1.27938e-01        00000 
 2.13814e-01 -1.66718e-02        00000 
-6.43086e-02  1.89374e-03        00000 
-1.05389e-01  1.31853e-01        00000 
-1.49611e-01  3.19805e-01        00000 
 5.56362e-02  2.36130e-01        00000 
 1.23929e-02  1.04820e-02        00000 
-5.30693e-02  1.29681e-01        00000 
-6.47581e-02  1.39210e-01        00000 
 8.64458e-02  3.08845e-01        00000 
-3.36181e-02 -4.33924e-03        00000 
 1.31199e-01  5.54032e-02        00000 
 3.33227e-02  2.86398e-01        00000 
-1.73763e-01  1.47934e-01        00000 
 1.10265e-01  1.24219e-01        00000 
 1.12301e-01  2.16810e-01        00000 
 4.46580e-02 -7.05936e-03        00000 
-3.92287e-17  3.22665e-17        00000 
 1.70548e-01  1.39806e-01        00000 
-1.01391e-01  1.54948e-01        00000 
 4.24190e-17 -1.12883e-18        00000 
-2.65160e-01  8.09118e-02        00000 
-7.22033e-02 -5.52426e-02        00000 
-1.56125e-17 -4.29344e-17        00000 
-2.14065e-01  5.69836e-02        00000 
-7.91087e-02 -2.66106e-01        00000 
 1.56612e-17  1.50589e-17        00000 
-2.50105e-01  5.87744e-03        00000 
 1.81508e-01 -5.30542e-03        00000 
 1.95156e-18  7.80626e-18        00000 
 2.79016e-02  6.80701e-02        00000 
 1.31697e-01  4.36562e-02        00000 
-3.75874e-17  1.48752e-17        00000 
 1.21939e-02 -1.77326e-01        00000 
-1.57845e-01 -7.77213e-02        00000 
 2.34188e-17 -2.92735e-17        00000 
 1.21757e-01  4.89216e-02        00000 
 1.97271e-01 -1.74776e-01        00000 
-2.34188e-17 -3.12250e-17        00000 
-1.21353e-02  4.47851e-03        00000 
-1.38375e-01 -1.81831e-01        00000 
 3.96558e-18  2.23107e-17        00000 
-8.53057e-02  9.99739e-02        00000 
-3.11111e-01 -2.39830e-01        00000 
-7.81854e-02 -2.68247e-02        00000 
 1.15399e-01  9.08089e-02        00000 
 1.39505e-01  1.16513e-01        00000 
 9.75778e-02  4.96313e-03        00000 
 1.39002e-01  4.53103e-01        00000 
-1.54886e-01  5.49417e-02        00000 
-8.83220e-02 -2.47773e-01        00000 
-9.72255e-02  4.11585e-02        00000 
 2.77198e-01 -1.67383e-01        00000 
-1.31089e-01  1.25658e-02        00000 
 3.12573e-01  1.06549e-02        00000 
-5.69666e-02 -1.28350e-01        00000 
-1.06596e-01 -3.50150e-02        00000 
-1.01557e-01  2.48486e-01        00000 
-2.11325e-01  1.47677e-01        00000 
 1.12700e-01 -1.93045e-01        00000 
-1.67245e-02 -5.52473e-03        00000 
 6.88107e-02  6.16790e-02        00000 
 1.80664e-02 -3.66170e-01        00000 
 4.23536e-02  7.27002e-02        00000 
 6.64569e-03 -1.93556e-02        00000 
 2.69895e-02  1.94810e-01        00000 
 6.30520e-03  4.66667e-02        00000 
-2.23668e-01  6.38631e-02        00000 
-1.02044e-02 -1.85670e-02        00000 
-3.57652e-01  3.57397e-02        00000 
-2.39845e-01  2.30837e-01        00000 
 8.63565e-02  2.27135e-01        00000 
 2.71874e-01 -2.45610e-02        00000 
 1.42403e-01  2.14640e-03        00000 
-4.17151e-02 -3.54539e-03        00000 
 2.04238e-01 -9.39137e-02        00000 
-1.76371e-01 -1.72770e-01        00000 
-3.31795e-01  3.69512e-02        00000 
 1.69264e-01 -2.70560e-01        00000 
-3.82743e-02 -1.55327e-01        00000 
-2.48125e-02  1.56601e-01        00000 
-3.11190e-02  5.97936e-02        00000 
-2.39134e-02 -1.35420e-01        00000 
 5.53135e-02  1.34105e-01        00000 
-2.85571e-01 -1.25155e-01        00000 
-5.63262e-02 -6.99227e-02        00000 
 6.26004e-02 -4.59471e-02        00000 
-1.32740e-02  7.67989e-02        00000 
-8.36794e-02  1.80373e-01        00000 
-4.82970e-02 -2.28357e-01        00000 
-1.92417e-01 -1.55195e-01        00000 
-2.06505e-01  9.90135e-02        00000 
 3.08613e-03 -2.77141e-01        00000 
-1.50089e-01  4.17564e-02        00000 
-8.38583e-02  5.77084e-02        00000 
 2.77005e-02  3.53679e-01        00000 
-5.80414e-03 -2.06523e-01        00000 
 2.68264e-03 -2.41169e-02        00000 
-5.72571e-02  1.29624e-02        00000 
 3.64701e-02  1.67911e-02        00000 
 6.29389e-02  1.07772e-01        00000 
 7.82666e-02 -8.20352e-02        00000 
 1.09210e-01  2.59599e-01        00000 
 9.12142e-02 -1.97582e-01        00000 
-1.19678e-01 -1.22572e-01        00000 
 9.31294e-02  8.65847e-02        00000 
 2.38490e-01  1.92487e-01        00000 
 1.33455e-02  2.68598e-01        00000 
-1.88362e-02 -9.06836e-02        00000 
 2.09269e-01  4.46790e-02        00000 
-1.64072e-01  1.66829e-01        00000 
-1.85423e-01 -1.34842e-01        00000 
 7.50418e-02  9.89904e-02        00000 
-2.67106e-01 -7.42845e-02        00000 
 2.73658e-03 -1.09077e-01        00000 
 1.81599e-01 -2.46079e-02        00000 
-2.04147e-01 -2.51178e-01        00000 
-9.74260e-02 -6.05884e-03        00000 
-2.91839e-01 -2.26623e-01        00000 
-1.08548e-02 -1.07791e-01        00000 
 7.00477e-02 -1.51166e-02        00000 
 2.16580e-02  1.97473e-02        00000 
-2.23177e-01 -6.63384e-02        00000 
 1.54581e-01  5.09894e-01        00000 
 8.02333e-02 -6.55183e-01        00000 
-1.68944e-01 -2.94352e-01        00000 
 1.48939e-01 -1.41280e-01        00000 
 1.39268e-01 -5.79135e-02        00000 
 1.04724e-01  3.77478e-02        00000 
 2.01069e-01 -1.64543e-01        00000 
-1.37060e-01  6.33294e-02        00000 
-7.66159e-02  1.27073e-02        00000 
 1.78958e-01  2.08145e-01        00000 
-1.57842e-01  8.54619e-02        00000 
 4.81355e-02  4.91307e-02        00000 
 1.51549e-01 -1.60623e-01        00000 
-1.88462e-01 -1.53555e-01        00000 
-3.14404e-01 -4.78213e-02        00000 
-8.00186e-02  9.82861e-02        00000 
 2.91664e-02 -2.42733e-01        00000 
-3.39332e-01  1.18230e-02        00000 
-3.14117e-02 -2.07086e-01        00000 
-1.12511e-01  8.65662e-02        00000 
-3.69110e-01  6.13370e-02        00000 
-6.63158e-02 -7.75877e-02        00000 
 6.23013e-02  2.85274e-01        00000 
-3.07010e-01  2.39887e-01        00000 
 1.26168e-01  1.59792e-01        00000 
 3.92738e-02 -1.72570e-01        00000 
-1.93972e-01  4.86662e-02        00000 
 3.26216e-02  1.04600e-01        00000 
 2.32519e-01 -5.10241e-03        00000 
 2.60137e-02  1.98732e-01        00000 
 1.14370e-01  5.35245e-01        00000 
 1.25249e-03  9.28386e-03        00000 
 2.66133e-01  3.03742e-02        00000 
 5.20010e-02  4.05095e-01        00000 
 1.36113e-01  9.06261e-02        00000 
 1.70662e-01  2.14217e-01        00000 
 9.21404e-03  1.74275e-01        00000 
-1.32408e-01  1.48887e-01        00000 
 9.44109e-02  2.41436e-01        00000 
 1.69830e-01  1.56536e-01        00000 
 6.47155e-02  1.78190e-01        00000 
 1.57721e-01  1.15477e-01        00000 
-1.89221e-01  1.32914e-01        00000 
-1.26388e-01 -3.54370e-02        00000 
-4.46458e-02 -3.97800e-02        00000 
-5.79849e-03 -1.60861e-01        00000 
 1.49074e-01  3.14142e-01        00000 
-7.32390e-02  2.66974e-02        00000 
 1.07720e-02 -5.46783e-02        00000 
-1.17156e-01 -1.34342e-01        00000 
-2.12648e-01 -8.36317e-03        00000 
-1.91889e-01  4.36189e-02        00000 
 5.42763e-02  9.92962e-02        00000 
-1.75417e-01  2.45466e-01        00000 
 4.45165e-02  2.03655e-01        00000 
-1.31967e-01  2.57135e-02        00000 
-2.31265e-02 -4.58342e-02        00000 
-3.29177e-02  9.71665e-02        00000 
-1.34744e-01  1.10559e-01        00000 
 2.41142e-02  2.24405e-01        00000 
 6.20177e-02 -2.72166e-02        00000 
 4.71772e-02 -2.20667e-02        00000 
-3.59882e-01  1.59726e-01        00000 
 3.41407e-02  8.63417e-02        00000 
-4.53337e-02  6.66169e-02        00000 
-1.65744e-01  1.06961e-01        00000 
 1.11072e-02  8.58890e-02        00000 
-4.21000e-02  2.89160e-01        00000 
-3.52553e-02  2.35617e-01        00000 
 3.29910e-01 -1.85518e-02        00000 
-1.26589e-01 -3.80874e-02        00000 
-1.02092e-01  3.82038e-01        00000 
-8.80835e-02  1.85628e-01        00000 
 9.92586e-03  1.09618e-01        00000 
 1.09334e-01  3.57604e-01        00000 
-5.09720e-02  2.45618e-01        00000 
-2.15614e-01  4.54969e-02        00000 
-1.78729e-01  2.21534e-01        00000 
 8.60805e-02  1.49110e-01        00000 
-3.72099e-02  2.33119e-01        00000 
 4.74584e-03  1.69610e-01        00000 
 1.04624e-01  2.64720e-01        00000 
 7.61184e-02  2.57531e-01        00000 
 6.91398e-02 -2.76905e-02        00000 
-9.02884e-02  5.05748e-01        00000 
 2.24424e-01  3.71788e-02        00000 
 2.23312e-03  9.10247e-02        00000 
 4.08296e-02  2.77634e-01        00000 
 7.24513e-02 -1.27214e-01        00000 
 1.75091e-01  8.57027e-02        00000 
 5.98107e-02 -1.53381e-01        00000 
 3.29850e-01  1.54818e-01        00000 
 1.38478e-01  2.39266e-02        00000 
 2.66244e-01  7.51130e-02        00000 
-2.37482e-01  1.03616e-01        00000 
-9.87144e-02 -1.25498e-01        00000 
 1.97906e-02  2.56451e-02        00000 
 1.60486e-01  2.16459e-01        00000 
-1.89045e-02 -3.17799e-01        00000 
-1.70238e-01  5.05598e-02        00000 
 9.14559e-02 -1.32066e-01        00000 
-3.50648e-02 -2.05361e-01        00000 
-1.43044e-02  1.47013e-01        00000 
 6.13864e-02 -1.50889e-02        00000 
-1.39863e-01 -1.12176e-01        00000 
 1.50732e-01 -2.09331e-01        00000 
 7.85040e-02  1.35192e-01        00000 
 1.61582e-01  1.55917e-01        00000 
-5.27565e-02  1.84906e-01        00000 
 1.61762e-01  5.75828e-01        00000 
 1.97374e-02 -2.95237e-02        00000 
 6.81269e-02  3.62276e-01        00000 
 2.53553e-01 -1.79359e-01        00000 
-3.79522e-02  9.38330e-02        00000 
 3.95332e-02  2.54847e-02        00000 
 1.59632e-01 -1.63757e-01        00000 
-1.66988e-03  2.15664e-01        00000 
 2.59805e-01  1.53839e-01        00000 
 9.15655e-02  3.14500e-03        00000 
-5.38829e-03 -5.65406e-02        00000 
-3.07953e-02  6.17318e-03        00000 
 4.20294e-01  9.51494e-02        00000 
 1.47479e-01 -6.31615e-03        00000 
 3.76042e-02 -9.44265e-06        00000 
 1.20001e-01  6.49205e-02        00000 
-1.07343e-01 -1.38576e-01        00000 
 1.92418e-02 -9.72642e-02        00000 
 9.90224e-02 -2.19769e-02        00000 
-1.14124e-02  3.81652e-02        00000 
-5.74721e-02 -1.79021e-01        00000 
 7.28927e-02  2.93800e-02        00000 
-9.74311e-02  2.81358e-02        00000 
 1.20448e-02  9.11551e-03        00000 
 2.72315e-01 -3.05796e-01        00000 
 6.93748e-02 -2.62647e-01        00000 
 5.04769e-02  3.19949e-01        00000 
-3.26497e-02 -1.52796e-01        00000 
-1.44710e-01 -7.54989e-02        00000 
-5.68354e-03  2.50870e-02        00000 
 1.20071e-01  3.13340e-02        00000 
 2.80075e-01  1.51641e-01        00000 
-1.30643e-01 -7.36800e-02        00000 
 4.16010e-02 -5.85084e-02        00000 
 1.38638e-01 -3.86966e-02        00000 
-5.82918e-02 -1.82215e-01        00000 
 1.21491e-01  9.39613e-02        00000 
 3.36759e-02 -1.34632e-02        00000 
 3.30341e-02  2.79434e-02        00000 
 6.72489e-02  2.82072e-02        00000 
 2.13448e-01 -2.11124e-01        00000 
-4.62463e-02 -1.70841e-01        00000 
 1.21777e-01  1.06310e-01        00000 
 3.39689e-01  1.81691e-02        00000 
-1.35656e-01  5.66820e-01        00000 
-8.18430e-02 -3.08653e-01        00000 
 1.41834e-01 -5.07810e-02        00000 
 1.97170e-01  2.04844e-02        00000 
-7.95518e-02  5.39176e-02        00000 
-1.88315e-02 -2.52543e-02        00000 
 2.56344e-01  1.29092e-01        00000 
-2.64723e-01  2.04056e-02        00000 
-8.53081e-02 -8.63034e-02        00000 
 5.07769e-02 -6.59046e-02        00000 
-1.21280e-01 -1.37539e-02        00000 
-5.28911e-02 -1.32222e-01        00000 
-1.00583e-01 -3.14065e-01        00000 
-1.63885e-01 -2.38109e-01        00000 
 6.77271e-02  1.46667e-01        00000 
 3.50312e-02 -8.81502e-02        00000 
-1.13270e-02 -1.10022e-01        00000 
 5.36992e-02  4.63404e-02        00000 
-9.74149e-02 -6.69830e-02        00000 
 2.74098e-01  2.92727e-01        00000 
 3.46972e-02 -5.98454e-02        00000 
-1.33268e-02 -1.99941e-01        00000 
-1.57496e-02  5.18779e-02        00000 
-3.20789e-02  1.46672e-01        00000 
 9.94601e-02  1.40303e-01        00000 
 1.86346e-01  1.58421e-01        00000 
 1.06205e-01 -9.97510e-02        00000 
 2.52204e-01 -2.49920e-01        00000 
-1.09438e-01 -2.97564e-01        00000 
 1.24931e-01 -1.58788e-02        00000 
-2.02402e-01 -1.61686e-01        00000 
-1.62916e-01 -1.14735e-01        00000 
 1.28554e-01  1.35118e-01        00000 
-1.74436e-02  4.55610e-02        00000 
 4.81927e-02 -1.18574e-01        00000 
 1.93414e-01 -1.23076e-01        00000 
-1.77410e-01  2.73148e-01        00000 
-1.34902e-01 -3.49455e-01        00000 
 1.23940e-01  2.94619e-01        00000 
-1.25276e-01 -2.40784e-01        00000 
 1.65419e-01  2.95781e-01        00000 
-2.37576e-03  3.13081e-01        00000 
-1.99794e-01 -4.28426e-02        00000 
-1.16304e-01  2.67380e-01        00000 
 1.00595e-01 -1.48781e-01        00000 
-1.59821e-01  1.55363e-01        00000 
 5.87506e-02 -7.57507e-03        00000 
 2.41282e-02  6.46867e-02        00000 
 2.38354e-01  1.69092e-01        00000 
-4.38757e-01 -1.34293e-01        00000 
-9.01091e-02 -4.56885e-02        00000 
-1.00945e-01 -2.72085e-01        00000 
-4.48432e-01  5.01144e-02        00000 
-2.57846e-02 -1.31563e-01        00000 
-8.35456e-02  6.95687e-01        00000 
-1.16409e-01 -6.92449e-01        00000 
-1.59828e-01  1.82606e-01        00000 