<?xml version="1.0" encoding="utf-8"?>
<VTKFile byte_order="LittleEndian" type="UnstructuredGrid" version="0.1">
   <UnstructuredGrid>
      <Piece NumberOfCells="1296" NumberOfPoints="685">
         <Points>
            <DataArray Name="Points" NumberOfComponents="3" format="ascii" type="Float32">
0.0000 0.0000 0.0000
0.0000 0.1111 0.0000
0.0000 0.2222 0.0000
0.0000 0.3333 0.0000
0.0000 0.4444 0.0000
0.0000 0.5556 0.0000
0.0000 0.6667 0.0000
0.0000 0.7778 0.0000
0.0000 0.8889 0.0000
0.0000 1.0000 0.0000
0.2222 0.0000 0.0000
0.2222 0.1111 0.0000
0.2222 0.2222 0.0000
0.2222 0.3333 0.0000
0.2222 0.4444 0.0000
0.2222 0.5556 0.0000
0.2222 0.6667 0.0000
0.2222 0.7778 0.0000
0.2222 0.8889 0.0000
0.2222 1.0000 0.0000
0.4444 0.0000 0.0000
0.4444 0.1111 0.0000
0.4444 0.2222 0.0000
0.4444 0.3333 0.0000
0.4444 0.4444 0.0000
0.4444 0.5556 0.0000
0.4444 0.6667 0.0000
0.4444 0.7778 0.0000
0.4444 0.8889 0.0000
0.4444 1.0000 0.0000
0.6667 0.0000 0.0000
0.6667 0.1111 0.0000
0.6667 0.2222 0.0000
0.6667 0.3333 0.0000
0.6667 0.4444 0.0000
0.6667 0.5556 0.0000
0.6667 0.6667 0.0000
0.6667 0.7778 0.0000
0.6667 0.8889 0.0000
0.6667 1.0000 0.0000
0.8889 0.0000 0.0000
0.8889 0.1111 0.0000
0.8889 0.2222 0.0000
0.8889 0.3333 0.0000
0.8889 0.4444 0.0000
0.8889 0.5556 0.0000
0.8889 0.6667 0.0000
0.8889 0.7778 0.0000
0.8889 0.8889 0.0000
0.8889 1.0000 0.0000
1.1111 0.0000 0.0000
1.1111 0.1111 0.0000
1.1111 0.2222 0.0000
1.1111 0.3333 0.0000
1.1111 0.4444 0.0000
1.1111 0.5556 0.0000
1.1111 0.6667 0.0000
1.1111 0.7778 0.0000
1.1111 0.8889 0.0000
1.1111 1.0000 0.0000
1.3333 0.0000 0.0000
1.3333 0.1111 0.0000
1.3333 0.2222 0.0000
1.3333 0.3333 0.0000
1.3333 0.4444 0.0000
1.3333 0.5556 0.0000
1.3333 0.6667 0.0000
1.3333 0.7778 0.0000
1.3333 0.8889 0.0000
1.3333 1.0000 0.0000
1.5556 0.0000 0.0000
1.5556 0.1111 0.0000
1.5556 0.2222 0.0000
1.5556 0.3333 0.0000
1.5556 0.4444 0.0000
1.5556 0.5556 0.0000
1.5556 0.6667 0.0000
1.5556 0.7778 0.0000
1.5556 0.8889 0.0000
1.5556 1.0000 0.0000
1.7778 0.0000 0.0000
1.7778 0.1111 0.0000
1.7778 0.2222 0.0000
1.7778 0.3333 0.0000
1.7778 0.4444 0.0000
1.7778 0.5556 0.0000
1.7778 0.6667 0.0000
1.7778 0.7778 0.0000
1.7778 0.8889 0.0000
1.7778 1.0000 0.0000
2.0000 0.0000 0.0000
2.0000 0.1111 0.0000
2.0000 0.2222 0.0000
2.0000 0.3333 0.0000
2.0000 0.4444 0.0000
2.0000 0.5556 0.0000
2.0000 0.6667 0.0000
2.0000 0.7778 0.0000
2.0000 0.8889 0.0000
2.0000 1.0000 0.0000
0.1111 0.0556 0.0000
0.1111 0.1667 0.0000
0.1111 0.2778 0.0000
0.1111 0.3889 0.0000
0.1111 0.5000 0.0000
0.1111 0.6111 0.0000
0.1111 0.7222 0.0000
0.1111 0.8333 0.0000
0.1111 0.9444 0.0000
0.3333 0.0556 0.0000
0.3333 0.1667 0.0000
0.3333 0.2778 0.0000
0.3333 0.3889 0.0000
0.3333 0.5000 0.0000
0.3333 0.6111 0.0000
0.3333 0.7222 0.0000
0.3333 0.8333 0.0000
0.3333 0.9444 0.0000
0.5556 0.0556 0.0000
0.5556 0.1667 0.0000
0.5556 0.2778 0.0000
0.5556 0.3889 0.0000
0.5556 0.5000 0.0000
0.5556 0.6111 0.0000
0.5556 0.7222 0.0000
0.5556 0.8333 0.0000
0.5556 0.9444 0.0000
0.7778 0.0556 0.0000
0.7778 0.1667 0.0000
0.7778 0.2778 0.0000
0.7778 0.3889 0.0000
0.7778 0.5000 0.0000
0.7778 0.6111 0.0000
0.7778 0.7222 0.0000
0.7778 0.8333 0.0000
0.7778 0.9444 0.0000
1.0000 0.0556 0.0000
1.0000 0.1667 0.0000
1.0000 0.2778 0.0000
1.0000 0.3889 0.0000
1.0000 0.5000 0.0000
1.0000 0.6111 0.0000
1.0000 0.7222 0.0000
1.0000 0.8333 0.0000
1.0000 0.9444 0.0000
1.2222 0.0556 0.0000
1.2222 0.1667 0.0000
1.2222 0.2778 0.0000
1.2222 0.3889 0.0000
1.2222 0.5000 0.0000
1.2222 0.6111 0.0000
1.2222 0.7222 0.0000
1.2222 0.8333 0.0000
1.2222 0.9444 0.0000
1.4444 0.0556 0.0000
1.4444 0.1667 0.0000
1.4444 0.2778 0.0000
1.4444 0.3889 0.0000
1.4444 0.5000 0.0000
1.4444 0.6111 0.0000
1.4444 0.7222 0.0000
1.4444 0.8333 0.0000
1.4444 0.9444 0.0000
1.6667 0.0556 0.0000
1.6667 0.1667 0.0000
1.6667 0.2778 0.0000
1.6667 0.3889 0.0000
1.6667 0.5000 0.0000
1.6667 0.6111 0.0000
1.6667 0.7222 0.0000
1.6667 0.8333 0.0000
1.6667 0.9444 0.0000
1.8889 0.0556 0.0000
1.8889 0.1667 0.0000
1.8889 0.2778 0.0000
1.8889 0.3889 0.0000
1.8889 0.5000 0.0000
1.8889 0.6111 0.0000
1.8889 0.7222 0.0000
1.8889 0.8333 0.0000
1.8889 0.9444 0.0000
0.0000 0.0556 0.0000
0.0556 0.0278 0.0000
0.0556 0.0833 0.0000
0.0000 0.1667 0.0000
0.0556 0.1389 0.0000
0.0556 0.1944 0.0000
0.0000 0.2778 0.0000
0.0556 0.2500 0.0000
0.0556 0.3056 0.0000
0.0000 0.3889 0.0000
0.0556 0.3611 0.0000
0.0556 0.4167 0.0000
0.0000 0.5000 0.0000
0.0556 0.4722 0.0000
0.0556 0.5278 0.0000
0.0000 0.6111 0.0000
0.0556 0.5833 0.0000
0.0556 0.6389 0.0000
0.0000 0.7222 0.0000
0.0556 0.6944 0.0000
0.0556 0.7500 0.0000
0.0000 0.8333 0.0000
0.0556 0.8056 0.0000
0.0556 0.8611 0.0000
0.0000 0.9444 0.0000
0.0556 0.9167 0.0000
0.0556 0.9722 0.0000
0.2222 0.0556 0.0000
0.2778 0.0278 0.0000
0.2778 0.0833 0.0000
0.2222 0.1667 0.0000
0.2778 0.1389 0.0000
0.2778 0.1944 0.0000
0.2222 0.2778 0.0000
0.2778 0.2500 0.0000
0.2778 0.3056 0.0000
0.2222 0.3889 0.0000
0.2778 0.3611 0.0000
0.2778 0.4167 0.0000
0.2222 0.5000 0.0000
0.2778 0.4722 0.0000
0.2778 0.5278 0.0000
0.2222 0.6111 0.0000
0.2778 0.5833 0.0000
0.2778 0.6389 0.0000
0.2222 0.7222 0.0000
0.2778 0.6944 0.0000
0.2778 0.7500 0.0000
0.2222 0.8333 0.0000
0.2778 0.8056 0.0000
0.2778 0.8611 0.0000
0.2222 0.9444 0.0000
0.2778 0.9167 0.0000
0.2778 0.9722 0.0000
0.4444 0.0556 0.0000
0.5000 0.0278 0.0000
0.5000 0.0833 0.0000
0.4444 0.1667 0.0000
0.5000 0.1389 0.0000
0.5000 0.1944 0.0000
0.4444 0.2778 0.0000
0.5000 0.2500 0.0000
0.5000 0.3056 0.0000
0.4444 0.3889 0.0000
0.5000 0.3611 0.0000
0.5000 0.4167 0.0000
0.4444 0.5000 0.0000
0.5000 0.4722 0.0000
0.5000 0.5278 0.0000
0.4444 0.6111 0.0000
0.5000 0.5833 0.0000
0.5000 0.6389 0.0000
0.4444 0.7222 0.0000
0.5000 0.6944 0.0000
0.5000 0.7500 0.0000
0.4444 0.8333 0.0000
0.5000 0.8056 0.0000
0.5000 0.8611 0.0000
0.4444 0.9444 0.0000
0.5000 0.9167 0.0000
0.5000 0.9722 0.0000
0.6667 0.0556 0.0000
0.7222 0.0278 0.0000
0.7222 0.0833 0.0000
0.6667 0.1667 0.0000
0.7222 0.1389 0.0000
0.7222 0.1944 0.0000
0.6667 0.2778 0.0000
0.7222 0.2500 0.0000
0.7222 0.3056 0.0000
0.6667 0.3889 0.0000
0.7222 0.3611 0.0000
0.7222 0.4167 0.0000
0.6667 0.5000 0.0000
0.7222 0.4722 0.0000
0.7222 0.5278 0.0000
0.6667 0.6111 0.0000
0.7222 0.5833 0.0000
0.7222 0.6389 0.0000
0.6667 0.7222 0.0000
0.7222 0.6944 0.0000
0.7222 0.7500 0.0000
0.6667 0.8333 0.0000
0.7222 0.8056 0.0000
0.7222 0.8611 0.0000
0.6667 0.9444 0.0000
0.7222 0.9167 0.0000
0.7222 0.9722 0.0000
0.8889 0.0556 0.0000
0.9444 0.0278 0.0000
0.9444 0.0833 0.0000
0.8889 0.1667 0.0000
0.9444 0.1389 0.0000
0.9444 0.1944 0.0000
0.8889 0.2778 0.0000
0.9444 0.2500 0.0000
0.9444 0.3056 0.0000
0.8889 0.3889 0.0000
0.9444 0.3611 0.0000
0.9444 0.4167 0.0000
0.8889 0.5000 0.0000
0.9444 0.4722 0.0000
0.9444 0.5278 0.0000
0.8889 0.6111 0.0000
0.9444 0.5833 0.0000
0.9444 0.6389 0.0000
0.8889 0.7222 0.0000
0.9444 0.6944 0.0000
0.9444 0.7500 0.0000
0.8889 0.8333 0.0000
0.9444 0.8056 0.0000
0.9444 0.8611 0.0000
0.8889 0.9444 0.0000
0.9444 0.9167 0.0000
0.9444 0.9722 0.0000
1.1111 0.0556 0.0000
1.1667 0.0278 0.0000
1.1667 0.0833 0.0000
1.1111 0.1667 0.0000
1.1667 0.1389 0.0000
1.1667 0.1944 0.0000
1.1111 0.2778 0.0000
1.1667 0.2500 0.0000
1.1667 0.3056 0.0000
1.1111 0.3889 0.0000
1.1667 0.3611 0.0000
1.1667 0.4167 0.0000
1.1111 0.5000 0.0000
1.1667 0.4722 0.0000
1.1667 0.5278 0.0000
1.1111 0.6111 0.0000
1.1667 0.5833 0.0000
1.1667 0.6389 0.0000
1.1111 0.7222 0.0000
1.1667 0.6944 0.0000
1.1667 0.7500 0.0000
1.1111 0.8333 0.0000
1.1667 0.8056 0.0000
1.1667 0.8611 0.0000
1.1111 0.9444 0.0000
1.1667 0.9167 0.0000
1.1667 0.9722 0.0000
1.3333 0.0556 0.0000
1.3889 0.0278 0.0000
1.3889 0.0833 0.0000
1.3333 0.1667 0.0000
1.3889 0.1389 0.0000
1.3889 0.1944 0.0000
1.3333 0.2778 0.0000
1.3889 0.2500 0.0000
1.3889 0.3056 0.0000
1.3333 0.3889 0.0000
1.3889 0.3611 0.0000
1.3889 0.4167 0.0000
1.3333 0.5000 0.0000
1.3889 0.4722 0.0000
1.3889 0.5278 0.0000
1.3333 0.6111 0.0000
1.3889 0.5833 0.0000
1.3889 0.6389 0.0000
1.3333 0.7222 0.0000
1.3889 0.6944 0.0000
1.3889 0.7500 0.0000
1.3333 0.8333 0.0000
1.3889 0.8056 0.0000
1.3889 0.8611 0.0000
1.3333 0.9444 0.0000
1.3889 0.9167 0.0000
1.3889 0.9722 0.0000
1.5556 0.0556 0.0000
1.6111 0.0278 0.0000
1.6111 0.0833 0.0000
1.5556 0.1667 0.0000
1.6111 0.1389 0.0000
1.6111 0.1944 0.0000
1.5556 0.2778 0.0000
1.6111 0.2500 0.0000
1.6111 0.3056 0.0000
1.5556 0.3889 0.0000
1.6111 0.3611 0.0000
1.6111 0.4167 0.0000
1.5556 0.5000 0.0000
1.6111 0.4722 0.0000
1.6111 0.5278 0.0000
1.5556 0.6111 0.0000
1.6111 0.5833 0.0000
1.6111 0.6389 0.0000
1.5556 0.7222 0.0000
1.6111 0.6944 0.0000
1.6111 0.7500 0.0000
1.5556 0.8333 0.0000
1.6111 0.8056 0.0000
1.6111 0.8611 0.0000
1.5556 0.9444 0.0000
1.6111 0.9167 0.0000
1.6111 0.9722 0.0000
1.7778 0.0556 0.0000
1.8333 0.0278 0.0000
1.8333 0.0833 0.0000
1.7778 0.1667 0.0000
1.8333 0.1389 0.0000
1.8333 0.1944 0.0000
1.7778 0.2778 0.0000
1.8333 0.2500 0.0000
1.8333 0.3056 0.0000
1.7778 0.3889 0.0000
1.8333 0.3611 0.0000
1.8333 0.4167 0.0000
1.7778 0.5000 0.0000
1.8333 0.4722 0.0000
1.8333 0.5278 0.0000
1.7778 0.6111 0.0000
1.8333 0.5833 0.0000
1.8333 0.6389 0.0000
1.7778 0.7222 0.0000
1.8333 0.6944 0.0000
1.8333 0.7500 0.0000
1.7778 0.8333 0.0000
1.8333 0.8056 0.0000
1.8333 0.8611 0.0000
1.7778 0.9444 0.0000
1.8333 0.9167 0.0000
1.8333 0.9722 0.0000
0.1111 0.1111 0.0000
0.1667 0.0833 0.0000
0.1111 0.2222 0.0000
0.1667 0.1944 0.0000
0.1111 0.3333 0.0000
0.1667 0.3056 0.0000
0.1111 0.4444 0.0000
0.1667 0.4167 0.0000
0.1111 0.5556 0.0000
0.1667 0.5278 0.0000
0.1111 0.6667 0.0000
0.1667 0.6389 0.0000
0.1111 0.7778 0.0000
0.1667 0.7500 0.0000
0.1111 0.8889 0.0000
0.1667 0.8611 0.0000
0.1111 1.0000 0.0000
0.1667 0.9722 0.0000
0.3333 0.1111 0.0000
0.3889 0.0833 0.0000
0.3333 0.2222 0.0000
0.3889 0.1944 0.0000
0.3333 0.3333 0.0000
0.3889 0.3056 0.0000
0.3333 0.4444 0.0000
0.3889 0.4167 0.0000
0.3333 0.5556 0.0000
0.3889 0.5278 0.0000
0.3333 0.6667 0.0000
0.3889 0.6389 0.0000
0.3333 0.7778 0.0000
0.3889 0.7500 0.0000
0.3333 0.8889 0.0000
0.3889 0.8611 0.0000
0.3333 1.0000 0.0000
0.3889 0.9722 0.0000
0.5556 0.1111 0.0000
[...]
         <PointData>
            <DataArray Name="fValues" NumberOfComponents="3" format="ascii" type="Float64">
-2.27944e-24  9.11777e-24        00000 
 5.90330e-24  1.75869e-23        00000 
-2.95948e-23  1.10702e-23        00000 
-1.56776e-23 -2.74358e-23        00000 
 4.08530e-23 -3.31416e-24        00000 
 3.91939e-24 -3.91939e-24        00000 
-5.71755e-24  1.62305e-23        00000 
-5.38429e-24  1.37055e-23        00000 
-1.96824e-23 -7.87295e-24        00000 
       00000 -4.55888e-24        00000 
-8.37610e-08 -2.76319e-08        00000 
 7.80559e-08  1.63338e-07        00000 
 9.68880e-08 -4.72373e-08        00000 
-7.70275e-08 -1.60355e-08        00000 
 2.00131e-08 -1.19405e-07        00000 
 1.81399e-09  3.93036e-08        00000 
-1.97097e-09  6.92002e-11        00000 
 6.63555e-08  6.74989e-08        00000 
-3.40900e-08  3.29440e-09        00000 
-1.92864e-08  9.66975e-08        00000 
 4.42778e-08  5.86546e-08        00000 
 1.75126e-07  2.62857e-08        00000 
 1.28335e-07 -1.12887e-07        00000 
-1.15534e-07 -2.02091e-07        00000 
 1.25758e-07 -9.41719e-08        00000 
 1.85226e-07  8.16647e-08        00000 
 1.85201e-07  9.84508e-08        00000 
 8.04758e-08 -1.68807e-07        00000 
 5.88030e-08 -5.24823e-08        00000 
 2.76965e-08 -8.37531e-08        00000 
 1.11489e-07  3.69712e-08        00000 
 4.74151e-08  1.41452e-07        00000 
 8.60109e-08  2.90717e-08        00000 
-1.49106e-07 -5.97423e-08        00000 
 6.41151e-08 -7.54191e-08        00000 
 2.41352e-07  2.06879e-08        00000 
 3.78717e-08  1.16366e-07        00000 
-4.53920e-08  6.39700e-09        00000 
-2.88265e-08 -3.14245e-08        00000 
-1.35274e-07  3.91005e-07        00000 
-1.13893e-07 -1.29067e-08        00000 
 2.04875e-08  2.68865e-07        00000 
-2.00619e-08 -1.36262e-07        00000 
 4.98129e-08  8.48441e-08        00000 
-1.01429e-09  1.36497e-07        00000 
-9.65975e-08 -1.62806e-08        00000 
 4.65103e-09  2.07425e-07        00000 
 1.16073e-07  4.25346e-08        00000 
-1.57938e-07 -8.41970e-08        00000 
-9.65819e-08  4.87106e-08        00000 
 1.07595e-07 -3.75503e-07        00000 
-4.40342e-08 -4.80571e-08        00000 
-2.35237e-08  1.68657e-07        00000 
-2.19737e-08  9.98768e-08        00000 
-6.95700e-08 -2.29713e-08        00000 
 9.18719e-08  1.03146e-07        00000 
 1.02868e-07  3.12718e-07        00000 
-1.21305e-08  3.22451e-08        00000 
-1.92346e-07 -1.44003e-07        00000 
-2.82160e-07  2.20012e-08        00000 
 3.97177e-08 -6.30263e-09        00000 
 2.80483e-08  3.68066e-08        00000 
 5.89023e-09 -3.15399e-08        00000 
 1.08726e-07  2.10146e-07        00000 
 1.34640e-08 -5.26944e-08        00000 
 1.02329e-07 -3.36722e-08        00000 
 6.20462e-08 -2.34148e-09        00000 
 3.01937e-08 -2.17457e-08        00000 
-1.41867e-07  8.15467e-08        00000 
 6.23896e-08  1.42887e-07        00000 
-2.53760e-08 -6.09455e-08        00000 
 1.42226e-08  2.74080e-08        00000 
 2.43382e-07  1.11993e-08        00000 
 2.06446e-07  1.18832e-07        00000 
 7.01726e-08  8.06196e-08        00000 
-3.20168e-08 -8.92034e-08        00000 
 9.72223e-08 -5.81495e-08        00000 
-4.50856e-08  2.02969e-07        00000 
 5.88696e-08 -1.29304e-07        00000 
-4.14209e-08 -2.28006e-07        00000 
 1.50222e-07 -3.68572e-07        00000 
 7.90979e-08 -1.06384e-07        00000 
 7.83418e-08 -2.52649e-08        00000 
 9.62657e-08 -4.12475e-08        00000 
 1.55395e-07 -1.47466e-08        00000 
 1.13070e-07  2.04193e-08        00000 
 5.95434e-08  2.04365e-07        00000 
 4.64026e-08  1.05350e-07        00000 
-2.36264e-07  1.39120e-07        00000 
-3.63622e-08  6.11700e-07        00000 
 1.61733e-07 -3.12370e-08        00000 
 1.79527e-07  2.38540e-08        00000 
 5.77342e-08 -2.59104e-08        00000 
 1.00077e-07 -1.88052e-08        00000 
 2.87221e-07 -1.24025e-07        00000 
 1.29663e-07 -3.82568e-08        00000 
 4.30465e-08  1.53121e-07        00000 
 6.77471e-09  1.66195e-07        00000 
 9.39889e-09  7.16174e-08        00000 
 7.93253e-09  1.39559e-08        00000 
-3.62238e-08  5.87439e-08        00000 
 1.20864e-07  2.86865e-08        00000 
 1.20328e-07 -6.16113e-08        00000 
-8.66789e-09  8.49311e-08        00000 
-8.88489e-08  4.28355e-08        00000 
-6.29748e-08 -2.42263e-08        00000 
-2.32940e-08  3.76274e-08        00000 
-1.24905e-08  6.38060e-09        00000 
-9.43649e-08 -5.53325e-08        00000 
-3.69341e-08 -5.29696e-08        00000 
 1.85087e-07  8.06495e-08        00000 
 2.31009e-07  9.19034e-11        00000 
 7.65495e-09 -8.52787e-08        00000 
-7.48287e-08 -3.95105e-08        00000 
 3.05895e-08  1.45605e-07        00000 
-9.46455e-09  9.55053e-08        00000 
 4.18293e-08 -1.95578e-08        00000 
 8.57930e-08 -2.80995e-08        00000 
 1.26830e-07  8.11639e-10        00000 
 5.32453e-08 -5.46279e-08        00000 
 2.94233e-08 -7.82347e-08        00000 
-3.45523e-10 -2.06614e-09        00000 
-1.46031e-08 -1.13534e-07        00000 
 1.41759e-07  1.02959e-07        00000 
 3.34065e-08  3.96431e-08        00000 
 1.19747e-07  2.51747e-08        00000 
 1.77445e-07 -5.50485e-08        00000 
-3.39418e-08 -7.25612e-08        00000 
-4.54385e-08  4.45223e-08        00000 
-8.34035e-08  7.44739e-09        00000 
 1.46125e-07  2.00768e-08        00000 
 2.02608e-08 -1.17588e-07        00000 
 2.08136e-09 -4.34440e-08        00000 
 6.50741e-08 -1.30671e-07        00000 
-4.44797e-08 -8.18919e-08        00000 
-1.21380e-07 -6.21613e-08        00000 
-4.30182e-09  1.55454e-07        00000 
 8.64441e-08  1.39106e-07        00000 
-1.22628e-08  9.76121e-08        00000 
 4.81386e-08 -1.19721e-07        00000 
 4.86468e-08 -9.02926e-08        00000 
 7.90449e-09 -9.64662e-08        00000 
-2.03374e-07 -2.67377e-08        00000 
-8.79727e-08  2.99834e-08        00000 
 4.41584e-08  5.02164e-08        00000 
-1.53509e-07  4.88579e-08        00000 
-1.10714e-07 -3.66255e-08        00000 
-9.79245e-08 -8.16278e-08        00000 
 1.20772e-07 -1.11136e-07        00000 
 9.53582e-08 -2.68833e-08        00000 
-3.47288e-08 -1.88214e-08        00000 
-5.58228e-08  8.52486e-08        00000 
 4.86334e-08 -6.13272e-09        00000 
-1.87311e-07 -4.83236e-08        00000 
 2.08054e-08  5.72545e-08        00000 
 4.68623e-08  6.55065e-09        00000 
-1.42816e-07  3.88382e-08        00000 
 9.27265e-08 -3.20607e-08        00000 
-2.25672e-07 -1.47954e-07        00000 
-1.89843e-07 -1.86312e-07        00000 
-5.56600e-08 -2.75378e-08        00000 
-1.06790e-07  1.01332e-07        00000 
-1.46027e-07  1.40763e-07        00000 
 5.39181e-08  3.03658e-07        00000 
 6.81935e-08  3.68319e-08        00000 
 5.87734e-08 -7.55435e-08        00000 
 4.12023e-08 -1.15307e-07        00000 
 5.83296e-08 -5.65892e-08        00000 
 1.58237e-07  1.53652e-07        00000 
 2.35772e-07  7.53633e-08        00000 
 2.01952e-07 -4.81517e-08        00000 
 2.36269e-08  4.06981e-08        00000 
-4.61243e-08  2.61529e-08        00000 
 4.68928e-08  1.17342e-07        00000 
-2.02695e-08  1.34563e-09        00000 
 1.14778e-07 -7.72637e-09        00000 
 1.14373e-07  8.94896e-08        00000 
-1.84067e-08  1.40119e-07        00000 
 9.99069e-09  1.46171e-07        00000 
 6.40263e-08  2.92506e-07        00000 
-6.01434e-08 -7.86843e-08        00000 
 8.40326e-24 -2.06929e-23        00000 
-2.24533e-08  2.51751e-08        00000 
 9.08950e-08 -1.66249e-07        00000 
-8.09562e-24  2.04888e-23        00000 
-2.72360e-08 -6.72416e-08        00000 
 3.70937e-08 -4.70799e-08        00000 
       00000 -7.44463e-24        00000 
-1.49974e-07 -4.29170e-08        00000 
 3.58758e-08 -1.01486e-07        00000 
 6.35788e-25  1.54416e-23        00000 
-1.00432e-07 -1.03564e-07        00000 
 1.28492e-07 -2.31503e-08        00000 
 1.86116e-23 -3.72231e-24        00000 
 5.17957e-08  2.91146e-08        00000 
 6.95648e-08 -4.71131e-09        00000 
-8.35286e-24 -6.42739e-24        00000 
 1.35093e-08 -7.47641e-08        00000 
-3.87574e-08 -9.84679e-08        00000 
-1.86116e-24  1.48893e-23        00000 
-4.20159e-08  1.28285e-07        00000 
 3.27842e-08 -7.53716e-08        00000 
-7.44463e-24  1.86116e-24        00000 
-8.63492e-08  6.25303e-08        00000 
-6.76106e-08 -1.91342e-08        00000 
 9.41036e-24  3.37536e-24        00000 
-6.96678e-08  2.33221e-08        00000 
-5.23691e-08 -9.54165e-08        00000 
-1.16934e-07  1.01202e-08        00000 
-5.15139e-08 -1.19440e-08        00000 
 7.05757e-08  1.02531e-07        00000 
-2.15894e-08 -7.04363e-08        00000 
 2.38333e-08  1.86898e-07        00000 
-1.52367e-07 -7.14302e-08        00000 
-1.32061e-07 -1.74973e-07        00000 
-7.20078e-08  8.31656e-08        00000 
 3.53218e-09 -1.30029e-07        00000 
-5.73539e-08  7.58257e-09        00000 
 1.03334e-07 -5.87861e-08        00000 
-1.37139e-07 -1.48819e-07        00000 
-1.69033e-07 -5.65352e-08        00000 
-5.02945e-08  7.20365e-08        00000 
-8.59431e-08  1.61088e-07        00000 
-7.21126e-08 -1.55813e-07        00000 
 1.57474e-08  3.18997e-08        00000 
-7.99985e-08  5.03845e-08        00000 
-1.10666e-08 -2.85018e-07        00000 
-8.34282e-08  9.71681e-08        00000 
-1.07538e-07  2.98370e-08        00000 
-8.42941e-08  7.39581e-08        00000 
 3.59955e-08  1.87216e-08        00000 
-9.67701e-08 -4.46833e-08        00000 
-8.14551e-08  1.49912e-07        00000 
-4.12505e-08  1.55558e-09        00000 
-1.12498e-07  1.35255e-07        00000 
 1.00180e-07 -1.45964e-07        00000 
 1.74469e-07 -2.29449e-07        00000 
 6.44019e-08 -6.65274e-09        00000 
 7.28577e-08 -1.16092e-07        00000 
 5.74048e-08 -4.69521e-08        00000 
-5.38773e-08 -1.05451e-07        00000 
-9.58572e-08 -8.87974e-08        00000 
 4.13667e-08  1.64215e-08        00000 
 8.85278e-08 -3.24632e-08        00000 
 1.20657e-07  2.21641e-08        00000 
 1.16312e-08 -3.72705e-08        00000 
-2.67875e-09 -1.06139e-07        00000 
 2.27099e-07  3.34708e-08        00000 
-2.19343e-07  2.95724e-08        00000 
 1.97067e-08 -4.50142e-08        00000 
 1.25985e-07  5.32562e-08        00000 
-6.95426e-08  2.30894e-08        00000 
-2.03641e-07  2.11880e-08        00000 
 1.94250e-08 -1.52040e-07        00000 
-1.53041e-07 -2.08212e-07        00000 
-1.80261e-07  9.89891e-08        00000 
 6.92056e-08 -1.30343e-07        00000 
-1.37737e-07  1.03169e-08        00000 
-3.74355e-08 -2.89427e-08        00000 
 3.07017e-09  2.25008e-07        00000 
 1.31919e-07 -9.17827e-08        00000 
 8.10855e-08 -1.43651e-07        00000 
-3.06835e-08  4.09873e-08        00000 
 1.23345e-07  3.82574e-08        00000 
 5.54704e-08  8.25963e-08        00000 
 4.81026e-08 -1.12091e-07        00000 
-3.67581e-08  9.08647e-08        00000 
-1.01844e-07 -1.06288e-07        00000 
-6.59994e-08 -6.84865e-08        00000 
 3.53035e-08  4.91302e-08        00000 
 5.70596e-08  5.67451e-08        00000 
-1.41414e-07 -1.53050e-08        00000 
 1.14373e-08 -1.26613e-07        00000 
 2.64027e-08 -1.06479e-07        00000 
-1.40179e-07 -1.39521e-07        00000 
-4.09293e-08  8.20436e-08        00000 
 1.04600e-08 -3.82821e-08        00000 
-3.73799e-08 -8.55288e-08        00000 
-1.56070e-08 -1.18628e-07        00000 
-4.23910e-08 -7.95104e-08        00000 
-2.05051e-07 -2.28549e-07        00000 
-4.81873e-08 -1.40248e-08        00000 
-3.08856e-07 -1.07456e-07        00000 
-7.09201e-08 -7.36568e-08        00000 
-1.18901e-07  1.10437e-07        00000 
 1.05212e-08 -1.04758e-08        00000 
-2.03782e-07  5.05581e-08        00000 
 2.28377e-07  2.42154e-07        00000 
 4.32016e-08 -1.83290e-07        00000 
-6.93027e-08  4.26399e-08        00000 
 2.92198e-08  1.55090e-07        00000 
-7.27078e-08  6.45891e-08        00000 
 2.60899e-07  1.19715e-07        00000 
 9.62129e-08  1.57400e-07        00000 
-1.26325e-07 -5.64089e-08        00000 
 3.44616e-08  3.69103e-08        00000 
-3.22221e-08  1.59117e-07        00000 
-3.66806e-08  1.70803e-07        00000 
 1.23940e-07  1.25255e-07        00000 
 6.92503e-08 -1.24434e-07        00000 
-1.03414e-07 -6.14090e-08        00000 
-8.91761e-08  1.19791e-08        00000 
-8.75129e-08 -7.66762e-08        00000 
-4.10486e-08 -7.04285e-08        00000 
-1.08732e-07 -3.20006e-08        00000 
-5.05148e-09 -8.49692e-08        00000 
-4.32995e-08 -9.91102e-08        00000 
-2.94984e-08  2.57982e-08        00000 
-3.93272e-08  7.27610e-10        00000 
-1.50761e-08  1.38132e-07        00000 
-3.05621e-07  6.08882e-08        00000 
 5.87877e-08 -8.06506e-08        00000 
-2.19010e-08 -5.44558e-08        00000 
-1.12874e-07  9.88473e-08        00000 
 1.84214e-07 -3.34732e-08        00000 
 2.99132e-08  3.30559e-08        00000 
-8.00878e-08  7.39756e-08        00000 
 2.70202e-08  4.21718e-07        00000 
 4.53797e-08 -1.30035e-07        00000 
 4.57373e-08 -1.22351e-07        00000 
-6.21821e-08  2.02450e-07        00000 
-6.34526e-09 -3.96902e-08        00000 
 6.21747e-08  1.10459e-07        00000 
-7.01697e-08  1.25438e-07        00000 
-1.88415e-08 -6.04243e-09        00000 
 2.90796e-08  9.29914e-08        00000 
 3.68571e-08 -3.59476e-08        00000 
-3.85824e-08  3.17151e-08        00000 
-6.46746e-09  1.87028e-07        00000 
-7.58847e-08  6.19538e-09        00000 
-1.82434e-07 -5.34549e-08        00000 
 3.26599e-08  1.10631e-07        00000 
 5.29751e-08 -1.00248e-07        00000 
-5.38432e-08  4.79309e-08        00000 
 5.98675e-08  1.89418e-07        00000 
-2.50606e-09  1.60936e-08        00000 
-1.04126e-07 -1.52169e-08        00000 
-1.65331e-07  1.33987e-07        00000 
-1.12756e-07  3.84511e-08        00000 
 7.53732e-08 -7.36480e-08        00000 
-2.79882e-07  6.48425e-09        00000 
-1.47656e-07  1.42736e-09        00000 
-8.35118e-08 -2.43384e-07        00000 
-1.08902e-07  2.74526e-08        00000 
 1.57289e-09  2.02974e-08        00000 
-1.77094e-07  1.56200e-07        00000 
-3.21244e-08  2.60082e-07        00000 
 1.14654e-08 -1.16716e-07        00000 
 5.40987e-09  9.90890e-08        00000 
-1.48065e-07  1.93549e-07        00000 
 1.46229e-08  1.40927e-08        00000 
-6.90769e-08 -4.88116e-09        00000 
-4.35991e-08  6.83462e-09        00000 
-4.97910e-08 -5.86473e-08        00000 
-1.30572e-07  4.25344e-08        00000 
-8.78109e-08  1.34466e-07        00000 
 1.05159e-07 -7.79728e-08        00000 
-2.12268e-07 -2.96069e-08        00000 
-3.87620e-08  5.90496e-08        00000 
-1.74480e-07  7.06812e-08        00000 
-2.76264e-08  1.70509e-08        00000 
-1.42325e-08  2.68199e-08        00000 
-9.88747e-08  1.52384e-07        00000 
-1.97746e-07 -2.23676e-09        00000 
-2.56273e-07  3.65404e-08        00000 
-2.19280e-08  1.11128e-07        00000 
-1.02131e-07  1.73201e-07        00000 
-1.65354e-07 -3.88806e-08        00000 
 8.92208e-08  2.11921e-07        00000 
-8.77463e-09 -5.80735e-09        00000 
 4.16314e-08  5.25002e-08        00000 
-6.01110e-08  2.97012e-07        00000 
 7.73564e-08  1.03239e-07        00000 
 9.13039e-08  1.08284e-07        00000 
 5.37034e-08  1.74976e-07        00000 
-9.50037e-08 -3.25261e-09        00000 
 2.47536e-07  1.51262e-07        00000 
 3.06019e-08  2.53714e-08        00000 
 9.85815e-08 -4.20950e-08        00000 
 1.36276e-07  1.07785e-07        00000 
 3.30727e-08  1.03537e-07        00000 
-3.76807e-07 -3.76936e-08        00000 
-9.34867e-09 -2.45348e-08        00000 
-1.09152e-07  1.14266e-07        00000 
-1.88419e-07  1.09262e-07        00000 
 6.89519e-08 -3.61200e-08        00000 
-1.36973e-07  1.02964e-07        00000 
-1.23128e-07 -7.29514e-08        00000 
 7.86189e-08 -4.65291e-08        00000 
-4.08843e-09  1.41499e-07        00000 
-6.37349e-08  3.24714e-08        00000 
-5.66312e-08 -7.20516e-09        00000 
-2.57899e-09  3.64813e-08        00000 
-1.83477e-07  1.05362e-07        00000 
 1.63316e-07  1.01760e-07        00000 
 4.03958e-09  3.24556e-08        00000 
 1.45317e-08  3.70892e-07        00000 
-1.99710e-08  2.36583e-08        00000 
 1.34708e-07  2.35825e-07        00000 
 6.32312e-08 -1.42967e-07        00000 
 1.85047e-08 -3.87533e-09        00000 
-1.57896e-08  1.58438e-08        00000 
 4.97773e-08 -7.65026e-08        00000 
 1.29257e-07  1.53491e-07        00000 
 5.39960e-08  2.56386e-07        00000 
-1.18483e-07  1.05182e-08        00000 
-2.24666e-08  2.12909e-08        00000 
-1.00625e-07  1.77357e-07        00000 
-2.48766e-08  5.43467e-08        00000 
 5.25810e-08  1.52629e-07        00000 
 1.26719e-08  1.68045e-07        00000 
-9.40558e-08  9.36171e-08        00000 
-2.48866e-08 -8.90882e-08        00000 
 1.29811e-08  5.11661e-08        00000 
-8.64628e-09  4.93862e-08        00000 
-5.32327e-09  1.55403e-08        00000 
-1.66324e-07 -1.77461e-08        00000 
 8.67174e-08  1.07335e-07        00000 
-2.58854e-08  1.04951e-07        00000 
-3.20322e-08  1.00477e-07        00000 
 1.18008e-07 -2.36123e-07        00000 
 9.61605e-08 -1.03278e-07        00000 
-1.12130e-07  4.12905e-07        00000 
 4.52852e-08 -6.73796e-07        00000 
-7.85391e-08  8.05425e-09        00000 
-7.21571e-08 -2.05706e-07        00000 
 1.47971e-07 -1.74952e-07        00000 
 1.26049e-07  9.73023e-08        00000 
-9.81192e-09 -3.32338e-08        00000 
-5.46026e-09  5.49466e-09        00000 
 2.95134e-10 -1.04502e-07        00000 
-1.92680e-08 -9.84385e-08        00000 
-1.53848e-08  3.13872e-09        00000 
-5.25313e-08  6.36727e-08        00000 
-2.81451e-08  1.36538e-07        00000 
-2.32125e-08  5.97589e-08        00000 
 1.20886e-07 -7.05157e-08        00000 
-9.27690e-08 -5.27881e-08        00000 
-5.05944e-08 -8.85447e-09        00000 
 1.28516e-07  7.43927e-08        00000 
-1.29289e-07  8.27357e-08        00000 
-2.43566e-08  1.01290e-07        00000 
 1.30457e-07 -6.06406e-08        00000 
 1.36695e-07 -1.01581e-07        00000 
 1.35685e-07  3.67606e-08        00000 
 1.43714e-07 -5.97142e-08        00000 
-1.74250e-09  4.73863e-08        00000 
 9.85162e-10 -1.50233e-08        00000 
-4.33964e-08  3.33277e-08        00000 
 5.37656e-08  2.97931e-09        00000 
-5.49336e-08  1.17624e-07        00000 
 1.09484e-08  7.54177e-08        00000 
-9.98068e-08  3.39594e-08        00000 
-3.94189e-08  2.43120e-08        00000 
-2.17866e-08  4.68578e-08        00000 
-6.53732e-08 -7.08557e-09        00000 
-5.86336e-08 -1.61271e-07        00000 
 3.10483e-08  6.19090e-09        00000 
 3.51986e-09 -1.51481e-07        00000 
 1.71202e-07  1.70020e-07        00000 
-7.37980e-09  6.20241e-08        00000 
 1.08578e-08 -4.47717e-08        00000 
 1.18704e-07 -3.41040e-08        00000 
-2.03204e-08  1.12593e-07        00000 
-2.11746e-08  8.74464e-08        00000 
 1.87551e-07  7.30164e-08        00000 
-5.36700e-08 -3.71383e-08        00000 
 6.24054e-08 -1.31542e-07        00000 
-6.41893e-08  6.76805e-09        00000 
 1.10779e-07  7.25587e-08        00000 
-3.17596e-08  6.50634e-08        00000 
 6.22951e-08  1.17526e-07        00000 
 3.90932e-08  7.44980e-08        00000 
 5.91958e-11  8.08554e-08        00000 
 1.06979e-07  9.40798e-08        00000 
 3.20733e-08 -6.55924e-08        00000 
 3.86190e-08  8.78114e-08        00000 
 2.74367e-09 -1.36386e-08        00000 
-2.17677e-08  2.89620e-07        00000 
 1.81118e-08 -7.70196e-08        00000 
 3.84056e-08  1.19375e-07        00000 
-6.73087e-08  2.42512e-07        00000 
-1.11285e-07  9.69730e-08        00000 
-5.57580e-08  8.77094e-08        00000 
 5.45826e-08 -4.23951e-08        00000 
 1.33225e-08 -5.73547e-09        00000 
 9.43574e-08 -5.01655e-08        00000 
 3.91903e-08  1.40464e-07        00000 
 7.72516e-10  1.24919e-07        00000 
-2.53837e-07  1.52545e-07        00000 
-2.10174e-08 -6.89458e-08        00000 
 3.33516e-09  8.65340e-08        00000 
-1.07594e-07  1.48809e-07        00000 
-2.93987e-08 -1.20969e-08        00000 
 2.33304e-09  2.70907e-07        00000 
-9.58486e-08 -1.80095e-07        00000 
-5.90319e-08  1.73241e-07        00000 