<?xml version="1.0" encoding="utf-8"?>
<VTKFile byte_order="LittleEndian" type="UnstructuredGrid" version="0.1">
   <UnstructuredGrid>
      <Piece NumberOfCells="1296" NumberOfPoints="685">
         <Points>
            <DataArray Name="Points" NumberOfComponents="3" format="ascii" type="Float32">
0.0000 0.0000 0.0000
0.0000 0.1111 0.0000
0.0000 0.2222 0.0000
0.0000 0.3333 0.0000
0.0000 0.4444 0.0000
0.0000 0.5556 0.0000
0.0000 0.6667 0.0000
0.0000 0.7778 0.0000
0.0000 0.8889 0.0000
0.0000 1.0000 0.0000
0.2222 0.0000 0.0000
0.2222 0.1111 0.0000
0.2222 0.2222 0.0000
0.2222 0.3333 0.0000
0.2222 0.4444 0.0000
0.2222 0.5556 0.0000
0.2222 0.6667 0.0000
0.2222 0.7778 0.0000
0.2222 0.8889 0.0000
0.2222 1.0000 0.0000
0.4444 0.0000 0.0000
0.4444 0.1111 0.0000
0.4444 0.2222 0.0000
0.4444 0.3333 0.0000
0.4444 0.4444 0.0000
0.4444 0.5556 0.0000
0.4444 0.6667 0.0000
0.4444 0.7778 0.0000
0.4444 0.8889 0.0000
0.4444 1.0000 0.0000
0.6667 0.0000 0.0000
0.6667 0.1111 0.0000
0.6667 0.2222 0.0000
0.6667 0.3333 0.0000
0.6667 0.4444 0.0000
0.6667 0.5556 0.0000
0.6667 0.6667 0.0000
0.6667 0.7778 0.0000
0.6667 0.8889 0.0000
0.6667 1.0000 0.0000
0.8889 0.0000 0.0000
0.8889 0.1111 0.0000
0.8889 0.2222 0.0000
0.8889 0.3333 0.0000
0.8889 0.4444 0.0000
0.8889 0.5556 0.0000
0.8889 0.6667 0.0000
0.8889 0.7778 0.0000
0.8889 0.8889 0.0000
0.8889 1.0000 0.0000
1.1111 0.0000 0.0000
1.1111 0.1111 0.0000
1.1111 0.2222 0.0000
1.1111 0.3333 0.0000
1.1111 0.4444 0.0000
1.1111 0.5556 0.0000
1.1111 0.6667 0.0000
1.1111 0.7778 0.0000
1.1111 0.8889 0.0000
1.1111 1.0000 0.0000
1.3333 0.0000 0.0000
1.3333 0.1111 0.0000
1.3333 0.2222 0.0000
1.3333 0.3333 0.0000
1.3333 0.4444 0.0000
1.3333 0.5556 0.0000
1.3333 0.6667 0.0000
1.3333 0.7778 0.0000
1.3333 0.8889 0.0000
1.3333 1.0000 0.0000
1.5556 0.0000 0.0000
1.5556 0.1111 0.0000
1.5556 0.2222 0.0000
1.5556 0.3333 0.0000
1.5556 0.4444 0.0000
1.5556 0.5556 0.0000
1.5556 0.6667 0.0000
1.5556 0.7778 0.0000
1.5556 0.8889 0.0000
1.5556 1.0000 0.0000
1.7778 0.0000 0.0000
1.7778 0.1111 0.0000
1.7778 0.2222 0.0000
1.7778 0.3333 0.0000
1.7778 0.4444 0.0000
1.7778 0.5556 0.0000
1.7778 0.6667 0.0000
1.7778 0.7778 0.0000
1.7778 0.8889 0.0000
1.7778 1.0000 0.0000
2.0000 0.0000 0.0000
2.0000 0.1111 0.0000
2.0000 0.2222 0.0000
2.0000 0.3333 0.0000
2.0000 0.4444 0.0000
2.0000 0.5556 0.0000
2.0000 0.6667 0.0000
2.0000 0.7778 0.0000
2.0000 0.8889 0.0000
2.0000 1.0000 0.0000
0.1111 0.0556 0.0000
0.1111 0.1667 0.0000
0.1111 0.2778 0.0000
0.1111 0.3889 0.0000
0.1111 0.5000 0.0000
0.1111 0.6111 0.0000
0.1111 0.7222 0.0000
0.1111 0.8333 0.0000
0.1111 0.9444 0.0000
0.3333 0.0556 0.0000
0.3333 0.1667 0.0000
0.3333 0.2778 0.0000
0.3333 0.3889 0.0000
0.3333 0.5000 0.0000
0.3333 0.6111 0.0000
0.3333 0.7222 0.0000
0.3333 0.8333 0.0000
0.3333 0.9444 0.0000
0.5556 0.0556 0.0000
0.5556 0.1667 0.0000
0.5556 0.2778 0.0000
0.5556 0.3889 0.0000
0.5556 0.5000 0.0000
0.5556 0.6111 0.0000
0.5556 0.7222 0.0000
0.5556 0.8333 0.0000
0.5556 0.9444 0.0000
0.7778 0.0556 0.0000
0.7778 0.1667 0.0000
0.7778 0.2778 0.0000
0.7778 0.3889 0.0000
0.7778 0.5000 0.0000
0.7778 0.6111 0.0000
0.7778 0.7222 0.0000
0.7778 0.8333 0.0000
0.7778 0.9444 0.0000
1.0000 0.0556 0.0000
1.0000 0.1667 0.0000
1.0000 0.2778 0.0000
1.0000 0.3889 0.0000
1.0000 0.5000 0.0000
1.0000 0.6111 0.0000
1.0000 0.7222 0.0000
1.0000 0.8333 0.0000
1.0000 0.9444 0.0000
1.2222 0.0556 0.0000
1.2222 0.1667 0.0000
1.2222 0.2778 0.0000
1.2222 0.3889 0.0000
1.2222 0.5000 0.0000
1.2222 0.6111 0.0000
1.2222 0.7222 0.0000
1.2222 0.8333 0.0000
1.2222 0.9444 0.0000
1.4444 0.0556 0.0000
1.4444 0.1667 0.0000
1.4444 0.2778 0.0000
1.4444 0.3889 0.0000
1.4444 0.5000 0.0000
1.4444 0.6111 0.0000
1.4444 0.7222 0.0000
1.4444 0.8333 0.0000
1.4444 0.9444 0.0000
1.6667 0.0556 0.0000
1.6667 0.1667 0.0000
1.6667 0.2778 0.0000
1.6667 0.3889 0.0000
1.6667 0.5000 0.0000
1.6667 0.6111 0.0000
1.6667 0.7222 0.0000
1.6667 0.8333 0.0000
1.6667 0.9444 0.0000
1.8889 0.0556 0.0000
1.8889 0.1667 0.0000
1.8889 0.2778 0.0000
1.8889 0.3889 0.0000
1.8889 0.5000 0.0000
1.8889 0.6111 0.0000
1.8889 0.7222 0.0000
1.8889 0.8333 0.0000
1.8889 0.9444 0.0000
0.0000 0.0556 0.0000
0.0556 0.0278 0.0000
0.0556 0.0833 0.0000
0.0000 0.1667 0.0000
0.0556 0.1389 0.0000
0.0556 0.1944 0.0000
0.0000 0.2778 0.0000
0.0556 0.2500 0.0000
0.0556 0.3056 0.0000
0.0000 0.3889 0.0000
0.0556 0.3611 0.0000
0.0556 0.4167 0.0000
0.0000 0.5000 0.0000
0.0556 0.4722 0.0000
0.0556 0.5278 0.0000
0.0000 0.6111 0.0000
0.0556 0.5833 0.0000
0.0556 0.6389 0.0000
0.0000 0.7222 0.0000
0.0556 0.6944 0.0000
0.0556 0.7500 0.0000
0.0000 0.8333 0.0000
0.0556 0.8056 0.0000
0.0556 0.8611 0.0000
0.0000 0.9444 0.0000
0.0556 0.9167 0.0000
0.0556 0.9722 0.0000
0.2222 0.0556 0.0000
0.2778 0.0278 0.0000
0.2778 0.0833 0.0000
0.2222 0.1667 0.0000
0.2778 0.1389 0.0000
0.2778 0.1944 0.0000
0.2222 0.2778 0.0000
0.2778 0.2500 0.0000
0.2778 0.3056 0.0000
0.2222 0.3889 0.0000
0.2778 0.3611 0.0000
0.2778 0.4167 0.0000
0.2222 0.5000 0.0000
0.2778 0.4722 0.0000
0.2778 0.5278 0.0000
0.2222 0.6111 0.0000
0.2778 0.5833 0.0000
0.2778 0.6389 0.0000
0.2222 0.7222 0.0000
0.2778 0.6944 0.0000
0.2778 0.7500 0.0000
0.2222 0.8333 0.0000
0.2778 0.8056 0.0000
0.2778 0.8611 0.0000
0.2222 0.9444 0.0000
0.2778 0.9167 0.0000
0.2778 0.9722 0.0000
0.4444 0.0556 0.0000
0.5000 0.0278 0.0000
0.5000 0.0833 0.0000
0.4444 0.1667 0.0000
0.5000 0.1389 0.0000
0.5000 0.1944 0.0000
0.4444 0.2778 0.0000
0.5000 0.2500 0.0000
0.5000 0.3056 0.0000
0.4444 0.3889 0.0000
0.5000 0.3611 0.0000
0.5000 0.4167 0.0000
0.4444 0.5000 0.0000
0.5000 0.4722 0.0000
0.5000 0.5278 0.0000
0.4444 0.6111 0.0000
0.5000 0.5833 0.0000
0.5000 0.6389 0.0000
0.4444 0.7222 0.0000
0.5000 0.6944 0.0000
0.5000 0.7500 0.0000
0.4444 0.8333 0.0000
0.5000 0.8056 0.0000
0.5000 0.8611 0.0000
0.4444 0.9444 0.0000
0.5000 0.9167 0.0000
0.5000 0.9722 0.0000
0.6667 0.0556 0.0000
0.7222 0.0278 0.0000
0.7222 0.0833 0.0000
0.6667 0.1667 0.0000
0.7222 0.1389 0.0000
0.7222 0.1944 0.0000
0.6667 0.2778 0.0000
0.7222 0.2500 0.0000
0.7222 0.3056 0.0000
0.6667 0.3889 0.0000
0.7222 0.3611 0.0000
0.7222 0.4167 0.0000
0.6667 0.5000 0.0000
0.7222 0.4722 0.0000
0.7222 0.5278 0.0000
0.6667 0.6111 0.0000
0.7222 0.5833 0.0000
0.7222 0.6389 0.0000
0.6667 0.7222 0.0000
0.7222 0.6944 0.0000
0.7222 0.7500 0.0000
0.6667 0.8333 0.0000
0.7222 0.8056 0.0000
0.7222 0.8611 0.0000
0.6667 0.9444 0.0000
0.7222 0.9167 0.0000
0.7222 0.9722 0.0000
0.8889 0.0556 0.0000
0.9444 0.0278 0.0000
0.9444 0.0833 0.0000
0.8889 0.1667 0.0000
0.9444 0.1389 0.0000
0.9444 0.1944 0.0000
0.8889 0.2778 0.0000
0.9444 0.2500 0.0000
0.9444 0.3056 0.0000
0.8889 0.3889 0.0000
0.9444 0.3611 0.0000
0.9444 0.4167 0.0000
0.8889 0.5000 0.0000
0.9444 0.4722 0.0000
0.9444 0.5278 0.0000
0.8889 0.6111 0.0000
0.9444 0.5833 0.0000
0.9444 0.6389 0.0000
0.8889 0.7222 0.0000
0.9444 0.6944 0.0000
0.9444 0.7500 0.0000
0.8889 0.8333 0.0000
0.9444 0.8056 0.0000
0.9444 0.8611 0.0000
0.8889 0.9444 0.0000
0.9444 0.9167 0.0000
0.9444 0.9722 0.0000
1.1111 0.0556 0.0000
1.1667 0.0278 0.0000
1.1667 0.0833 0.0000
1.1111 0.1667 0.0000
1.1667 0.1389 0.0000
1.1667 0.1944 0.0000
1.1111 0.2778 0.0000
1.1667 0.2500 0.0000
1.1667 0.3056 0.0000
1.1111 0.3889 0.0000
1.1667 0.3611 0.0000
1.1667 0.4167 0.0000
1.1111 0.5000 0.0000
1.1667 0.4722 0.0000
1.1667 0.5278 0.0000
1.1111 0.6111 0.0000
1.1667 0.5833 0.0000
1.1667 0.6389 0.0000
1.1111 0.7222 0.0000
1.1667 0.6944 0.0000
1.1667 0.7500 0.0000
1.1111 0.8333 0.0000
1.1667 0.8056 0.0000
1.1667 0.8611 0.0000
1.1111 0.9444 0.0000
1.1667 0.9167 0.0000
1.1667 0.9722 0.0000
1.3333 0.0556 0.0000
1.3889 0.0278 0.0000
1.3889 0.0833 0.0000
1.3333 0.1667 0.0000
1.3889 0.1389 0.0000
1.3889 0.1944 0.0000
1.3333 0.2778 0.0000
1.3889 0.2500 0.0000
1.3889 0.3056 0.0000
1.3333 0.3889 0.0000
1.3889 0.3611 0.0000
1.3889 0.4167 0.0000
1.3333 0.5000 0.0000
1.3889 0.4722 0.0000
1.3889 0.5278 0.0000
1.3333 0.6111 0.0000
1.3889 0.5833 0.0000
1.3889 0.6389 0.0000
1.3333 0.7222 0.0000
1.3889 0.6944 0.0000
1.3889 0.7500 0.0000
1.3333 0.8333 0.0000
1.3889 0.8056 0.0000
1.3889 0.8611 0.0000
1.3333 0.9444 0.0000
1.3889 0.9167 0.0000
1.3889 0.9722 0.0000
1.5556 0.0556 0.0000
1.6111 0.0278 0.0000
1.6111 0.0833 0.0000
1.5556 0.1667 0.0000
1.6111 0.1389 0.0000
1.6111 0.1944 0.0000
1.5556 0.2778 0.0000
1.6111 0.2500 0.0000
1.6111 0.3056 0.0000
1.5556 0.3889 0.0000
1.6111 0.3611 0.0000
1.6111 0.4167 0.0000
1.5556 0.5000 0.0000
1.6111 0.4722 0.0000
1.6111 0.5278 0.0000
1.5556 0.6111 0.0000
1.6111 0.5833 0.0000
1.6111 0.6389 0.0000
1.5556 0.7222 0.0000
1.6111 0.6944 0.0000
1.6111 0.7500 0.0000
1.5556 0.8333 0.0000
1.6111 0.8056 0.0000
1.6111 0.8611 0.0000
1.5556 0.9444 0.0000
1.6111 0.9167 0.0000
1.6111 0.9722 0.0000
1.7778 0.0556 0.0000
1.8333 0.0278 0.0000
1.8333 0.0833 0.0000
1.7778 0.1667 0.0000
1.8333 0.1389 0.0000
1.8333 0.1944 0.0000
1.7778 0.2778 0.0000
1.8333 0.2500 0.0000
1.8333 0.3056 0.0000
1.7778 0.3889 0.0000
1.8333 0.3611 0.0000
1.8333 0.4167 0.0000
1.7778 0.5000 0.0000
1.8333 0.4722 0.0000
1.8333 0.5278 0.0000
1.7778 0.6111 0.0000
1.8333 0.5833 0.0000
1.8333 0.6389 0.0000
1.7778 0.7222 0.0000
1.8333 0.6944 0.0000
1.8333 0.7500 0.0000
1.7778 0.8333 0.0000
1.8333 0.8056 0.0000
1.8333 0.8611 0.0000
1.7778 0.9444 0.0000
1.8333 0.9167 0.0000
1.8333 0.9722 0.0000
0.1111 0.1111 0.0000
0.1667 0.0833 0.0000
0.1111 0.2222 0.0000
0.1667 0.1944 0.0000
0.1111 0.3333 0.0000
0.1667 0.3056 0.0000
0.1111 0.4444 0.0000
0.1667 0.4167 0.0000
0.1111 0.5556 0.0000
0.1667 0.5278 0.0000
0.1111 0.6667 0.0000
0.1667 0.6389 0.0000
0.1111 0.7778 0.0000
0.1667 0.7500 0.0000
0.1111 0.8889 0.0000
0.1667 0.8611 0.0000
0.1111 1.0000 0.0000
0.1667 0.9722 0.0000
0.3333 0.1111 0.0000
0.3889 0.0833 0.0000
0.3333 0.2222 0.0000
0.3889 0.1944 0.0000
0.3333 0.3333 0.0000
0.3889 0.3056 0.0000
0.3333 0.4444 0.0000
0.3889 0.4167 0.0000
0.3333 0.5556 0.0000
0.3889 0.5278 0.0000
0.3333 0.6667 0.0000
0.3889 0.6389 0.0000
0.3333 0.7778 0.0000
0.3889 0.7500 0.0000
0.3333 0.8889 0.0000
0.3889 0.8611 0.0000
0.3333 1.0000 0.0000
0.3889 0.9722 0.0000
0.5556 0.1111 0.0000
[...]
         <PointData>
            <DataArray Name="fValues" NumberOfComponents="3" format="ascii" type="Float64">
 2.84930e-24 -5.69860e-24        00000 
-2.39822e-24  1.72180e-24        00000 
 1.71699e-24 -3.97697e-24        00000 
 6.12405e-25  1.95970e-24        00000 
-6.07596e-24  4.84444e-24        00000 
       00000 -8.81864e-24        00000 
-6.97402e-25 -2.31123e-24        00000 
 3.05926e-25 -1.71318e-24        00000 
-1.96824e-24  3.99798e-25        00000 
 5.69860e-25  3.41916e-24        00000 
-6.23243e-09  2.98472e-08        00000 
 1.78437e-09 -1.49383e-08        00000 
 8.61015e-09  1.01318e-08        00000 
-3.90610e-08 -3.80633e-08        00000 
-3.71162e-08 -1.76284e-08        00000 
-2.08308e-08  1.76146e-08        00000 
-1.48356e-08  8.50796e-09        00000 
-2.15723e-08  3.76926e-08        00000 
-5.23160e-09  7.56450e-09        00000 
-1.17755e-08 -1.37538e-07        00000 
 9.00552e-09  6.56536e-08        00000 
-9.45273e-09  2.75596e-08        00000 
 3.56554e-09 -2.91524e-08        00000 
 1.24930e-08 -5.45240e-08        00000 
-8.06558e-08 -5.94506e-08        00000 
 4.23331e-08  6.87884e-09        00000 
 3.35226e-08 -1.18651e-08        00000 
-5.04423e-09 -2.93955e-08        00000 
 4.76524e-09 -1.63309e-08        00000 
-5.37295e-09 -6.11571e-08        00000 
 7.38209e-09  1.26285e-07        00000 
 9.46666e-09  3.44278e-08        00000 
 1.03320e-08  1.81024e-08        00000 
-3.01485e-08 -1.18045e-08        00000 
-1.95009e-08 -5.98314e-09        00000 
 3.42102e-08  3.09362e-08        00000 
 4.99511e-09 -1.22141e-08        00000 
-4.50044e-08 -2.36095e-08        00000 
-9.17372e-09 -1.68042e-08        00000 
-6.02853e-09  2.89677e-09        00000 
-3.97568e-09  5.79766e-08        00000 
-5.47416e-09  3.27633e-08        00000 
 6.81732e-09 -2.13119e-08        00000 
 3.90988e-09 -1.91028e-08        00000 
-3.24982e-08  1.80243e-10        00000 
 3.22268e-08  3.00514e-08        00000 
 5.93982e-09  2.33968e-08        00000 
-1.80322e-08  3.29659e-09        00000 
 2.13947e-08  5.45751e-08        00000 
-9.29328e-09 -5.44803e-08        00000 
 5.11335e-08  1.44697e-08        00000 
 1.54740e-08 -2.33891e-09        00000 
-2.57225e-09 -5.92676e-09        00000 
-2.59340e-09  3.82510e-08        00000 
-2.26665e-09 -1.50734e-08        00000 
 1.25602e-08  6.45958e-09        00000 
 5.97993e-09 -3.29181e-08        00000 
 1.28833e-09 -1.86181e-08        00000 
-3.08052e-08 -2.76395e-08        00000 
-1.94948e-08  1.43484e-08        00000 
-1.77886e-08 -6.77814e-08        00000 
 6.84125e-09 -2.59300e-08        00000 
 1.22812e-08 -8.39972e-09        00000 
-3.47296e-09  2.89480e-08        00000 
 1.68058e-08  4.23876e-08        00000 
-1.37678e-08  1.28171e-08        00000 
-5.94895e-08 -1.76433e-08        00000 
-3.66220e-08 -5.57583e-08        00000 
 3.19267e-08 -1.14812e-08        00000 
 3.58669e-08 -4.92391e-08        00000 
 2.03149e-09 -4.95351e-08        00000 
 1.40487e-08 -3.97368e-08        00000 
 1.55069e-08 -5.58852e-09        00000 
 1.90733e-08 -4.24687e-09        00000 
-2.29363e-11  1.45576e-08        00000 
-1.23563e-08 -1.70947e-08        00000 
-1.84868e-08 -1.31021e-08        00000 
 3.47364e-08  5.12775e-09        00000 
 1.86431e-08 -1.96395e-08        00000 
 9.39391e-09 -2.05674e-08        00000 
-3.87928e-08  3.00863e-08        00000 
-7.13976e-08  5.41263e-08        00000 
-4.81837e-08  8.54081e-09        00000 
-4.99886e-08  3.45284e-09        00000 
-4.06689e-08 -1.79287e-08        00000 
-3.11275e-10 -1.90193e-08        00000 
-2.88799e-09  1.78105e-08        00000 
 9.02810e-09  6.15371e-08        00000 
 9.76866e-09  6.22385e-08        00000 
-3.06622e-08  1.23813e-07        00000 
-2.55810e-08  2.19018e-08        00000 
 1.89559e-08  3.10470e-08        00000 
 1.69553e-08 -1.91835e-08        00000 
-2.33900e-08  1.77424e-08        00000 
-1.41128e-08  2.23017e-08        00000 
 1.09571e-09  2.06652e-08        00000 
-3.02253e-08  3.29745e-08        00000 
 4.55361e-08  7.36374e-09        00000 
 3.73353e-09  9.18078e-10        00000 
 2.71589e-09 -1.86300e-08        00000 
 3.53164e-08  2.28678e-08        00000 
-1.21831e-08  3.86715e-08        00000 
-1.53846e-08  5.07368e-08        00000 
 2.91754e-09  3.63010e-08        00000 
 3.63848e-08 -1.27080e-08        00000 
 7.69211e-09  1.01315e-08        00000 
 6.18897e-09 -4.52920e-09        00000 
 3.30295e-09 -8.41096e-09        00000 
-1.38915e-08  2.38825e-09        00000 
-3.14035e-09  9.96309e-09        00000 
-3.36665e-08  2.50617e-08        00000 
 1.40856e-08  5.07480e-08        00000 
-1.08027e-08  4.25024e-08        00000 
 1.15264e-08  4.12452e-08        00000 
 1.19212e-08  1.22125e-10        00000 
-1.22505e-08  7.87747e-09        00000 
 8.73868e-09  7.97723e-09        00000 
-4.03470e-08  4.00007e-08        00000 
 6.50176e-09 -2.34679e-08        00000 
 1.81149e-08  1.76310e-08        00000 
 1.60152e-08  1.91944e-08        00000 
 2.77639e-08  4.25366e-08        00000 
 1.06926e-08  1.02362e-08        00000 
 2.86713e-08  3.01969e-08        00000 
-7.11040e-10  3.52949e-08        00000 
-1.61691e-08  1.82536e-08        00000 
-7.39284e-09  5.12986e-09        00000 
 2.20961e-08 -4.10172e-08        00000 
-4.39827e-08 -1.81477e-08        00000 
-3.83911e-08  6.42867e-09        00000 
-7.81671e-08 -3.05905e-08        00000 
 1.64139e-08  2.33845e-09        00000 
 3.50440e-10  1.74075e-08        00000 
-7.36856e-09  1.27797e-08        00000 
-2.65835e-08 -3.29700e-08        00000 
-4.26981e-08 -2.70347e-08        00000 
-2.00910e-08 -2.93306e-08        00000 
-1.52070e-08 -4.47042e-08        00000 
 1.19307e-08 -3.17536e-08        00000 
-3.46656e-08  1.16116e-08        00000 
-1.96649e-08 -3.51378e-08        00000 
 1.87860e-09 -3.79147e-08        00000 
 4.25339e-09  8.17651e-09        00000 
-3.23426e-08 -3.31219e-08        00000 
-1.15629e-08  1.25014e-08        00000 
 2.05548e-08  1.62221e-08        00000 
 4.48832e-08  2.32014e-08        00000 
 4.35876e-08 -1.13098e-08        00000 
 4.11793e-08  8.59590e-09        00000 
 1.26183e-08  1.80900e-08        00000 
 1.61523e-09  1.57565e-08        00000 
 2.64421e-08  1.02331e-08        00000 
 1.39149e-08 -1.12425e-08        00000 
-1.62525e-08 -1.70890e-08        00000 
-8.09556e-09  1.21289e-08        00000 
-4.13567e-08  3.14280e-08        00000 
-1.38784e-08  2.19322e-08        00000 
 3.05707e-08  3.39390e-08        00000 
 1.68638e-08  7.81232e-08        00000 
 9.00911e-10  5.53473e-08        00000 
-8.00543e-09  2.22441e-08        00000 
-2.25126e-08  1.49278e-08        00000 
 1.46851e-08 -7.13001e-09        00000 
-2.44834e-08 -2.64346e-08        00000 
 1.51331e-08 -1.24224e-08        00000 
 8.83045e-09 -6.30988e-09        00000 
-2.81620e-08  4.03102e-09        00000 
-1.16199e-08  9.27827e-10        00000 
-1.83069e-08 -3.57591e-08        00000 
-5.14887e-08  8.77068e-09        00000 
-3.84417e-08  2.30616e-08        00000 
-2.45487e-08  6.52894e-09        00000 
 2.57507e-08  6.16491e-08        00000 
 3.40900e-08  5.51310e-08        00000 
 8.06210e-09  2.31778e-08        00000 
-3.12298e-09  1.93477e-08        00000 
 1.43531e-08 -2.41305e-08        00000 
 2.01339e-10  3.38424e-09        00000 
-1.15612e-08  1.36899e-08        00000 
 5.26825e-09 -1.46291e-08        00000 
-1.63586e-08 -3.86451e-08        00000 
-1.62937e-24  6.00467e-24        00000 
-8.27645e-09 -4.97035e-08        00000 
-3.48735e-08 -8.49622e-09        00000 
 6.44413e-25 -2.12891e-24        00000 
 1.41639e-08 -1.51127e-08        00000 
-1.26324e-08  2.46203e-08        00000 
 1.86116e-24 -4.65289e-25        00000 
-1.67587e-08 -1.20760e-08        00000 
 2.49276e-09  2.45547e-09        00000 
-1.43011e-24  4.77606e-24        00000 
 2.40226e-09 -3.73783e-08        00000 
-2.83526e-08  3.05518e-08        00000 
-2.44277e-24 -2.79173e-24        00000 
 1.86994e-09 -2.42315e-08        00000 
-2.44328e-08 -2.62337e-08        00000 
 5.69970e-24 -3.33711e-24        00000 
-2.96994e-08 -3.08323e-08        00000 
-2.60660e-08 -1.28278e-08        00000 
-1.86116e-24  4.65289e-25        00000 
-5.51652e-09  3.64858e-09        00000 
 7.32283e-09  8.02293e-09        00000 
-1.86116e-24  1.86116e-24        00000 
 6.87219e-11 -2.17732e-08        00000 
-2.10328e-08  9.80753e-10        00000 
-1.28117e-25 -2.01661e-24        00000 
-1.60921e-08  1.84005e-09        00000 
 2.82630e-09  7.92767e-09        00000 
 1.73802e-08 -3.98316e-09        00000 
-1.33658e-08 -5.93010e-08        00000 
 7.65645e-10  9.36611e-09        00000 
-4.36384e-08 -3.44177e-08        00000 
-4.87065e-09 -8.98867e-09        00000 
-1.89582e-08  3.40404e-09        00000 
-1.50154e-09  1.88342e-08        00000 
 3.60742e-09  1.42332e-08        00000 
 3.11381e-09  3.37994e-08        00000 
-3.33427e-08  6.14155e-08        00000 
 2.07392e-08  1.25747e-08        00000 
 4.21016e-09  4.11029e-08        00000 
-2.38789e-08  2.45669e-08        00000 
 1.64677e-08  1.51346e-09        00000 
-3.48822e-08  2.88148e-08        00000 
-3.87260e-08  1.57808e-09        00000 
 1.66407e-08  3.30888e-08        00000 
 8.52456e-09 -1.72900e-08        00000 
-2.46673e-08 -9.31440e-09        00000 
-1.29905e-09  1.52546e-08        00000 
-7.40841e-09 -1.43584e-08        00000 
-1.87810e-08 -2.97311e-08        00000 
-2.05967e-08  2.14847e-08        00000 
 2.14149e-08  1.08677e-08        00000 
-3.71806e-08  3.76246e-08        00000 
 2.35149e-08 -4.17941e-08        00000 
-7.69192e-09  1.42897e-07        00000 
-2.34973e-08  3.63493e-09        00000 
-2.22681e-08 -4.60970e-08        00000 
-3.19143e-08  1.12454e-08        00000 
-7.49167e-08 -2.85334e-08        00000 
-4.76032e-09  1.98402e-08        00000 
 3.62650e-08  1.15484e-08        00000 
-2.39726e-08  2.99923e-08        00000 
-7.48309e-09  8.91087e-09        00000 
-2.65462e-08 -6.28435e-08        00000 
-4.52785e-08  2.24097e-08        00000 
-1.02915e-08  1.75432e-09        00000 
-3.88610e-08 -2.86550e-08        00000 
-2.31697e-08 -2.25608e-08        00000 
 3.00554e-08  3.12510e-08        00000 
 4.14939e-08 -3.90211e-09        00000 
 4.18669e-09 -2.91745e-08        00000 
 3.29759e-08 -7.96765e-09        00000 
-1.52794e-08  1.95441e-08        00000 
 9.89336e-09 -2.60257e-08        00000 
-2.32836e-08 -2.31922e-08        00000 
-3.55335e-08  2.02000e-08        00000 
 2.00558e-10 -9.88603e-09        00000 
 1.69633e-08  3.21738e-08        00000 
 1.35132e-08  4.20819e-11        00000 
 2.97516e-08  2.26638e-08        00000 
 3.99528e-09  1.23830e-08        00000 
-2.58940e-08  4.79702e-09        00000 
-1.53119e-08 -4.88107e-08        00000 
 2.61484e-09 -1.32934e-07        00000 
-3.14080e-08  1.71234e-08        00000 
-1.27033e-08 -3.24704e-08        00000 
-1.24949e-08  2.97963e-10        00000 
 2.48856e-08  2.07489e-08        00000 
 4.01265e-08  8.60070e-09        00000 
-5.74460e-09 -1.30854e-08        00000 
 4.29422e-09 -1.36002e-08        00000 
-5.20023e-08 -2.44460e-09        00000 
 4.82666e-09 -1.57544e-08        00000 
 6.57751e-09 -3.91626e-08        00000 
 2.99002e-08 -4.12925e-08        00000 
 8.08916e-09  4.04492e-08        00000 
 1.84949e-08  3.60278e-08        00000 
 2.30259e-08  3.46429e-10        00000 
 1.21107e-08 -1.19253e-08        00000 
-1.14645e-08  3.51410e-08        00000 
-1.88508e-08  2.71529e-08        00000 
-2.18547e-08  4.04761e-08        00000 
-4.27285e-08  1.43828e-08        00000 
-1.40697e-08 -1.30570e-08        00000 
-8.52977e-09  2.42964e-08        00000 
-2.18186e-09 -8.65889e-09        00000 
-2.18504e-08  8.06640e-10        00000 
-1.66457e-08  2.48275e-08        00000 
-2.88890e-09 -9.15946e-09        00000 
 1.57746e-08 -1.96225e-08        00000 
-1.41234e-08 -7.11134e-09        00000 
-3.15251e-09 -1.46201e-10        00000 
 1.46673e-08 -2.89214e-08        00000 
-3.48334e-09  1.03239e-08        00000 
-1.21444e-08  1.44180e-08        00000 
 4.18024e-08 -8.06039e-09        00000 
-3.99226e-08 -2.03650e-08        00000 
-4.96100e-08 -2.28251e-08        00000 
-1.62985e-08 -1.90422e-08        00000 
-3.18058e-08  2.99988e-08        00000 
-1.27938e-08 -8.80305e-09        00000 
-1.33539e-08 -2.76632e-08        00000 
-4.82197e-08  2.40513e-08        00000 
-3.36395e-08  3.16168e-08        00000 
 1.03352e-08 -3.63056e-09        00000 
-3.60370e-08 -1.38572e-09        00000 
-1.08873e-08  3.06108e-08        00000 
-1.16031e-08  6.97221e-09        00000 
-1.32070e-09 -2.34087e-09        00000 
-1.14155e-08 -6.66077e-10        00000 
-1.01680e-08 -5.17633e-08        00000 
 8.24939e-09  2.66950e-08        00000 
 3.27412e-08  3.18757e-08        00000 
 1.72115e-09  7.82305e-09        00000 
-3.06413e-08 -5.88414e-08        00000 
-4.83725e-08  6.83186e-08        00000 
 2.35762e-09 -1.93913e-08        00000 
 2.73562e-09 -7.57620e-09        00000 
-5.64694e-09 -3.12853e-08        00000 
-2.86358e-08 -9.98541e-09        00000 
 5.19236e-08  1.71522e-09        00000 
 4.01606e-08  3.28963e-08        00000 
-2.58873e-09 -5.73877e-10        00000 
-3.07625e-09 -1.29155e-08        00000 
-5.15097e-08  3.44005e-08        00000 
 1.13303e-08 -9.78757e-09        00000 
-1.69874e-08  3.62884e-08        00000 
-4.49168e-09  1.69305e-08        00000 
 1.22879e-08  8.08775e-09        00000 
 1.59784e-08  3.37376e-08        00000 
-7.00908e-09  4.56849e-09        00000 
 3.56665e-09 -3.16869e-08        00000 
 4.93807e-09 -2.68209e-08        00000 
 6.06357e-09 -6.16978e-09        00000 
 1.39451e-08 -1.81737e-08        00000 
 1.80836e-08 -3.89537e-08        00000 
 5.85613e-08  9.46812e-09        00000 
-2.69819e-08  9.59172e-09        00000 
 5.21509e-08 -3.70694e-08        00000 
 1.65431e-08  1.55213e-08        00000 
 1.18397e-08  3.83505e-08        00000 
 3.48476e-08  1.72681e-08        00000 
 4.96605e-08 -7.66369e-09        00000 
 2.55034e-08  3.20582e-08        00000 
 3.80818e-08  1.06690e-07        00000 
 1.59757e-08 -2.08486e-08        00000 
 2.19273e-08  3.46935e-08        00000 
 1.61122e-08  4.13280e-08        00000 
 1.40999e-08  3.90278e-09        00000 
 8.80425e-09 -4.12797e-10        00000 
 1.43353e-08  2.43757e-08        00000 
 2.53830e-08  3.08402e-08        00000 
 7.71456e-09 -2.49336e-08        00000 
 1.46421e-08 -5.84464e-09        00000 
-1.27746e-08  8.96372e-09        00000 
-8.88090e-09 -3.55297e-08        00000 
 1.00779e-08 -1.27644e-08        00000 
-2.65590e-09 -6.93264e-09        00000 
-1.81249e-08  2.96335e-08        00000 
-2.72829e-08 -1.71806e-08        00000 
-2.32613e-08 -3.09347e-08        00000 
-2.21099e-08  2.40106e-08        00000 
 2.10279e-08 -1.18791e-08        00000 
 2.50532e-08 -1.60220e-08        00000 
 5.46675e-08  5.21220e-08        00000 
 4.81926e-08  1.39778e-08        00000 
 1.59409e-08  1.87594e-08        00000 
 4.51570e-08  2.80889e-08        00000 
 1.57035e-08 -5.32110e-08        00000 
 2.56538e-08  1.03515e-07        00000 
 9.12758e-09  4.28386e-08        00000 
 1.77189e-08 -4.12706e-09        00000 
 1.23023e-08  1.02024e-08        00000 
-1.87453e-09  4.42628e-08        00000 
 1.50433e-08 -4.92468e-08        00000 
-4.64055e-09  2.62834e-08        00000 
-1.35731e-09 -1.36355e-08        00000 
-2.32555e-09 -2.27798e-08        00000 
-7.27925e-09  2.08982e-08        00000 
-6.06354e-09 -8.02241e-09        00000 
-3.76648e-08  4.41182e-09        00000 
-1.20973e-08  7.62412e-11        00000 
-5.41533e-08  2.18565e-08        00000 
 1.62944e-08  4.00807e-08        00000 
 6.84850e-08  1.97755e-08        00000 
 1.78221e-09  3.24425e-08        00000 
 7.58891e-08  1.46048e-08        00000 
 4.52441e-08 -9.73125e-09        00000 
-9.92310e-09 -9.11925e-09        00000 
 5.71271e-08  1.26464e-08        00000 
 2.60855e-08  2.05551e-08        00000 
 3.86784e-08  3.17889e-08        00000 
 3.44201e-08 -2.61466e-08        00000 
 3.59114e-08  8.50933e-09        00000 
 6.57309e-10  1.01801e-08        00000 
 5.13321e-08 -1.40341e-08        00000 
 1.00701e-09  3.76190e-10        00000 
-1.31181e-08 -1.24874e-08        00000 
-2.75107e-08  6.02100e-08        00000 
 1.10076e-08 -1.81088e-08        00000 
-2.31524e-08 -2.53829e-08        00000 
-3.19183e-08  2.22455e-08        00000 
 1.22013e-08  1.13725e-08        00000 
-1.33643e-08 -2.26996e-08        00000 
 1.40517e-10 -3.94418e-09        00000 
 2.22545e-08 -2.94222e-09        00000 
-3.63214e-08  8.60678e-09        00000 
 2.59393e-08 -9.73638e-09        00000 
-3.40394e-08  7.78125e-09        00000 
-3.31812e-08  1.73844e-08        00000 
 5.61613e-10 -6.22551e-09        00000 
 4.20039e-09 -5.05030e-09        00000 
 1.77471e-09  2.44260e-08        00000 
 1.15757e-08 -1.68552e-08        00000 
 1.16128e-08  3.68264e-09        00000 
-1.33317e-08 -4.02869e-09        00000 
 1.47310e-09  1.82362e-08        00000 
 9.36870e-09  3.01594e-08        00000 
 7.88549e-09 -4.39084e-08        00000 
 1.64289e-09  1.03673e-08        00000 
-5.34294e-09  1.37280e-08        00000 
 7.58496e-09 -4.28155e-08        00000 
-3.13073e-08  5.23938e-08        00000 
-3.94093e-08 -1.02921e-07        00000 
-6.33901e-08 -1.60676e-08        00000 
-3.30615e-08 -1.66018e-08        00000 
-3.84073e-08 -3.00579e-08        00000 
-5.43408e-08 -2.98186e-08        00000 
-3.13343e-08 -3.69089e-08        00000 
-4.16177e-10 -1.74022e-08        00000 
 1.78461e-08 -4.23513e-08        00000 
-8.55608e-10  2.47902e-09        00000 
 1.34464e-08 -5.49785e-09        00000 
 3.49956e-09  3.87379e-09        00000 
-1.45982e-08  2.95214e-08        00000 
-4.78169e-09 -1.02269e-08        00000 
 2.37258e-08 -7.89014e-09        00000 
-1.47348e-08 -1.21298e-08        00000 
-1.41328e-08 -5.81313e-09        00000 
-2.49508e-08  7.50727e-09        00000 
 1.39341e-08 -3.30274e-08        00000 
-3.01615e-08  6.02452e-08        00000 
-2.01003e-08 -1.25255e-08        00000 
-1.70561e-08  1.97909e-08        00000 
-8.58798e-09 -1.14774e-08        00000 
 2.96898e-08 -2.44409e-08        00000 
-8.56069e-09 -1.16275e-08        00000 
 1.50942e-08 -3.53301e-08        00000 
-9.37251e-09 -1.11607e-08        00000 
 1.55463e-08 -4.24133e-08        00000 
 3.53179e-08  1.55318e-08        00000 
 1.76808e-09  4.28325e-09        00000 
-3.27406e-08  7.33047e-09        00000 
-1.58709e-08 -6.60762e-08        00000 
-6.97604e-09 -3.76077e-08        00000 
-2.32937e-08 -3.02581e-08        00000 
-8.15974e-09 -1.13620e-08        00000 
-2.25486e-08 -4.97081e-10        00000 
-1.37231e-08 -1.04895e-07        00000 
-3.00783e-08  5.61334e-08        00000 
-7.96734e-09  3.07649e-08        00000 
-2.86147e-08 -1.95960e-08        00000 
 1.61430e-08 -4.70102e-09        00000 
-2.31135e-10 -1.17820e-08        00000 
-8.63879e-09  2.08661e-08        00000 
-1.11575e-08  7.49046e-09        00000 
-9.06496e-09  1.60949e-08        00000 
-1.25704e-08 -3.73769e-08        00000 
-3.14552e-09 -1.95106e-08        00000 
-2.87292e-08 -2.93278e-08        00000 
-1.72079e-08 -4.89761e-09        00000 
 1.27583e-08 -1.82038e-09        00000 
-3.79002e-08 -4.87485e-09        00000 
-4.93898e-08 -3.98146e-08        00000 
-6.09377e-09  1.66762e-08        00000 
 1.74991e-08 -2.66671e-08        00000 
-1.69386e-08  2.35051e-08        00000 
 1.83657e-08 -3.59277e-08        00000 
-1.00703e-08  5.05476e-09        00000 
-1.16971e-08  2.63815e-08        00000 
-4.73288e-08 -1.58421e-08        00000 
-3.60483e-08  2.07733e-08        00000 
-3.31824e-08  6.28353e-08        00000 
 1.34297e-08  3.59572e-08        00000 
 4.96372e-09  3.67008e-08        00000 
 6.55429e-09  2.20360e-08        00000 
 3.44441e-09  5.23137e-08        00000 
-2.07636e-08  6.13984e-08        00000 
 1.09543e-08  7.02296e-08        00000 
 3.79148e-08  3.43710e-08        00000 
 9.39016e-09  9.61959e-09        00000 
-8.49557e-09  2.06383e-08        00000 
 1.65388e-08  3.29692e-08        00000 
 3.37557e-08  4.44898e-08        00000 
 7.50804e-09 -4.80920e-08        00000 
 5.66767e-08  8.10229e-08        00000 
 1.41792e-08  2.77093e-08        00000 