<?xml version="1.0" encoding="utf-8"?>
<VTKFile byte_order="LittleEndian" type="UnstructuredGrid" version="0.1">
   <UnstructuredGrid>
      <Piece NumberOfCells="1296" NumberOfPoints="685">
         <Points>
            <DataArray Name="Points" NumberOfComponents="3" format="ascii" type="Float32">
0.0000 0.0000 0.0000
0.0000 0.1111 0.0000
0.0000 0.2222 0.0000
0.0000 0.3333 0.0000
0.0000 0.4444 0.0000
0.0000 0.5556 0.0000
0.0000 0.6667 0.0000
0.0000 0.7778 0.0000
0.0000 0.8889 0.0000
0.0000 1.0000 0.0000
0.2222 0.0000 0.0000
0.2222 0.1111 0.0000
0.2222 0.2222 0.0000
0.2222 0.3333 0.0000
0.2222 0.4444 0.0000
0.2222 0.5556 0.0000
0.2222 0.6667 0.0000
0.2222 0.7778 0.0000
0.2222 0.8889 0.0000
0.2222 1.0000 0.0000
0.4444 0.0000 0.0000
0.4444 0.1111 0.0000
0.4444 0.2222 0.0000
0.4444 0.3333 0.0000
0.4444 0.4444 0.0000
0.4444 0.5556 0.0000
0.4444 0.6667 0.0000
0.4444 0.7778 0.0000
0.4444 0.8889 0.0000
0.4444 1.0000 0.0000
0.6667 0.0000 0.0000
0.6667 0.1111 0.0000
0.6667 0.2222 0.0000
0.6667 0.3333 0.0000
0.6667 0.4444 0.0000
0.6667 0.5556 0.0000
0.6667 0.6667 0.0000
0.6667 0.7778 0.0000
0.6667 0.8889 0.0000
0.6667 1.0000 0.0000
0.8889 0.0000 0.0000
0.8889 0.1111 0.0000
0.8889 0.2222 0.0000
0.8889 0.3333 0.0000
0.8889 0.4444 0.0000
0.8889 0.5556 0.0000
0.8889 0.6667 0.0000
0.8889 0.7778 0.0000
0.8889 0.8889 0.0000
0.8889 1.0000 0.0000
1.1111 0.0000 0.0000
1.1111 0.1111 0.0000
1.1111 0.2222 0.0000
1.1111 0.3333 0.0000
1.1111 0.4444 0.0000
1.1111 0.5556 0.0000
1.1111 0.6667 0.0000
1.1111 0.7778 0.0000
1.1111 0.8889 0.0000
1.1111 1.0000 0.0000
1.3333 0.0000 0.0000
1.3333 0.1111 0.0000
1.3333 0.2222 0.0000
1.3333 0.3333 0.0000
1.3333 0.4444 0.0000
1.3333 0.5556 0.0000
1.3333 0.6667 0.0000
1.3333 0.7778 0.0000
1.3333 0.8889 0.0000
1.3333 1.0000 0.0000
1.5556 0.0000 0.0000
1.5556 0.1111 0.0000
1.5556 0.2222 0.0000
1.5556 0.3333 0.0000
1.5556 0.4444 0.0000
1.5556 0.5556 0.0000
1.5556 0.6667 0.0000
1.5556 0.7778 0.0000
1.5556 0.8889 0.0000
1.5556 1.0000 0.0000
1.7778 0.0000 0.0000
1.7778 0.1111 0.0000
1.7778 0.2222 0.0000
1.7778 0.3333 0.0000
1.7778 0.4444 0.0000
1.7778 0.5556 0.0000
1.7778 0.6667 0.0000
1.7778 0.7778 0.0000
1.7778 0.8889 0.0000
1.7778 1.0000 0.0000
2.0000 0.0000 0.0000
2.0000 0.1111 0.0000
2.0000 0.2222 0.0000
2.0000 0.3333 0.0000
2.0000 0.4444 0.0000
2.0000 0.5556 0.0000
2.0000 0.6667 0.0000
2.0000 0.7778 0.0000
2.0000 0.8889 0.0000
2.0000 1.0000 0.0000
0.1111 0.0556 0.0000
0.1111 0.1667 0.0000
0.1111 0.2778 0.0000
0.1111 0.3889 0.0000
0.1111 0.5000 0.0000
0.1111 0.6111 0.0000
0.1111 0.7222 0.0000
0.1111 0.8333 0.0000
0.1111 0.9444 0.0000
0.3333 0.0556 0.0000
0.3333 0.1667 0.0000
0.3333 0.2778 0.0000
0.3333 0.3889 0.0000
0.3333 0.5000 0.0000
0.3333 0.6111 0.0000
0.3333 0.7222 0.0000
0.3333 0.8333 0.0000
0.3333 0.9444 0.0000
0.5556 0.0556 0.0000
0.5556 0.1667 0.0000
0.5556 0.2778 0.0000
0.5556 0.3889 0.0000
0.5556 0.5000 0.0000
0.5556 0.6111 0.0000
0.5556 0.7222 0.0000
0.5556 0.8333 0.0000
0.5556 0.9444 0.0000
0.7778 0.0556 0.0000
0.7778 0.1667 0.0000
0.7778 0.2778 0.0000
0.7778 0.3889 0.0000
0.7778 0.5000 0.0000
0.7778 0.6111 0.0000
0.7778 0.7222 0.0000
0.7778 0.8333 0.0000
0.7778 0.9444 0.0000
1.0000 0.0556 0.0000
1.0000 0.1667 0.0000
1.0000 0.2778 0.0000
1.0000 0.3889 0.0000
1.0000 0.5000 0.0000
1.0000 0.6111 0.0000
1.0000 0.7222 0.0000
1.0000 0.8333 0.0000
1.0000 0.9444 0.0000
1.2222 0.0556 0.0000
1.2222 0.1667 0.0000
1.2222 0.2778 0.0000
1.2222 0.3889 0.0000
1.2222 0.5000 0.0000
1.2222 0.6111 0.0000
1.2222 0.7222 0.0000
1.2222 0.8333 0.0000
1.2222 0.9444 0.0000
1.4444 0.0556 0.0000
1.4444 0.1667 0.0000
1.4444 0.2778 0.0000
1.4444 0.3889 0.0000
1.4444 0.5000 0.0000
1.4444 0.6111 0.0000
1.4444 0.7222 0.0000
1.4444 0.8333 0.0000
1.4444 0.9444 0.0000
1.6667 0.0556 0.0000
1.6667 0.1667 0.0000
1.6667 0.2778 0.0000
1.6667 0.3889 0.0000
1.6667 0.5000 0.0000
1.6667 0.6111 0.0000
1.6667 0.7222 0.0000
1.6667 0.8333 0.0000
1.6667 0.9444 0.0000
1.8889 0.0556 0.0000
1.8889 0.1667 0.0000
1.8889 0.2778 0.0000
1.8889 0.3889 0.0000
1.8889 0.5000 0.0000
1.8889 0.6111 0.0000
1.8889 0.7222 0.0000
1.8889 0.8333 0.0000
1.8889 0.9444 0.0000
0.0000 0.0556 0.0000
0.0556 0.0278 0.0000
0.0556 0.0833 0.0000
0.0000 0.1667 0.0000
0.0556 0.1389 0.0000
0.0556 0.1944 0.0000
0.0000 0.2778 0.0000
0.0556 0.2500 0.0000
0.0556 0.3056 0.0000
0.0000 0.3889 0.0000
0.0556 0.3611 0.0000
0.0556 0.4167 0.0000
0.0000 0.5000 0.0000
0.0556 0.4722 0.0000
0.0556 0.5278 0.0000
0.0000 0.6111 0.0000
0.0556 0.5833 0.0000
0.0556 0.6389 0.0000
0.0000 0.7222 0.0000
0.0556 0.6944 0.0000
0.0556 0.7500 0.0000
0.0000 0.8333 0.0000
0.0556 0.8056 0.0000
0.0556 0.8611 0.0000
0.0000 0.9444 0.0000
0.0556 0.9167 0.0000
0.0556 0.9722 0.0000
0.2222 0.0556 0.0000
0.2778 0.0278 0.0000
0.2778 0.0833 0.0000
0.2222 0.1667 0.0000
0.2778 0.1389 0.0000
0.2778 0.1944 0.0000
0.2222 0.2778 0.0000
0.2778 0.2500 0.0000
0.2778 0.3056 0.0000
0.2222 0.3889 0.0000
0.2778 0.3611 0.0000
0.2778 0.4167 0.0000
0.2222 0.5000 0.0000
0.2778 0.4722 0.0000
0.2778 0.5278 0.0000
0.2222 0.6111 0.0000
0.2778 0.5833 0.0000
0.2778 0.6389 0.0000
0.2222 0.7222 0.0000
0.2778 0.6944 0.0000
0.2778 0.7500 0.0000
0.2222 0.8333 0.0000
0.2778 0.8056 0.0000
0.2778 0.8611 0.0000
0.2222 0.9444 0.0000
0.2778 0.9167 0.0000
0.2778 0.9722 0.0000
0.4444 0.0556 0.0000
0.5000 0.0278 0.0000
0.5000 0.0833 0.0000
0.4444 0.1667 0.0000
0.5000 0.1389 0.0000
0.5000 0.1944 0.0000
0.4444 0.2778 0.0000
0.5000 0.2500 0.0000
0.5000 0.3056 0.0000
0.4444 0.3889 0.0000
0.5000 0.3611 0.0000
0.5000 0.4167 0.0000
0.4444 0.5000 0.0000
0.5000 0.4722 0.0000
0.5000 0.5278 0.0000
0.4444 0.6111 0.0000
0.5000 0.5833 0.0000
0.5000 0.6389 0.0000
0.4444 0.7222 0.0000
0.5000 0.6944 0.0000
0.5000 0.7500 0.0000
0.4444 0.8333 0.0000
0.5000 0.8056 0.0000
0.5000 0.8611 0.0000
0.4444 0.9444 0.0000
0.5000 0.9167 0.0000
0.5000 0.9722 0.0000
0.6667 0.0556 0.0000
0.7222 0.0278 0.0000
0.7222 0.0833 0.0000
0.6667 0.1667 0.0000
0.7222 0.1389 0.0000
0.7222 0.1944 0.0000
0.6667 0.2778 0.0000
0.7222 0.2500 0.0000
0.7222 0.3056 0.0000
0.6667 0.3889 0.0000
0.7222 0.3611 0.0000
0.7222 0.4167 0.0000
0.6667 0.5000 0.0000
0.7222 0.4722 0.0000
0.7222 0.5278 0.0000
0.6667 0.6111 0.0000
0.7222 0.5833 0.0000
0.7222 0.6389 0.0000
0.6667 0.7222 0.0000
0.7222 0.6944 0.0000
0.7222 0.7500 0.0000
0.6667 0.8333 0.0000
0.7222 0.8056 0.0000
0.7222 0.8611 0.0000
0.6667 0.9444 0.0000
0.7222 0.9167 0.0000
0.7222 0.9722 0.0000
0.8889 0.0556 0.0000
0.9444 0.0278 0.0000
0.9444 0.0833 0.0000
0.8889 0.1667 0.0000
0.9444 0.1389 0.0000
0.9444 0.1944 0.0000
0.8889 0.2778 0.0000
0.9444 0.2500 0.0000
0.9444 0.3056 0.0000
0.8889 0.3889 0.0000
0.9444 0.3611 0.0000
0.9444 0.4167 0.0000
0.8889 0.5000 0.0000
0.9444 0.4722 0.0000
0.9444 0.5278 0.0000
0.8889 0.6111 0.0000
0.9444 0.5833 0.0000
0.9444 0.6389 0.0000
0.8889 0.7222 0.0000
0.9444 0.6944 0.0000
0.9444 0.7500 0.0000
0.8889 0.8333 0.0000
0.9444 0.8056 0.0000
0.9444 0.8611 0.0000
0.8889 0.9444 0.0000
0.9444 0.9167 0.0000
0.9444 0.9722 0.0000
1.1111 0.0556 0.0000
1.1667 0.0278 0.0000
1.1667 0.0833 0.0000
1.1111 0.1667 0.0000
1.1667 0.1389 0.0000
1.1667 0.1944 0.0000
1.1111 0.2778 0.0000
1.1667 0.2500 0.0000
1.1667 0.3056 0.0000
1.1111 0.3889 0.0000
1.1667 0.3611 0.0000
1.1667 0.4167 0.0000
1.1111 0.5000 0.0000
1.1667 0.4722 0.0000
1.1667 0.5278 0.0000
1.1111 0.6111 0.0000
1.1667 0.5833 0.0000
1.1667 0.6389 0.0000
1.1111 0.7222 0.0000
1.1667 0.6944 0.0000
1.1667 0.7500 0.0000
1.1111 0.8333 0.0000
1.1667 0.8056 0.0000
1.1667 0.8611 0.0000
1.1111 0.9444 0.0000
1.1667 0.9167 0.0000
1.1667 0.9722 0.0000
1.3333 0.0556 0.0000
1.3889 0.0278 0.0000
1.3889 0.0833 0.0000
1.3333 0.1667 0.0000
1.3889 0.1389 0.0000
1.3889 0.1944 0.0000
1.3333 0.2778 0.0000
1.3889 0.2500 0.0000
1.3889 0.3056 0.0000
1.3333 0.3889 0.0000
1.3889 0.3611 0.0000
1.3889 0.4167 0.0000
1.3333 0.5000 0.0000
1.3889 0.4722 0.0000
1.3889 0.5278 0.0000
1.3333 0.6111 0.0000
1.3889 0.5833 0.0000
1.3889 0.6389 0.0000
1.3333 0.7222 0.0000
1.3889 0.6944 0.0000
1.3889 0.7500 0.0000
1.3333 0.8333 0.0000
1.3889 0.8056 0.0000
1.3889 0.8611 0.0000
1.3333 0.9444 0.0000
1.3889 0.9167 0.0000
1.3889 0.9722 0.0000
1.5556 0.0556 0.0000
1.6111 0.0278 0.0000
1.6111 0.0833 0.0000
1.5556 0.1667 0.0000
1.6111 0.1389 0.0000
1.6111 0.1944 0.0000
1.5556 0.2778 0.0000
1.6111 0.2500 0.0000
1.6111 0.3056 0.0000
1.5556 0.3889 0.0000
1.6111 0.3611 0.0000
1.6111 0.4167 0.0000
1.5556 0.5000 0.0000
1.6111 0.4722 0.0000
1.6111 0.5278 0.0000
1.5556 0.6111 0.0000
1.6111 0.5833 0.0000
1.6111 0.6389 0.0000
1.5556 0.7222 0.0000
1.6111 0.6944 0.0000
1.6111 0.7500 0.0000
1.5556 0.8333 0.0000
1.6111 0.8056 0.0000
1.6111 0.8611 0.0000
1.5556 0.9444 0.0000
1.6111 0.9167 0.0000
1.6111 0.9722 0.0000
1.7778 0.0556 0.0000
1.8333 0.0278 0.0000
1.8333 0.0833 0.0000
1.7778 0.1667 0.0000
1.8333 0.1389 0.0000
1.8333 0.1944 0.0000
1.7778 0.2778 0.0000
1.8333 0.2500 0.0000
1.8333 0.3056 0.0000
1.7778 0.3889 0.0000
1.8333 0.3611 0.0000
1.8333 0.4167 0.0000
1.7778 0.5000 0.0000
1.8333 0.4722 0.0000
1.8333 0.5278 0.0000
1.7778 0.6111 0.0000
1.8333 0.5833 0.0000
1.8333 0.6389 0.0000
1.7778 0.7222 0.0000
1.8333 0.6944 0.0000
1.8333 0.7500 0.0000
1.7778 0.8333 0.0000
1.8333 0.8056 0.0000
1.8333 0.8611 0.0000
1.7778 0.9444 0.0000
1.8333 0.9167 0.0000
1.8333 0.9722 0.0000
0.1111 0.1111 0.0000
0.1667 0.0833 0.0000
0.1111 0.2222 0.0000
0.1667 0.1944 0.0000
0.1111 0.3333 0.0000
0.1667 0.3056 0.0000
0.1111 0.4444 0.0000
0.1667 0.4167 0.0000
0.1111 0.5556 0.0000
0.1667 0.5278 0.0000
0.1111 0.6667 0.0000
0.1667 0.6389 0.0000
0.1111 0.7778 0.0000
0.1667 0.7500 0.0000
0.1111 0.8889 0.0000
0.1667 0.8611 0.0000
0.1111 1.0000 0.0000
0.1667 0.9722 0.0000
0.3333 0.1111 0.0000
0.3889 0.0833 0.0000
0.3333 0.2222 0.0000
0.3889 0.1944 0.0000
0.3333 0.3333 0.0000
0.3889 0.3056 0.0000
0.3333 0.4444 0.0000
0.3889 0.4167 0.0000
0.3333 0.5556 0.0000
0.3889 0.5278 0.0000
0.3333 0.6667 0.0000
0.3889 0.6389 0.0000
0.3333 0.7778 0.0000
0.3889 0.7500 0.0000
0.3333 0.8889 0.0000
0.3889 0.8611 0.0000
0.3333 1.0000 0.0000
0.3889 0.9722 0.0000
0.5556 0.1111 0.0000
[...]
         <PointData>
            <DataArray Name="fValues" NumberOfComponents="3" format="ascii" type="Float64">
-3.73828e-22  1.45884e-21        00000 
 6.29685e-23  4.40780e-22        00000 
-1.79201e-21 -2.11441e-21        00000 
 2.94739e-21 -1.00337e-21        00000 
-6.28572e-21  7.02348e-22        00000 
       00000 -2.00673e-21        00000 
-1.69977e-21 -4.05270e-22        00000 
 4.38575e-22  9.39804e-23        00000 
-5.03869e-21  8.81770e-22        00000 
-2.91769e-22        00000        00000 
-9.44079e-07  1.35451e-05        00000 
-2.83449e-06 -1.56168e-05        00000 
-2.47754e-06 -1.30963e-06        00000 
-3.97072e-05 -1.93042e-05        00000 
-1.89635e-05  4.44672e-06        00000 
-2.79964e-05  1.07659e-05        00000 
-2.70343e-05 -5.94556e-08        00000 
-2.48378e-05  2.18651e-05        00000 
-1.23141e-05  3.83701e-06        00000 
-7.52708e-06 -6.61563e-05        00000 
-5.31327e-06  3.79966e-05        00000 
-2.22489e-05  1.66547e-05        00000 
 1.07913e-07 -1.52057e-05        00000 
 4.17484e-06 -2.35540e-05        00000 
-4.48020e-05 -2.88503e-05        00000 
 2.99298e-05  2.20024e-05        00000 
 5.47042e-06  3.52353e-06        00000 
-1.71094e-05 -2.37310e-05        00000 
-1.00214e-05 -6.90003e-06        00000 
-4.12803e-06 -2.89831e-05        00000 
 4.97849e-06  6.84843e-05        00000 
 9.31103e-06  1.38423e-05        00000 
-2.52896e-06 -5.59574e-06        00000 
-1.97323e-05 -1.54286e-05        00000 
-2.35896e-05 -8.99465e-06        00000 
 1.83756e-05  3.07461e-05        00000 
-1.23571e-05  1.15526e-05        00000 
-3.93521e-05 -1.65962e-05        00000 
-1.00376e-05 -7.69728e-06        00000 
-2.08133e-06 -2.66800e-06        00000 
-4.17536e-06  6.42591e-05        00000 
-4.53109e-06  3.04424e-05        00000 
 5.55838e-06 -4.21046e-06        00000 
-1.09311e-05 -5.88161e-07        00000 
-1.88618e-05 -6.96310e-06        00000 
 2.42108e-05  3.19739e-05        00000 
 1.21178e-05  3.61012e-05        00000 
-7.42829e-06 -7.89272e-07        00000 
 1.00927e-05  3.09816e-05        00000 
-2.15112e-06 -5.27208e-05        00000 
 3.53733e-05 -3.30264e-06        00000 
 1.03899e-05 -3.82705e-06        00000 
 1.48252e-06  2.46559e-06        00000 
-1.09103e-05  2.44014e-05        00000 
-8.42373e-06 -1.09303e-05        00000 
 2.32935e-06  3.12706e-06        00000 
 5.10357e-06 -2.69716e-05        00000 
-2.85696e-07 -4.71816e-06        00000 
-1.58854e-05 -1.90975e-05        00000 
-8.20896e-06 -3.27628e-05        00000 
-1.27583e-05 -5.00050e-05        00000 
-2.74878e-06 -1.24388e-05        00000 
 1.70676e-05 -3.82904e-07        00000 
-9.80536e-07  2.47270e-05        00000 
 5.35013e-06  2.53286e-05        00000 
-1.64406e-05  5.73885e-06        00000 
-3.15643e-05 -1.70253e-05        00000 
-1.43109e-05 -4.04765e-05        00000 
 9.15958e-06 -1.55090e-05        00000 
 2.43666e-05 -3.92835e-05        00000 
 5.60170e-06 -2.80621e-05        00000 
 7.27222e-06 -3.40870e-05        00000 
 1.03418e-05 -5.25322e-07        00000 
 4.71889e-06 -3.80436e-07        00000 
-9.67626e-06 -5.13652e-07        00000 
-1.62798e-05 -1.95747e-05        00000 
-2.92190e-05 -1.04423e-05        00000 
 3.17379e-05  1.68548e-06        00000 
 2.13018e-05 -1.34482e-05        00000 
 6.04135e-06 -3.04788e-05        00000 
-2.43519e-05  2.19277e-05        00000 
-4.09972e-05  3.84570e-05        00000 
-2.23716e-05  5.59423e-06        00000 
-2.62692e-05 -2.74432e-07        00000 
-2.85460e-05 -3.38404e-05        00000 
-1.16024e-05 -2.23884e-05        00000 
-3.27215e-06  4.82260e-06        00000 
-2.20305e-06  2.37274e-05        00000 
 3.73827e-06  2.18664e-05        00000 
-2.42303e-05  4.70319e-05        00000 
-2.27736e-05 -4.76144e-06        00000 
 1.36560e-05  1.48545e-05        00000 
 1.60151e-05 -4.04124e-06        00000 
-1.18302e-06  2.99928e-05        00000 
-1.53872e-06  2.62569e-05        00000 
 1.76194e-05  1.38424e-05        00000 
-1.44834e-05  2.50415e-05        00000 
 3.80219e-05  5.75833e-06        00000 
 1.02587e-05  5.47425e-06        00000 
 1.59763e-06 -3.27443e-07        00000 
 1.26460e-05  1.41660e-05        00000 
-1.92516e-05  2.28480e-05        00000 
-1.04429e-05  2.06293e-05        00000 
 1.34729e-06  1.72777e-05        00000 
 1.68928e-05 -5.59116e-06        00000 
 3.49156e-06  7.51482e-06        00000 
 2.40124e-06 -1.16117e-05        00000 
-1.29312e-05 -1.65432e-05        00000 
-6.45001e-06 -5.49090e-06        00000 
 1.32360e-06  6.45267e-07        00000 
-1.81039e-05  1.70884e-05        00000 
 2.84055e-06  2.96504e-05        00000 
-4.77610e-06  2.83335e-05        00000 
 4.34171e-06  2.75708e-05        00000 
 1.17187e-05  4.76158e-06        00000 
 2.47573e-06 -2.77846e-06        00000 
 1.17078e-05  1.66916e-07        00000 
-2.82429e-05  9.44382e-06        00000 
 8.73514e-06  4.50287e-06        00000 
-2.72229e-07  1.83257e-05        00000 
 7.77763e-06  2.01562e-05        00000 
 1.06826e-05  2.38639e-05        00000 
-1.16716e-06  3.56413e-06        00000 
 1.72541e-05  6.44517e-06        00000 
 2.08171e-06  1.82796e-05        00000 
-7.05557e-06  8.92961e-06        00000 
-1.75473e-06 -3.60481e-06        00000 
 9.79770e-06 -2.36456e-05        00000 
-2.90610e-05  6.26851e-06        00000 
-1.54234e-05  1.36465e-05        00000 
-4.44693e-05 -1.10771e-05        00000 
 3.82316e-06  5.77358e-07        00000 
-1.93649e-06  6.36287e-06        00000 
-9.78922e-06  1.11221e-05        00000 
-3.13601e-05 -2.85470e-05        00000 
-3.62201e-05 -1.82775e-05        00000 
-9.60490e-06 -1.93127e-05        00000 
-8.52281e-06 -3.73417e-05        00000 
-6.03134e-06 -2.25781e-05        00000 
-2.44064e-05 -1.33366e-06        00000 
-4.16671e-06 -2.20517e-05        00000 
 1.53085e-06 -2.06971e-05        00000 
 6.24530e-06  6.30571e-06        00000 
-3.19247e-05 -2.01771e-05        00000 
-4.58043e-06  1.20680e-05        00000 
 1.66682e-06  2.89829e-06        00000 
 2.11225e-05  1.18045e-06        00000 
 2.10630e-05 -2.41860e-05        00000 
 1.99585e-05 -8.54799e-06        00000 
-2.62583e-06  1.76855e-06        00000 
-6.09714e-06  7.11923e-06        00000 
 1.11103e-05  1.39223e-05        00000 
 1.83025e-07 -2.26773e-05        00000 
-8.49811e-06 -9.74026e-06        00000 
-7.31080e-06  1.18977e-05        00000 
-1.57905e-05  2.15100e-05        00000 
-1.07839e-05  1.73314e-05        00000 
 3.03485e-05  3.29900e-05        00000 
 5.16624e-06  4.89343e-05        00000 
 5.50850e-06  4.04700e-05        00000 
-5.84415e-06  1.05386e-05        00000 
-3.19894e-05  1.08943e-05        00000 
-4.88802e-06 -1.03966e-05        00000 
-1.99512e-05 -2.81940e-05        00000 
-3.01538e-06 -2.43216e-06        00000 
-8.13082e-06 -4.88707e-06        00000 
-3.10200e-05  7.38103e-06        00000 
-1.69028e-05  6.26416e-06        00000 
-6.78399e-06 -1.75638e-05        00000 
-2.95984e-05  1.29980e-05        00000 
-3.52699e-06  2.38325e-05        00000 
-8.30084e-06  2.45257e-05        00000 
 1.83847e-05  5.40272e-05        00000 
 2.04502e-05  2.96975e-05        00000 
 1.29617e-06  2.25071e-05        00000 
 7.37783e-07  1.10270e-05        00000 
 1.19874e-05 -8.45583e-06        00000 
-3.72401e-07  3.98421e-06        00000 
-9.36057e-06  9.13126e-06        00000 
-2.31647e-06 -1.02104e-05        00000 
-2.10524e-05 -2.69671e-05        00000 
-2.45544e-21 -4.53373e-22        00000 
-2.44158e-05 -2.32008e-05        00000 
-2.69552e-05 -1.23123e-05        00000 
-1.77787e-22 -2.11921e-21        00000 
 8.38787e-06  3.20493e-07        00000 
-1.15802e-06  1.45154e-05        00000 
-1.90582e-21  2.62051e-21        00000 
-1.53948e-05 -5.62020e-06        00000 
 1.63328e-06  1.08913e-05        00000 
-5.19098e-21 -1.06997e-21        00000 
 3.21709e-07 -1.96351e-05        00000 
-2.37448e-05  1.80621e-05        00000 
-9.52912e-22 -3.33519e-21        00000 
-3.34382e-06 -7.55692e-06        00000 
-1.24993e-05 -1.64971e-05        00000 
-1.62253e-21  1.97337e-21        00000 
-1.46614e-05 -2.11594e-05        00000 
-2.13276e-05  5.36540e-06        00000 
 7.14684e-22 -1.07203e-21        00000 
-4.63192e-06  2.42254e-06        00000 
 4.86346e-06  4.95013e-06        00000 
-3.81165e-21  4.76456e-22        00000 
 1.26230e-06 -1.57134e-06        00000 
-1.42525e-05  3.98283e-06        00000 
 1.35156e-21  5.86141e-22        00000 
-1.25277e-05 -5.40090e-06        00000 
-3.00812e-06 -4.82378e-06        00000 
-2.61666e-09 -4.18394e-06        00000 
-1.90994e-05 -3.77632e-05        00000 
-6.20268e-06  1.01542e-05        00000 
-2.46127e-05 -2.03457e-05        00000 
-1.06262e-05 -9.16849e-06        00000 
-9.56300e-06  1.05639e-06        00000 
-4.23066e-07  8.20775e-06        00000 
 4.83557e-06  1.39527e-05        00000 
 9.32672e-06  1.77410e-05        00000 
-1.81813e-05  3.96552e-05        00000 
 1.96636e-05  1.94005e-05        00000 
-3.05630e-06  2.97176e-05        00000 
-1.76346e-05  2.09861e-05        00000 
 3.34882e-06  3.45806e-06        00000 
-2.00203e-05  1.67998e-05        00000 
-3.79274e-05  1.86729e-06        00000 
 3.21923e-06  2.74061e-05        00000 
-2.27201e-06 -1.17069e-05        00000 
-2.02810e-05  5.60243e-06        00000 
-5.89868e-06  1.24757e-05        00000 
-7.69557e-06 -5.81935e-06        00000 
-1.38799e-05 -4.34255e-06        00000 
-1.07307e-05  1.86882e-05        00000 
 5.12916e-06  7.81412e-06        00000 
-3.41002e-05  1.93174e-05        00000 
 1.63687e-05 -2.25852e-05        00000 
-1.21346e-06  7.46181e-05        00000 
-1.56363e-05  4.11926e-06        00000 
-2.00959e-05 -3.97377e-06        00000 
-2.04933e-05  3.27894e-06        00000 
-4.50322e-05 -7.06361e-06        00000 
-1.60774e-06  2.12289e-05        00000 
 1.09288e-05  5.86851e-06        00000 
-1.10894e-05  9.37798e-06        00000 
 2.45608e-06  7.51083e-06        00000 
-1.61161e-05 -3.74745e-05        00000 
-3.43815e-05  1.17708e-05        00000 
 6.73349e-07  1.87898e-06        00000 
-1.76061e-05 -2.21343e-05        00000 
-1.07123e-05 -4.51439e-06        00000 
 2.35301e-05  2.36966e-05        00000 
 2.55934e-05 -1.16107e-05        00000 
-5.74918e-07 -1.00308e-05        00000 
 2.02172e-05 -1.05383e-06        00000 
-7.50290e-06 -1.33388e-06        00000 
-3.02394e-06 -1.93357e-05        00000 
-1.31426e-05 -5.06143e-06        00000 
-1.55897e-05  5.40019e-06        00000 
-8.28460e-06  2.50034e-06        00000 
 2.21745e-05  2.37035e-05        00000 
 1.37474e-05  2.87501e-06        00000 
 8.74402e-06  1.19847e-05        00000 
-5.92197e-06  3.91746e-06        00000 
-2.09918e-05  7.35930e-06        00000 
-1.46145e-05 -3.97612e-05        00000 
 7.28803e-06 -9.34663e-05        00000 
-1.33793e-05  1.24201e-05        00000 
-2.15340e-05 -1.77405e-05        00000 
 4.71261e-06  4.63047e-06        00000 
 2.21388e-05  1.28165e-05        00000 
 2.11393e-05  2.25963e-05        00000 
 4.26746e-06 -7.72035e-06        00000 
 3.72284e-06 -1.11356e-05        00000 
-3.60703e-05  6.88944e-06        00000 
 5.08511e-07 -9.18319e-06        00000 
-8.81138e-06 -2.75009e-05        00000 
 1.01159e-06 -1.24890e-05        00000 
 1.39020e-05  3.48651e-05        00000 
 1.25869e-05  2.40224e-05        00000 
 8.99232e-06 -4.60920e-06        00000 
 1.49034e-05 -6.61706e-06        00000 
-7.84232e-06  1.50700e-05        00000 
-3.30655e-05  7.65712e-06        00000 
-1.25339e-05  2.83084e-05        00000 
-3.51297e-05  2.76936e-06        00000 
-1.71785e-05 -2.81908e-06        00000 
 1.49926e-05  2.53537e-05        00000 
 1.73121e-05 -3.88671e-06        00000 
-2.22198e-05  6.05838e-06        00000 
-3.08974e-08  2.01265e-05        00000 
-5.73231e-06 -2.09755e-05        00000 
 1.41808e-05 -2.18586e-05        00000 
-4.40255e-06 -2.38341e-05        00000 
-1.53060e-06  5.13806e-06        00000 
 1.01291e-05 -1.99776e-05        00000 
-6.88465e-06  3.59380e-06        00000 
-8.84790e-06  6.66088e-06        00000 
 1.95696e-05 -2.40471e-06        00000 
-2.33506e-05 -5.58707e-07        00000 
-2.75820e-05 -2.92295e-05        00000 
-9.43592e-06 -1.07802e-05        00000 
-1.81445e-05  2.24493e-05        00000 
-1.50851e-05  2.01228e-07        00000 
-5.09854e-06 -1.05181e-05        00000 
-2.15302e-05  1.46633e-05        00000 
-2.77176e-05  1.90765e-05        00000 
 7.99944e-07 -2.44904e-05        00000 
-1.94351e-05 -8.70189e-06        00000 
-4.41587e-06  3.11080e-05        00000 
-7.18027e-06 -3.75222e-06        00000 
-4.62591e-07 -1.32585e-05        00000 
-6.16465e-06  8.39213e-06        00000 
-3.31330e-06 -3.03750e-05        00000 
 1.11505e-05  1.85675e-05        00000 
 2.04256e-05  1.57119e-05        00000 
-1.30836e-05 -8.21645e-07        00000 
-1.53901e-05 -4.08472e-05        00000 
-2.99655e-05  5.57657e-05        00000 
 1.37030e-06 -6.55306e-06        00000 
 1.03704e-05  2.66897e-06        00000 
-8.50237e-06 -1.66677e-05        00000 
-2.81569e-05 -1.35831e-05        00000 
 4.09176e-05  6.36345e-06        00000 
 2.74498e-05  2.50488e-05        00000 
-1.34954e-05 -9.28576e-06        00000 
-4.02933e-06 -1.45649e-05        00000 
-2.68125e-05  3.06764e-05        00000 
 1.44616e-05  7.07101e-06        00000 
 3.17494e-06  2.68684e-05        00000 
 1.88706e-06  8.47493e-06        00000 
-1.22214e-06 -9.16996e-06        00000 
 1.87980e-05  3.76260e-05        00000 
 4.13779e-06  1.91869e-05        00000 
 3.05953e-06 -1.55134e-05        00000 
 1.92512e-06 -1.08093e-05        00000 
-9.78137e-07  8.02508e-06        00000 
 9.70969e-07 -2.29647e-05        00000 
 1.46522e-05 -3.51603e-05        00000 
 4.18431e-05  1.76533e-05        00000 
-3.03365e-05 -3.71066e-06        00000 
 3.02366e-05 -2.33773e-05        00000 
 5.90299e-06  1.93665e-05        00000 
 9.38417e-06  3.10528e-05        00000 
 2.14556e-05  3.30232e-06        00000 
 3.66755e-05  1.46721e-05        00000 
 1.72457e-05  2.13617e-05        00000 
 3.01129e-05  7.06780e-05        00000 
 1.67542e-05 -7.44963e-06        00000 
 2.24531e-05  1.23656e-05        00000 
 5.62649e-06  1.24306e-05        00000 
 1.00431e-05  7.14323e-06        00000 
 9.84759e-06 -8.57679e-06        00000 
 5.36163e-06  1.70070e-05        00000 
 1.85559e-05  1.02610e-05        00000 
 1.88810e-05 -2.75991e-05        00000 
-8.73625e-06 -1.34832e-05        00000 
-1.21825e-06  1.00762e-05        00000 
-1.11244e-06 -2.43643e-05        00000 
-1.56567e-06 -8.20932e-06        00000 
-6.98655e-07  6.75723e-07        00000 
-3.60316e-06  1.02915e-05        00000 
-2.48378e-05 -1.89579e-05        00000 
-2.48279e-05 -9.10522e-06        00000 
-1.11747e-05  8.30312e-06        00000 
 1.03321e-06 -2.24233e-05        00000 
 1.50871e-05 -5.30522e-06        00000 
 2.47837e-05  3.20120e-05        00000 
 2.63685e-05  4.58830e-06        00000 
 1.39954e-05  5.07942e-06        00000 
 3.85832e-05  2.44651e-05        00000 
 2.40485e-06 -2.80394e-05        00000 
 1.99515e-05  5.93446e-05        00000 
 1.32900e-05  2.44850e-05        00000 
 2.37980e-05 -1.17382e-05        00000 
 5.66949e-06  1.04417e-05        00000 
 8.97006e-06  2.56604e-05        00000 
 8.93497e-06 -2.04774e-05        00000 
 1.47162e-05  5.80853e-06        00000 
-3.25895e-06 -9.90564e-06        00000 
 7.84174e-06 -5.55174e-06        00000 
 4.82247e-06  1.87575e-05        00000 
-8.06480e-06 -1.82686e-07        00000 
-2.03814e-05  6.06279e-07        00000 
 2.95156e-06  1.56253e-06        00000 
-2.66043e-05  2.24627e-05        00000 
 2.89264e-05  2.74463e-05        00000 
 4.74720e-05  2.00392e-05        00000 
 1.79809e-06  2.76634e-05        00000 
 3.38457e-05 -1.36665e-06        00000 
 3.29746e-05 -7.88185e-07        00000 
-1.14063e-05 -2.50390e-06        00000 
 4.79810e-05  1.36443e-05        00000 
 1.88802e-05 -5.21710e-06        00000 
 3.35857e-05  8.63806e-06        00000 
 9.25472e-06 -1.51270e-05        00000 
 2.03144e-05  1.30992e-05        00000 
 3.93977e-06  2.39801e-05        00000 
 2.16003e-05 -3.07475e-05        00000 
 1.09343e-05  5.00201e-05        00000 
-8.10200e-06 -1.62194e-05        00000 
-2.59416e-05  5.13938e-05        00000 
 8.73494e-06 -1.52710e-05        00000 
-1.90382e-05 -1.35191e-05        00000 
-2.48597e-05  2.08138e-05        00000 
-1.17566e-05  7.18780e-06        00000 
-1.56288e-05 -2.77955e-05        00000 
-3.32915e-06  7.26975e-06        00000 
 5.46613e-06 -6.37272e-07        00000 
-1.83115e-05 -3.70380e-06        00000 
-5.57072e-06 -7.33463e-07        00000 
-2.32610e-05  6.99117e-06        00000 
-2.20121e-05  8.61880e-06        00000 
 6.53188e-06 -1.20213e-06        00000 
 1.57976e-06 -1.22135e-05        00000 
 4.88781e-06  1.20781e-05        00000 
 6.83601e-06 -5.40046e-06        00000 
-2.28813e-06  3.97938e-06        00000 
-4.20379e-06  1.32189e-05        00000 
-1.00497e-05  1.63620e-05        00000 
-2.44593e-06  4.79917e-06        00000 
 1.45228e-05 -1.25260e-05        00000 
 7.71259e-06  2.47713e-05        00000 
-4.17648e-06  3.24116e-06        00000 
 6.68220e-06 -1.27110e-05        00000 
-1.49183e-05  2.97968e-05        00000 
-2.69208e-05 -5.15210e-05        00000 
-3.59454e-05 -1.37911e-07        00000 
-1.06908e-06  5.76389e-07        00000 
-2.88473e-05 -1.87777e-05        00000 
-2.19124e-05 -1.37862e-05        00000 
-9.09401e-06 -9.42922e-06        00000 
 5.90999e-06  2.31617e-06        00000 
 9.26400e-06 -1.71345e-05        00000 
-1.12773e-06  3.41254e-08        00000 
-1.85184e-07 -1.21260e-05        00000 
 1.02489e-05  7.40785e-06        00000 
-1.21962e-05  1.56205e-05        00000 
 3.27432e-07 -1.06244e-05        00000 
 8.61153e-06 -4.93713e-06        00000 
-2.42157e-06 -1.30553e-05        00000 
-1.48991e-05  3.51133e-06        00000 
-8.92465e-06  1.40305e-07        00000 
 4.93519e-06 -1.52383e-05        00000 
-2.13590e-05  3.23229e-05        00000 
-1.79134e-05 -1.40413e-05        00000 
-9.66986e-06  1.62686e-05        00000 
-7.43328e-06 -4.86716e-06        00000 
 1.05923e-05 -1.30035e-05        00000 
 1.05459e-06 -1.38586e-05        00000 
 1.99256e-06 -2.67729e-05        00000 
 2.82033e-07 -1.33417e-05        00000 
 2.58725e-06 -2.77793e-05        00000 
 2.19933e-05  6.72626e-06        00000 
-4.89549e-06 -6.63426e-06        00000 
-7.99419e-06  1.03407e-06        00000 
-1.58576e-05 -3.96985e-05        00000 
 6.19676e-06 -3.08297e-05        00000 
-1.70532e-05 -2.33311e-05        00000 
-8.78077e-07 -3.89085e-06        00000 
 1.38370e-06  3.43083e-06        00000 
 5.56099e-07 -5.16041e-05        00000 
-1.82067e-05  3.82485e-05        00000 
-1.82137e-05  1.06501e-05        00000 
-1.92187e-05 -3.40627e-05        00000 
-1.04098e-05 -6.16828e-06        00000 
-2.86895e-06 -1.66391e-05        00000 
-8.94894e-06  4.07418e-06        00000 
 1.62566e-06 -1.16665e-05        00000 
-8.67538e-06  2.06751e-06        00000 
-1.61391e-05 -3.19714e-05        00000 
-7.25184e-06 -1.95782e-05        00000 
-1.70313e-05 -2.52326e-05        00000 
-3.70078e-06  3.86015e-06        00000 
 1.87737e-06  5.25838e-06        00000 
-1.51617e-05 -8.34800e-07        00000 
-3.36677e-05 -2.24421e-05        00000 
-7.09270e-06  1.86148e-06        00000 
 1.42131e-06 -2.05330e-05        00000 
-7.82475e-06  1.55352e-05        00000 
 1.44410e-06 -3.28410e-05        00000 
-1.13991e-05 -3.02932e-06        00000 
-2.18273e-05  1.05705e-05        00000 
-3.43584e-05 -2.44911e-05        00000 
-3.16083e-05  1.34434e-06        00000 
-1.86590e-05  3.13685e-05        00000 
-4.87674e-06  1.12827e-05        00000 
-3.30286e-06  2.11143e-05        00000 
-9.57793e-06 -1.22261e-05        00000 
 2.19202e-07  3.70636e-05        00000 
-2.06638e-05  1.97441e-05        00000 
 8.73428e-06  4.91018e-05        00000 
 2.39613e-05  5.63652e-06        00000 
-6.89373e-06  1.51576e-05        00000 
-9.68691e-06 -8.38649e-06        00000 
 8.87934e-06  1.35883e-05        00000 
 2.01469e-05  2.52625e-05        00000 
 2.11574e-06 -2.90277e-05        00000 
 4.41251e-05  4.39896e-05        00000 
 6.21907e-06  1.24999e-05        00000 