<?xml version="1.0" encoding="utf-8"?>
<VTKFile byte_order="LittleEndian" type="UnstructuredGrid" version="0.1">
   <UnstructuredGrid>
      <Piece NumberOfCells="1296" NumberOfPoints="685">
         <Points>
            <DataArray Name="Points" NumberOfComponents="3" format="ascii" type="Float32">
0.0000 0.0000 0.0000
0.0000 0.1111 0.0000
0.0000 0.2222 0.0000
0.0000 0.3333 0.0000
0.0000 0.4444 0.0000
0.0000 0.5556 0.0000
0.0000 0.6667 0.0000
0.0000 0.7778 0.0000
0.0000 0.8889 0.0000
0.0000 1.0000 0.0000
0.2222 0.0000 0.0000
0.2222 0.1111 0.0000
0.2222 0.2222 0.0000
0.2222 0.3333 0.0000
0.2222 0.4444 0.0000
0.2222 0.5556 0.0000
0.2222 0.6667 0.0000
0.2222 0.7778 0.0000
0.2222 0.8889 0.0000
0.2222 1.0000 0.0000
0.4444 0.0000 0.0000
0.4444 0.1111 0.0000
0.4444 0.2222 0.0000
0.4444 0.3333 0.0000
0.4444 0.4444 0.0000
0.4444 0.5556 0.0000
0.4444 0.6667 0.0000
0.4444 0.7778 0.0000
0.4444 0.8889 0.0000
0.4444 1.0000 0.0000
0.6667 0.0000 0.0000
0.6667 0.1111 0.0000
0.6667 0.2222 0.0000
0.6667 0.3333 0.0000
0.6667 0.4444 0.0000
0.6667 0.5556 0.0000
0.6667 0.6667 0.0000
0.6667 0.7778 0.0000
0.6667 0.8889 0.0000
0.6667 1.0000 0.0000
0.8889 0.0000 0.0000
0.8889 0.1111 0.0000
0.8889 0.2222 0.0000
0.8889 0.3333 0.0000
0.8889 0.4444 0.0000
0.8889 0.5556 0.0000
0.8889 0.6667 0.0000
0.8889 0.7778 0.0000
0.8889 0.8889 0.0000
0.8889 1.0000 0.0000
1.1111 0.0000 0.0000
1.1111 0.1111 0.0000
1.1111 0.2222 0.0000
1.1111 0.3333 0.0000
1.1111 0.4444 0.0000
1.1111 0.5556 0.0000
1.1111 0.6667 0.0000
1.1111 0.7778 0.0000
1.1111 0.8889 0.0000
1.1111 1.0000 0.0000
1.3333 0.0000 0.0000
1.3333 0.1111 0.0000
1.3333 0.2222 0.0000
1.3333 0.3333 0.0000
1.3333 0.4444 0.0000
1.3333 0.5556 0.0000
1.3333 0.6667 0.0000
1.3333 0.7778 0.0000
1.3333 0.8889 0.0000
1.3333 1.0000 0.0000
1.5556 0.0000 0.0000
1.5556 0.1111 0.0000
1.5556 0.2222 0.0000
1.5556 0.3333 0.0000
1.5556 0.4444 0.0000
1.5556 0.5556 0.0000
1.5556 0.6667 0.0000
1.5556 0.7778 0.0000
1.5556 0.8889 0.0000
1.5556 1.0000 0.0000
1.7778 0.0000 0.0000
1.7778 0.1111 0.0000
1.7778 0.2222 0.0000
1.7778 0.3333 0.0000
1.7778 0.4444 0.0000
1.7778 0.5556 0.0000
1.7778 0.6667 0.0000
1.7778 0.7778 0.0000
1.7778 0.8889 0.0000
1.7778 1.0000 0.0000
2.0000 0.0000 0.0000
2.0000 0.1111 0.0000
2.0000 0.2222 0.0000
2.0000 0.3333 0.0000
2.0000 0.4444 0.0000
2.0000 0.5556 0.0000
2.0000 0.6667 0.0000
2.0000 0.7778 0.0000
2.0000 0.8889 0.0000
2.0000 1.0000 0.0000
0.1111 0.0556 0.0000
0.1111 0.1667 0.0000
0.1111 0.2778 0.0000
0.1111 0.3889 0.0000
0.1111 0.5000 0.0000
0.1111 0.6111 0.0000
0.1111 0.7222 0.0000
0.1111 0.8333 0.0000
0.1111 0.9444 0.0000
0.3333 0.0556 0.0000
0.3333 0.1667 0.0000
0.3333 0.2778 0.0000
0.3333 0.3889 0.0000
0.3333 0.5000 0.0000
0.3333 0.6111 0.0000
0.3333 0.7222 0.0000
0.3333 0.8333 0.0000
0.3333 0.9444 0.0000
0.5556 0.0556 0.0000
0.5556 0.1667 0.0000
0.5556 0.2778 0.0000
0.5556 0.3889 0.0000
0.5556 0.5000 0.0000
0.5556 0.6111 0.0000
0.5556 0.7222 0.0000
0.5556 0.8333 0.0000
0.5556 0.9444 0.0000
0.7778 0.0556 0.0000
0.7778 0.1667 0.0000
0.7778 0.2778 0.0000
0.7778 0.3889 0.0000
0.7778 0.5000 0.0000
0.7778 0.6111 0.0000
0.7778 0.7222 0.0000
0.7778 0.8333 0.0000
0.7778 0.9444 0.0000
1.0000 0.0556 0.0000
1.0000 0.1667 0.0000
1.0000 0.2778 0.0000
1.0000 0.3889 0.0000
1.0000 0.5000 0.0000
1.0000 0.6111 0.0000
1.0000 0.7222 0.0000
1.0000 0.8333 0.0000
1.0000 0.9444 0.0000
1.2222 0.0556 0.0000
1.2222 0.1667 0.0000
1.2222 0.2778 0.0000
1.2222 0.3889 0.0000
1.2222 0.5000 0.0000
1.2222 0.6111 0.0000
1.2222 0.7222 0.0000
1.2222 0.8333 0.0000
1.2222 0.9444 0.0000
1.4444 0.0556 0.0000
1.4444 0.1667 0.0000
1.4444 0.2778 0.0000
1.4444 0.3889 0.0000
1.4444 0.5000 0.0000
1.4444 0.6111 0.0000
1.4444 0.7222 0.0000
1.4444 0.8333 0.0000
1.4444 0.9444 0.0000
1.6667 0.0556 0.0000
1.6667 0.1667 0.0000
1.6667 0.2778 0.0000
1.6667 0.3889 0.0000
1.6667 0.5000 0.0000
1.6667 0.6111 0.0000
1.6667 0.7222 0.0000
1.6667 0.8333 0.0000
1.6667 0.9444 0.0000
1.8889 0.0556 0.0000
1.8889 0.1667 0.0000
1.8889 0.2778 0.0000
1.8889 0.3889 0.0000
1.8889 0.5000 0.0000
1.8889 0.6111 0.0000
1.8889 0.7222 0.0000
1.8889 0.8333 0.0000
1.8889 0.9444 0.0000
0.0000 0.0556 0.0000
0.0556 0.0278 0.0000
0.0556 0.0833 0.0000
0.0000 0.1667 0.0000
0.0556 0.1389 0.0000
0.0556 0.1944 0.0000
0.0000 0.2778 0.0000
0.0556 0.2500 0.0000
0.0556 0.3056 0.0000
0.0000 0.3889 0.0000
0.0556 0.3611 0.0000
0.0556 0.4167 0.0000
0.0000 0.5000 0.0000
0.0556 0.4722 0.0000
0.0556 0.5278 0.0000
0.0000 0.6111 0.0000
0.0556 0.5833 0.0000
0.0556 0.6389 0.0000
0.0000 0.7222 0.0000
0.0556 0.6944 0.0000
0.0556 0.7500 0.0000
0.0000 0.8333 0.0000
0.0556 0.8056 0.0000
0.0556 0.8611 0.0000
0.0000 0.9444 0.0000
0.0556 0.9167 0.0000
0.0556 0.9722 0.0000
0.2222 0.0556 0.0000
0.2778 0.0278 0.0000
0.2778 0.0833 0.0000
0.2222 0.1667 0.0000
0.2778 0.1389 0.0000
0.2778 0.1944 0.0000
0.2222 0.2778 0.0000
0.2778 0.2500 0.0000
0.2778 0.3056 0.0000
0.2222 0.3889 0.0000
0.2778 0.3611 0.0000
0.2778 0.4167 0.0000
0.2222 0.5000 0.0000
0.2778 0.4722 0.0000
0.2778 0.5278 0.0000
0.2222 0.6111 0.0000
0.2778 0.5833 0.0000
0.2778 0.6389 0.0000
0.2222 0.7222 0.0000
0.2778 0.6944 0.0000
0.2778 0.7500 0.0000
0.2222 0.8333 0.0000
0.2778 0.8056 0.0000
0.2778 0.8611 0.0000
0.2222 0.9444 0.0000
0.2778 0.9167 0.0000
0.2778 0.9722 0.0000
0.4444 0.0556 0.0000
0.5000 0.0278 0.0000
0.5000 0.0833 0.0000
0.4444 0.1667 0.0000
0.5000 0.1389 0.0000
0.5000 0.1944 0.0000
0.4444 0.2778 0.0000
0.5000 0.2500 0.0000
0.5000 0.3056 0.0000
0.4444 0.3889 0.0000
0.5000 0.3611 0.0000
0.5000 0.4167 0.0000
0.4444 0.5000 0.0000
0.5000 0.4722 0.0000
0.5000 0.5278 0.0000
0.4444 0.6111 0.0000
0.5000 0.5833 0.0000
0.5000 0.6389 0.0000
0.4444 0.7222 0.0000
0.5000 0.6944 0.0000
0.5000 0.7500 0.0000
0.4444 0.8333 0.0000
0.5000 0.8056 0.0000
0.5000 0.8611 0.0000
0.4444 0.9444 0.0000
0.5000 0.9167 0.0000
0.5000 0.9722 0.0000
0.6667 0.0556 0.0000
0.7222 0.0278 0.0000
0.7222 0.0833 0.0000
0.6667 0.1667 0.0000
0.7222 0.1389 0.0000
0.7222 0.1944 0.0000
0.6667 0.2778 0.0000
0.7222 0.2500 0.0000
0.7222 0.3056 0.0000
0.6667 0.3889 0.0000
0.7222 0.3611 0.0000
0.7222 0.4167 0.0000
0.6667 0.5000 0.0000
0.7222 0.4722 0.0000
0.7222 0.5278 0.0000
0.6667 0.6111 0.0000
0.7222 0.5833 0.0000
0.7222 0.6389 0.0000
0.6667 0.7222 0.0000
0.7222 0.6944 0.0000
0.7222 0.7500 0.0000
0.6667 0.8333 0.0000
0.7222 0.8056 0.0000
0.7222 0.8611 0.0000
0.6667 0.9444 0.0000
0.7222 0.9167 0.0000
0.7222 0.9722 0.0000
0.8889 0.0556 0.0000
0.9444 0.0278 0.0000
0.9444 0.0833 0.0000
0.8889 0.1667 0.0000
0.9444 0.1389 0.0000
0.9444 0.1944 0.0000
0.8889 0.2778 0.0000
0.9444 0.2500 0.0000
0.9444 0.3056 0.0000
0.8889 0.3889 0.0000
0.9444 0.3611 0.0000
0.9444 0.4167 0.0000
0.8889 0.5000 0.0000
0.9444 0.4722 0.0000
0.9444 0.5278 0.0000
0.8889 0.6111 0.0000
0.9444 0.5833 0.0000
0.9444 0.6389 0.0000
0.8889 0.7222 0.0000
0.9444 0.6944 0.0000
0.9444 0.7500 0.0000
0.8889 0.8333 0.0000
0.9444 0.8056 0.0000
0.9444 0.8611 0.0000
0.8889 0.9444 0.0000
0.9444 0.9167 0.0000
0.9444 0.9722 0.0000
1.1111 0.0556 0.0000
1.1667 0.0278 0.0000
1.1667 0.0833 0.0000
1.1111 0.1667 0.0000
1.1667 0.1389 0.0000
1.1667 0.1944 0.0000
1.1111 0.2778 0.0000
1.1667 0.2500 0.0000
1.1667 0.3056 0.0000
1.1111 0.3889 0.0000
1.1667 0.3611 0.0000
1.1667 0.4167 0.0000
1.1111 0.5000 0.0000
1.1667 0.4722 0.0000
1.1667 0.5278 0.0000
1.1111 0.6111 0.0000
1.1667 0.5833 0.0000
1.1667 0.6389 0.0000
1.1111 0.7222 0.0000
1.1667 0.6944 0.0000
1.1667 0.7500 0.0000
1.1111 0.8333 0.0000
1.1667 0.8056 0.0000
1.1667 0.8611 0.0000
1.1111 0.9444 0.0000
1.1667 0.9167 0.0000
1.1667 0.9722 0.0000
1.3333 0.0556 0.0000
1.3889 0.0278 0.0000
1.3889 0.0833 0.0000
1.3333 0.1667 0.0000
1.3889 0.1389 0.0000
1.3889 0.1944 0.0000
1.3333 0.2778 0.0000
1.3889 0.2500 0.0000
1.3889 0.3056 0.0000
1.3333 0.3889 0.0000
1.3889 0.3611 0.0000
1.3889 0.4167 0.0000
1.3333 0.5000 0.0000
1.3889 0.4722 0.0000
1.3889 0.5278 0.0000
1.3333 0.6111 0.0000
1.3889 0.5833 0.0000
1.3889 0.6389 0.0000
1.3333 0.7222 0.0000
1.3889 0.6944 0.0000
1.3889 0.7500 0.0000
1.3333 0.8333 0.0000
1.3889 0.8056 0.0000
1.3889 0.8611 0.0000
1.3333 0.9444 0.0000
1.3889 0.9167 0.0000
1.3889 0.9722 0.0000
1.5556 0.0556 0.0000
1.6111 0.0278 0.0000
1.6111 0.0833 0.0000
1.5556 0.1667 0.0000
1.6111 0.1389 0.0000
1.6111 0.1944 0.0000
1.5556 0.2778 0.0000
1.6111 0.2500 0.0000
1.6111 0.3056 0.0000
1.5556 0.3889 0.0000
1.6111 0.3611 0.0000
1.6111 0.4167 0.0000
1.5556 0.5000 0.0000
1.6111 0.4722 0.0000
1.6111 0.5278 0.0000
1.5556 0.6111 0.0000
1.6111 0.5833 0.0000
1.6111 0.6389 0.0000
1.5556 0.7222 0.0000
1.6111 0.6944 0.0000
1.6111 0.7500 0.0000
1.5556 0.8333 0.0000
1.6111 0.8056 0.0000
1.6111 0.8611 0.0000
1.5556 0.9444 0.0000
1.6111 0.9167 0.0000
1.6111 0.9722 0.0000
1.7778 0.0556 0.0000
1.8333 0.0278 0.0000
1.8333 0.0833 0.0000
1.7778 0.1667 0.0000
1.8333 0.1389 0.0000
1.8333 0.1944 0.0000
1.7778 0.2778 0.0000
1.8333 0.2500 0.0000
1.8333 0.3056 0.0000
1.7778 0.3889 0.0000
1.8333 0.3611 0.0000
1.8333 0.4167 0.0000
1.7778 0.5000 0.0000
1.8333 0.4722 0.0000
1.8333 0.5278 0.0000
1.7778 0.6111 0.0000
1.8333 0.5833 0.0000
1.8333 0.6389 0.0000
1.7778 0.7222 0.0000
1.8333 0.6944 0.0000
1.8333 0.7500 0.0000
1.7778 0.8333 0.0000
1.8333 0.8056 0.0000
1.8333 0.8611 0.0000
1.7778 0.9444 0.0000
1.8333 0.9167 0.0000
1.8333 0.9722 0.0000
0.1111 0.1111 0.0000
0.1667 0.0833 0.0000
0.1111 0.2222 0.0000
0.1667 0.1944 0.0000
0.1111 0.3333 0.0000
0.1667 0.3056 0.0000
0.1111 0.4444 0.0000
0.1667 0.4167 0.0000
0.1111 0.5556 0.0000
0.1667 0.5278 0.0000
0.1111 0.6667 0.0000
0.1667 0.6389 0.0000
0.1111 0.7778 0.0000
0.1667 0.7500 0.0000
0.1111 0.8889 0.0000
0.1667 0.8611 0.0000
0.1111 1.0000 0.0000
0.1667 0.9722 0.0000
0.3333 0.1111 0.0000
0.3889 0.0833 0.0000
0.3333 0.2222 0.0000
0.3889 0.1944 0.0000
0.3333 0.3333 0.0000
0.3889 0.3056 0.0000
0.3333 0.4444 0.0000
0.3889 0.4167 0.0000
0.3333 0.5556 0.0000
0.3889 0.5278 0.0000
0.3333 0.6667 0.0000
0.3889 0.6389 0.0000
0.3333 0.7778 0.0000
0.3889 0.7500 0.0000
0.3333 0.8889 0.0000
0.3889 0.8611 0.0000
0.3333 1.0000 0.0000
0.3889 0.9722 0.0000
0.5556 0.1111 0.0000
[...]
         <PointData>
            <DataArray Name="fValues" NumberOfComponents="3" format="ascii" type="Float64">
-1.19508e-18 -3.58525e-18        00000 
-2.92577e-18 -2.25679e-19        00000 
-8.88425e-19  8.35291e-19        00000 
 1.83415e-18 -3.33920e-18        00000 
-1.29644e-18  3.33614e-18        00000 
 1.15588e-18  6.42154e-19        00000 
-1.36989e-19 -1.80302e-18        00000 
 1.92472e-19  7.69887e-19        00000 
 2.57981e-19  2.57981e-19        00000 
 1.19508e-18 -8.96313e-19        00000 
-1.16734e-02  4.44998e-02        00000 
 2.52320e-03  1.70060e-02        00000 
 1.80408e-02 -1.10375e-02        00000 
-4.11367e-03 -6.74706e-03        00000 
 1.63659e-03 -2.09849e-02        00000 
-1.75253e-03  1.80077e-02        00000 
 6.04523e-03  5.80973e-03        00000 
 1.54503e-02  1.05739e-02        00000 
 5.79925e-03 -8.77471e-03        00000 
 2.10984e-03 -7.00435e-04        00000 
-7.50518e-03  2.49435e-02        00000 
 2.66265e-02  1.58590e-02        00000 
 4.24299e-03 -2.16267e-04        00000 
-2.34654e-02 -1.27900e-02        00000 
 4.51782e-03 -7.54284e-03        00000 
 8.03004e-03 -6.52369e-03        00000 
 9.09865e-03  1.37607e-02        00000 
-3.94749e-04 -9.41764e-03        00000 
-5.45016e-03  8.54816e-03        00000 
 1.51921e-02  1.62108e-02        00000 
 3.94346e-03 -3.84724e-03        00000 
 6.67541e-04  4.93267e-03        00000 
 1.12741e-02  1.52662e-02        00000 
-2.38770e-02 -7.80115e-03        00000 
 1.92291e-03 -1.32164e-02        00000 
 1.39654e-02  3.69387e-03        00000 
 7.55667e-03  1.91269e-02        00000 
-5.70687e-03 -7.14019e-03        00000 
-5.46016e-03 -1.52514e-02        00000 
-9.39052e-04  1.39956e-02        00000 
-1.55501e-02 -1.86524e-02        00000 
 1.17883e-02  3.58470e-02        00000 
-5.12485e-03  9.34938e-03        00000 
-5.91453e-03  4.20876e-03        00000 
-1.18298e-03  1.19098e-02        00000 
-2.33923e-02 -3.40877e-03        00000 
-1.91666e-02  2.37176e-02        00000 
-1.80587e-02  3.23396e-04        00000 
-3.21897e-02 -1.27134e-02        00000 
-1.10999e-02 -4.86248e-03        00000 
 8.21241e-03 -3.32501e-02        00000 
-1.19767e-02 -7.93479e-03        00000 
-5.98952e-03  1.78868e-03        00000 
-6.68337e-03 -1.67531e-03        00000 
-8.88860e-04  3.75449e-03        00000 
-6.71006e-03  6.54843e-03        00000 
-1.72125e-02  6.47186e-03        00000 
-8.53647e-03  2.30371e-02        00000 
-2.04258e-02 -8.13786e-03        00000 
-2.55507e-02  3.38240e-02        00000 
-1.89328e-03  1.17094e-02        00000 
-1.69005e-02  6.68127e-03        00000 
 2.04888e-03  7.85748e-03        00000 
 1.42486e-02  1.53386e-02        00000 
 1.01138e-03  1.31246e-02        00000 
-7.01670e-04 -2.56063e-03        00000 
-2.72136e-03  5.36574e-03        00000 
-1.43553e-02  3.12820e-03        00000 
-1.06188e-02  1.00248e-02        00000 
 8.06011e-03  5.91110e-02        00000 
-1.11509e-02 -1.95418e-02        00000 
 4.72084e-03 -2.48728e-03        00000 
 8.32550e-03 -1.22056e-02        00000 
-1.37566e-03 -5.37718e-03        00000 
-3.31129e-03  1.32956e-02        00000 
-1.14468e-02 -4.38282e-03        00000 
-2.09389e-02 -1.07165e-03        00000 
-1.66523e-02  1.61121e-02        00000 
-6.63265e-03  4.79042e-03        00000 
-2.36845e-02 -6.44385e-03        00000 
 6.95193e-03 -4.24266e-02        00000 
-5.22058e-03 -4.62261e-03        00000 
-8.64453e-04 -3.18945e-03        00000 
 7.60059e-03  4.60500e-04        00000 
-1.91960e-03 -6.28872e-03        00000 
 2.09659e-03 -7.21571e-03        00000 
-1.03260e-02 -2.80373e-04        00000 
-5.31394e-03  1.08126e-02        00000 
-2.15083e-02  3.28516e-02        00000 
-7.26400e-03  1.72590e-02        00000 
-7.75341e-03  9.45541e-04        00000 
 1.18852e-02  4.65457e-03        00000 
 1.00234e-02 -3.54851e-03        00000 
 5.47221e-03 -9.98831e-04        00000 
 1.73578e-02 -8.36701e-03        00000 
-1.22514e-02 -5.67034e-03        00000 
-8.33856e-03  1.05018e-02        00000 
-1.50487e-02  5.75420e-03        00000 
-3.52323e-03 -9.38882e-03        00000 
-2.46180e-02  9.67903e-04        00000 
-3.70714e-03 -5.91748e-03        00000 
-7.23408e-04 -7.79098e-03        00000 
 1.22176e-02 -3.96315e-03        00000 
 2.05312e-03  9.77065e-03        00000 
-1.28119e-02 -2.09485e-03        00000 
-6.62945e-03  7.48047e-03        00000 
-8.48047e-03  8.91752e-03        00000 
-9.65574e-03  1.62132e-02        00000 
 1.01644e-02  3.19048e-03        00000 
-9.85626e-04 -1.87379e-02        00000 
 7.63274e-03  1.50191e-02        00000 
 1.09998e-02 -1.02475e-02        00000 
 9.17430e-03  1.29518e-02        00000 
 8.60251e-03  5.86666e-03        00000 
-6.71274e-03  1.27985e-02        00000 
 2.35339e-03  2.11647e-03        00000 
-1.51091e-03 -8.64299e-03        00000 
 4.65052e-03  3.46787e-03        00000 
 1.05890e-02  1.45438e-03        00000 
 4.77527e-03 -6.48460e-03        00000 
-6.06711e-03  2.95940e-04        00000 
 3.75794e-03 -7.86494e-03        00000 
-6.70621e-03 -3.12486e-03        00000 
 5.24460e-03 -6.47447e-03        00000 
-1.90309e-03 -2.98185e-02        00000 
 7.11818e-03 -6.22743e-03        00000 
 3.96419e-03 -1.52495e-02        00000 
-4.46819e-03 -3.82779e-03        00000 
 2.49717e-02  1.54249e-02        00000 
 5.45343e-03  1.15094e-02        00000 
 2.93651e-02  1.51637e-02        00000 
 2.96662e-03  5.25311e-03        00000 
 5.91100e-03  2.39252e-02        00000 
 1.25008e-02  9.92622e-03        00000 
-8.46574e-03  1.55109e-03        00000 
-2.24504e-02  2.36040e-03        00000 
-2.49448e-03  2.02439e-02        00000 
 2.62028e-02  1.61283e-02        00000 
-5.88497e-03  2.30321e-03        00000 
 4.35570e-04 -1.16490e-02        00000 
-1.20794e-03  1.16924e-02        00000 
 1.36784e-02  3.36038e-02        00000 
-3.94044e-03  1.30555e-02        00000 
-1.79051e-02  1.33705e-02        00000 
-1.08925e-02  5.85885e-03        00000 
-7.83199e-03  6.60322e-03        00000 
-4.44108e-03 -1.04489e-02        00000 
-3.42453e-03 -1.32721e-03        00000 
-1.37802e-04  7.39448e-03        00000 
 3.54983e-03  3.86507e-02        00000 
-7.16993e-03  1.50960e-02        00000 
-1.85585e-02  1.90571e-02        00000 
-5.81623e-03 -8.58056e-04        00000 
-1.05636e-02 -2.44733e-02        00000 
 4.89725e-03 -9.67886e-03        00000 
-2.33590e-02 -9.45209e-03        00000 
-5.77669e-03  4.40394e-03        00000 
-3.63141e-03  5.43478e-03        00000 
-7.41813e-03  2.29742e-02        00000 
-2.09250e-02  2.24082e-02        00000 
-4.50915e-03  1.11348e-02        00000 
-1.27823e-02  6.98355e-03        00000 
-1.18592e-04  2.64476e-03        00000 
 8.49616e-03  7.49752e-03        00000 
 1.21506e-02 -4.46943e-03        00000 
 2.43469e-03  1.61296e-02        00000 
-3.85966e-03  6.07686e-03        00000 
 1.01460e-02  7.30981e-03        00000 
 1.20891e-03  8.71831e-03        00000 
 9.64777e-03  1.94253e-02        00000 
 9.73853e-03  2.52976e-03        00000 
-2.09736e-03  3.35548e-02        00000 
-2.57968e-03  9.60397e-03        00000 
 9.54684e-03  1.32844e-02        00000 
 6.28564e-03  1.28962e-02        00000 
 9.55539e-03  1.72857e-02        00000 
-8.67220e-03  1.79457e-02        00000 
-2.39316e-02  5.69095e-03        00000 
-2.18423e-02  2.71754e-02        00000 
-1.61764e-03  2.37493e-02        00000 
 6.94895e-03  1.02807e-02        00000 
 5.31958e-19 -4.68553e-19        00000 
 6.11416e-03 -2.54582e-02        00000 
 1.38854e-02 -5.59841e-03        00000 
-8.27711e-19 -1.11500e-18        00000 
 1.86587e-02 -4.49863e-03        00000 
 6.62233e-04  7.75813e-03        00000 
 1.95156e-18 -2.92735e-18        00000 
 1.38941e-03  4.28115e-03        00000 
 1.41547e-02 -1.82990e-02        00000 
 1.70643e-18  2.61527e-18        00000 
 8.29701e-05  4.39561e-03        00000 
 1.26337e-02  1.53747e-02        00000 
-9.75782e-19 -7.31836e-19        00000 
 2.01857e-02  4.09592e-03        00000 
 5.19506e-03  1.27422e-03        00000 
-9.52950e-19 -6.75279e-19        00000 
-3.34990e-03 -2.39423e-03        00000 
-9.13040e-03 -8.25921e-03        00000 
-1.46367e-18 -9.75782e-19        00000 
 5.14385e-03  1.36133e-02        00000 
 3.80459e-03 -4.27872e-03        00000 
       00000  4.87891e-19        00000 
 6.23542e-03  4.24407e-04        00000 
 3.79609e-03  8.53564e-03        00000 
 7.17473e-19 -4.29095e-19        00000 
-4.06215e-03 -4.95254e-04        00000 
 8.57109e-03 -1.83680e-03        00000 
-9.28210e-03 -1.29380e-02        00000 
 1.14882e-02 -6.08326e-02        00000 
 9.09907e-04  1.54281e-02        00000 
 1.01744e-02 -1.09395e-02        00000 
 7.09015e-03 -1.35394e-04        00000 
-1.32124e-02 -3.85392e-03        00000 
 1.25680e-02 -1.38066e-02        00000 
 1.28872e-02  4.13338e-03        00000 
 2.07198e-02 -2.73844e-03        00000 
 1.54622e-02 -1.20397e-03        00000 
 1.98751e-02 -1.51374e-02        00000 
 1.11131e-02 -1.59768e-02        00000 
 2.91133e-03 -3.42844e-03        00000 
 5.64595e-03 -6.26754e-03        00000 
 2.10263e-02  5.34097e-03        00000 
 4.70095e-04  1.35577e-02        00000 
 1.36037e-02 -8.55045e-03        00000 
 3.79934e-03 -8.67011e-03        00000 
 1.05323e-02 -5.61677e-03        00000 
 5.84821e-03 -7.38564e-03        00000 
 9.85695e-03  1.84935e-02        00000 
 3.57314e-03  1.21527e-03        00000 
 1.73190e-02  1.11715e-02        00000 
 4.50656e-03 -1.18076e-02        00000 
 1.58224e-03  1.18798e-02        00000 
 1.65218e-02 -1.16507e-03        00000 
 1.47314e-02 -7.66145e-04        00000 
 7.97191e-03  1.92272e-04        00000 
 1.65199e-02 -4.79867e-03        00000 
 2.29331e-02  6.61377e-03        00000 
 2.29752e-02 -1.04996e-02        00000 
-2.70894e-04 -1.83079e-03        00000 
-5.33894e-03 -5.54042e-04        00000 
-1.06143e-02 -3.10462e-03        00000 
 7.01015e-03  1.48260e-02        00000 
 1.23673e-02  8.33740e-03        00000 
 1.83668e-02 -7.12753e-03        00000 
 1.39260e-02 -1.71446e-02        00000 
-2.83122e-03 -1.35060e-02        00000 
-8.82512e-03 -8.57169e-03        00000 
-3.02713e-02 -1.24949e-02        00000 
-1.33437e-03 -1.66354e-03        00000 
-3.04743e-03  1.13395e-03        00000 
-6.82467e-03 -9.35704e-03        00000 
-1.90711e-03  1.62944e-03        00000 
-6.40003e-03 -1.25459e-02        00000 
 2.03421e-03 -2.36316e-02        00000 
-1.53702e-02 -1.47584e-02        00000 
-1.02766e-02 -2.70104e-03        00000 
 5.07296e-03  1.17369e-02        00000 
 7.79528e-03  7.99256e-03        00000 
-1.08682e-02  3.22582e-02        00000 
 2.66185e-02  1.92441e-02        00000 
 1.53265e-02 -2.25639e-02        00000 
-1.09051e-03  6.86724e-03        00000 
 6.13773e-03  1.82818e-02        00000 
 9.89892e-03 -2.06179e-02        00000 
 4.56299e-03 -7.65763e-03        00000 
 1.04646e-02  8.82997e-03        00000 
 1.58607e-02  1.50841e-02        00000 
-7.71451e-03 -2.49620e-03        00000 
 3.51323e-03  1.32143e-02        00000 
-1.05398e-03  8.98622e-03        00000 
 1.27781e-02  1.60369e-02        00000 
 1.65826e-02  7.01103e-03        00000 
-1.92338e-04  1.14409e-03        00000 
-7.37590e-03  7.59497e-04        00000 
 3.33211e-03  1.84346e-02        00000 
-1.87540e-03  1.16543e-02        00000 
-1.81738e-02  2.00975e-02        00000 
 6.24993e-03  5.74867e-04        00000 
-8.78149e-03  7.59469e-03        00000 
-1.20769e-02  2.61424e-03        00000 
 7.49397e-03  1.44337e-02        00000 
-6.48653e-03  4.53121e-03        00000 
-1.45584e-02  1.09440e-02        00000 
 5.38022e-04  1.38527e-02        00000 
-4.94813e-03 -3.47894e-03        00000 
-1.49870e-02  5.62414e-03        00000 
 2.21441e-02  2.54540e-03        00000 
 2.49606e-02 -3.00847e-03        00000 
-2.68924e-02 -1.61305e-02        00000 
 3.64228e-03 -6.71844e-03        00000 
-1.57480e-02  1.94998e-02        00000 
 1.63368e-02  7.29234e-03        00000 
 6.43308e-03  7.11700e-03        00000 
-4.00535e-03  2.15022e-02        00000 
 1.46729e-02  1.59145e-02        00000 
 1.22002e-02  9.15519e-03        00000 
 1.27842e-02 -3.25779e-03        00000 
 1.47657e-02  1.78681e-02        00000 
 2.04148e-02 -8.14553e-03        00000 
-4.23439e-03 -8.33744e-03        00000 
-1.82549e-02  6.14655e-03        00000 
 4.30618e-03 -5.63344e-03        00000 
-5.16940e-03  1.09243e-03        00000 
-5.64218e-03  4.03872e-03        00000 
-2.04159e-03 -8.12148e-03        00000 
 3.10112e-02  4.48639e-03        00000 
-9.00672e-03  4.21241e-03        00000 
 1.58639e-02 -4.03389e-03        00000 
 1.03634e-02  1.36292e-02        00000 
-2.38297e-02  8.27391e-03        00000 
-1.26461e-03 -1.05292e-02        00000 
-7.59099e-04 -1.46356e-02        00000 
 1.96334e-03  1.19564e-02        00000 
 8.83270e-03  7.16512e-04        00000 
-1.69135e-03  1.41344e-02        00000 
-3.03428e-03  4.89279e-03        00000 
 1.05040e-02  4.85255e-03        00000 
-7.00702e-03 -1.40493e-02        00000 
 2.42050e-03 -5.86706e-03        00000 
-4.38185e-03 -2.40196e-03        00000 
-5.95714e-03 -3.77759e-03        00000 
 1.16038e-02  1.57979e-02        00000 
 2.49515e-03  5.66055e-03        00000 
 9.21182e-03 -5.03415e-03        00000 
 3.34283e-03  2.48546e-02        00000 
 3.42794e-03 -3.72838e-03        00000 
-7.90524e-03 -1.94239e-02        00000 
-1.63466e-02  1.97397e-03        00000 
 2.54787e-04 -4.67049e-03        00000 
 5.01246e-03  7.71617e-03        00000 
-4.53833e-03  2.19067e-02        00000 
 4.30685e-03 -4.17612e-03        00000 
 5.51407e-03  3.61401e-03        00000 
-2.35014e-03  2.34495e-02        00000 
-1.13602e-02 -1.35390e-03        00000 
-1.00531e-02  3.14473e-03        00000 
-7.23936e-03  1.27064e-02        00000 
-1.16257e-02 -9.31461e-03        00000 
-3.45637e-03 -2.63837e-03        00000 
-1.71384e-02  1.75388e-02        00000 
-6.31275e-04  2.31213e-02        00000 
-7.11512e-03 -3.80167e-02        00000 
-7.55369e-03  1.61939e-02        00000 
 4.13683e-03  2.83771e-02        00000 
 6.05721e-03  6.91698e-03        00000 
-6.50520e-03  1.11132e-02        00000 
-3.55589e-03 -7.56348e-03        00000 
 4.14864e-03  1.45103e-02        00000 
-1.35661e-02  7.41072e-03        00000 
-6.50152e-04 -8.61320e-03        00000 
 6.36148e-04  2.47373e-02        00000 
-2.29926e-02 -3.02898e-02        00000 
 3.70085e-03  4.39229e-03        00000 
 5.18490e-03 -2.78243e-03        00000 
-1.32714e-02 -8.24809e-03        00000 
 1.11387e-02  2.41800e-02        00000 
 5.21620e-03 -9.67771e-03        00000 
-1.64151e-02 -1.01201e-02        00000 
-5.22518e-03  2.20756e-02        00000 
 1.22351e-02  1.16070e-02        00000 
-2.46717e-02 -2.47718e-04        00000 
-4.08234e-03  2.64836e-02        00000 
-2.56918e-02  2.31479e-03        00000 
-3.10434e-02  2.35557e-03        00000 
-1.47254e-02 -3.85967e-03        00000 
 1.66629e-03  1.81641e-02        00000 
-1.00960e-02 -1.13297e-02        00000 
 5.49054e-03  1.29076e-02        00000 
-9.20804e-03 -3.40625e-02        00000 
 2.08530e-02  1.20329e-02        00000 
 7.20455e-03  2.62832e-02        00000 
-1.38429e-02 -9.98624e-03        00000 
 2.10617e-02  5.11505e-03        00000 
-3.49881e-03  1.78172e-02        00000 
-3.60372e-03  3.13139e-03        00000 
 1.75832e-02  1.62717e-02        00000 
-1.70514e-02 -4.71775e-03        00000 
-3.76103e-03  1.17145e-02        00000 
 3.79329e-03  7.06334e-03        00000 
 9.08471e-03  1.36446e-02        00000 
-1.57021e-02  1.34336e-02        00000 
-9.32174e-03  3.93267e-04        00000 
-8.52809e-05  8.71102e-03        00000 
-5.55284e-03  4.63292e-03        00000 
-1.73531e-02 -3.35898e-03        00000 
 9.58296e-03  1.14132e-02        00000 
 8.47965e-03 -2.06418e-04        00000 
 8.91969e-03  2.45428e-02        00000 
 5.04019e-03  2.19538e-02        00000 
 1.19677e-02  9.68154e-04        00000 
-2.04778e-02 -1.52456e-02        00000 
-8.53116e-03 -2.63357e-03        00000 
-1.09953e-02  1.60597e-02        00000 
-2.92879e-02 -3.40930e-03        00000 
-4.95880e-03 -1.32841e-02        00000 
-2.13902e-04  1.44538e-02        00000 
 9.67641e-04  1.01050e-02        00000 
 6.91032e-03  6.32273e-02        00000 
 2.41362e-02 -3.39127e-02        00000 
-1.30734e-02 -6.81613e-03        00000 
 1.22921e-02  5.68100e-03        00000 
 6.91072e-03 -1.75454e-02        00000 
-1.63862e-02 -1.26809e-03        00000 
 1.39792e-03  1.40897e-02        00000 
 9.01983e-03 -3.81040e-03        00000 
-1.82607e-03  2.71421e-03        00000 
-6.07048e-03 -5.66454e-03        00000 
 2.01625e-03  1.25944e-02        00000 
 2.21998e-03  6.38801e-03        00000 
-7.16290e-03  3.72141e-03        00000 
 8.89626e-03 -1.20151e-04        00000 
 2.08500e-03  4.89969e-03        00000 
-1.23771e-03 -2.67099e-03        00000 
 1.32076e-02 -6.22695e-03        00000 
 1.61463e-02  1.08781e-02        00000 
-3.13400e-03 -3.06017e-03        00000 
 2.28226e-02  5.43354e-03        00000 
-2.39515e-03  1.75362e-02        00000 
-4.23356e-03 -4.95651e-04        00000 
 2.91430e-02  8.76007e-03        00000 
-6.16441e-03 -2.06463e-03        00000 
-1.88338e-02  6.58822e-03        00000 
-1.29357e-02 -2.05634e-02        00000 
-1.27921e-02  8.62519e-04        00000 
-6.87701e-03  2.33832e-04        00000 
 7.05007e-03 -8.27364e-03        00000 
 1.00007e-02 -9.14246e-03        00000 
 9.84798e-03  1.15253e-02        00000 
 7.96995e-03 -4.29238e-03        00000 
-3.14887e-04  7.21764e-03        00000 
-2.23565e-04 -1.88700e-03        00000 
 3.91085e-03 -1.94169e-03        00000 
 4.55177e-03  2.87792e-03        00000 
 8.53994e-03  1.74568e-02        00000 
 5.40511e-03 -9.67475e-04        00000 
-4.89203e-04  6.48559e-03        00000 
-8.97519e-03 -1.13934e-03        00000 
 4.14723e-04  2.26795e-03        00000 
 6.41025e-03  8.36919e-03        00000 
 1.72101e-02 -1.07521e-02        00000 
 7.57795e-03  1.10039e-02        00000 
-5.06357e-03  6.46609e-03        00000 
 2.33956e-02  5.50436e-03        00000 
-6.39151e-03  4.48818e-03        00000 
 1.66579e-02 -1.29622e-02        00000 
 6.55344e-03  2.41847e-02        00000 
 1.46598e-02  2.26126e-03        00000 
 8.11157e-03  2.50931e-02        00000 
 2.22115e-02 -5.28007e-03        00000 
-8.31751e-04  1.08508e-02        00000 
 5.15002e-03  5.28981e-03        00000 
 6.81597e-04  6.77165e-03        00000 
-1.88383e-03 -9.67226e-04        00000 
 1.59574e-02  1.03298e-02        00000 
 3.28092e-03  5.91070e-03        00000 
-7.89725e-03 -1.69053e-02        00000 
-3.68686e-03 -9.53742e-03        00000 
 2.29447e-03  4.59237e-03        00000 
 1.93339e-03 -5.49674e-03        00000 
 8.00254e-03  1.71892e-02        00000 
 2.85393e-03 -1.04930e-02        00000 
 8.67775e-03  5.42488e-03        00000 
-1.44484e-02  9.10386e-03        00000 
-2.48610e-02  1.91359e-02        00000 
 8.27039e-04  2.71123e-03        00000 
-1.06864e-02 -3.25323e-03        00000 
 9.91836e-03 -3.63462e-03        00000 
 1.19457e-02  9.61583e-03        00000 
 1.15651e-02  8.82088e-03        00000 
 2.08651e-03  4.03138e-03        00000 
 1.10377e-02  8.86001e-03        00000 
 4.72961e-03 -5.09126e-03        00000 
-1.96218e-03 -5.37731e-03        00000 
 7.65699e-03  1.09600e-02        00000 
-7.24644e-03 -1.16230e-02        00000 
 3.09389e-02  1.07087e-02        00000 
 2.77708e-03 -4.42766e-03        00000 
-4.34676e-03  1.03644e-02        00000 
 1.54139e-02 -2.47282e-02        00000 
 1.26515e-02  2.52476e-04        00000 
-1.00920e-02  1.43869e-02        00000 
 2.74780e-03  1.13946e-02        00000 
 2.74858e-03  1.48500e-02        00000 
 4.33409e-03 -1.01893e-03        00000 
 9.20082e-03 -7.05351e-04        00000 
 1.25930e-02  4.19575e-03        00000 
 1.03048e-02  7.13806e-03        00000 
 3.19431e-03  1.12548e-02        00000 
-1.01912e-02  5.07593e-03        00000 
-2.54166e-03 -2.00158e-02        00000 
-1.36677e-02  1.35142e-02        00000 
-1.94276e-02  4.37095e-03        00000 
-5.71249e-03 -1.29550e-02        00000 
 6.40544e-03 -2.05220e-02        00000 
-8.74435e-03  7.95364e-03        00000 
-1.41974e-02  1.25769e-02        00000 