<?xml version="1.0" encoding="utf-8"?>
<VTKFile byte_order="LittleEndian" type="UnstructuredGrid" version="0.1">
   <UnstructuredGrid>
      <Piece NumberOfCells="1296" NumberOfPoints="685">
         <Points>
            <DataArray Name="Points" NumberOfComponents="3" format="ascii" type="Float32">
0.0000 0.0000 0.0000
0.0000 0.1111 0.0000
0.0000 0.2222 0.0000
0.0000 0.3333 0.0000
0.0000 0.4444 0.0000
0.0000 0.5556 0.0000
0.0000 0.6667 0.0000
0.0000 0.7778 0.0000
0.0000 0.8889 0.0000
0.0000 1.0000 0.0000
0.2222 0.0000 0.0000
0.2222 0.1111 0.0000
0.2222 0.2222 0.0000
0.2222 0.3333 0.0000
0.2222 0.4444 0.0000
0.2222 0.5556 0.0000
0.2222 0.6667 0.0000
0.2222 0.7778 0.0000
0.2222 0.8889 0.0000
0.2222 1.0000 0.0000
0.4444 0.0000 0.0000
0.4444 0.1111 0.0000
0.4444 0.2222 0.0000
0.4444 0.3333 0.0000
0.4444 0.4444 0.0000
0.4444 0.5556 0.0000
0.4444 0.6667 0.0000
0.4444 0.7778 0.0000
0.4444 0.8889 0.0000
0.4444 1.0000 0.0000
0.6667 0.0000 0.0000
0.6667 0.1111 0.0000
0.6667 0.2222 0.0000
0.6667 0.3333 0.0000
0.6667 0.4444 0.0000
0.6667 0.5556 0.0000
0.6667 0.6667 0.0000
0.6667 0.7778 0.0000
0.6667 0.8889 0.0000
0.6667 1.0000 0.0000
0.8889 0.0000 0.0000
0.8889 0.1111 0.0000
0.8889 0.2222 0.0000
0.8889 0.3333 0.0000
0.8889 0.4444 0.0000
0.8889 0.5556 0.0000
0.8889 0.6667 0.0000
0.8889 0.7778 0.0000
0.8889 0.8889 0.0000
0.8889 1.0000 0.0000
1.1111 0.0000 0.0000
1.1111 0.1111 0.0000
1.1111 0.2222 0.0000
1.1111 0.3333 0.0000
1.1111 0.4444 0.0000
1.1111 0.5556 0.0000
1.1111 0.6667 0.0000
1.1111 0.7778 0.0000
1.1111 0.8889 0.0000
1.1111 1.0000 0.0000
1.3333 0.0000 0.0000
1.3333 0.1111 0.0000
1.3333 0.2222 0.0000
1.3333 0.3333 0.0000
1.3333 0.4444 0.0000
1.3333 0.5556 0.0000
1.3333 0.6667 0.0000
1.3333 0.7778 0.0000
1.3333 0.8889 0.0000
1.3333 1.0000 0.0000
1.5556 0.0000 0.0000
1.5556 0.1111 0.0000
1.5556 0.2222 0.0000
1.5556 0.3333 0.0000
1.5556 0.4444 0.0000
1.5556 0.5556 0.0000
1.5556 0.6667 0.0000
1.5556 0.7778 0.0000
1.5556 0.8889 0.0000
1.5556 1.0000 0.0000
1.7778 0.0000 0.0000
1.7778 0.1111 0.0000
1.7778 0.2222 0.0000
1.7778 0.3333 0.0000
1.7778 0.4444 0.0000
1.7778 0.5556 0.0000
1.7778 0.6667 0.0000
1.7778 0.7778 0.0000
1.7778 0.8889 0.0000
1.7778 1.0000 0.0000
2.0000 0.0000 0.0000
2.0000 0.1111 0.0000
2.0000 0.2222 0.0000
2.0000 0.3333 0.0000
2.0000 0.4444 0.0000
2.0000 0.5556 0.0000
2.0000 0.6667 0.0000
2.0000 0.7778 0.0000
2.0000 0.8889 0.0000
2.0000 1.0000 0.0000
0.1111 0.0556 0.0000
0.1111 0.1667 0.0000
0.1111 0.2778 0.0000
0.1111 0.3889 0.0000
0.1111 0.5000 0.0000
0.1111 0.6111 0.0000
0.1111 0.7222 0.0000
0.1111 0.8333 0.0000
0.1111 0.9444 0.0000
0.3333 0.0556 0.0000
0.3333 0.1667 0.0000
0.3333 0.2778 0.0000
0.3333 0.3889 0.0000
0.3333 0.5000 0.0000
0.3333 0.6111 0.0000
0.3333 0.7222 0.0000
0.3333 0.8333 0.0000
0.3333 0.9444 0.0000
0.5556 0.0556 0.0000
0.5556 0.1667 0.0000
0.5556 0.2778 0.0000
0.5556 0.3889 0.0000
0.5556 0.5000 0.0000
0.5556 0.6111 0.0000
0.5556 0.7222 0.0000
0.5556 0.8333 0.0000
0.5556 0.9444 0.0000
0.7778 0.0556 0.0000
0.7778 0.1667 0.0000
0.7778 0.2778 0.0000
0.7778 0.3889 0.0000
0.7778 0.5000 0.0000
0.7778 0.6111 0.0000
0.7778 0.7222 0.0000
0.7778 0.8333 0.0000
0.7778 0.9444 0.0000
1.0000 0.0556 0.0000
1.0000 0.1667 0.0000
1.0000 0.2778 0.0000
1.0000 0.3889 0.0000
1.0000 0.5000 0.0000
1.0000 0.6111 0.0000
1.0000 0.7222 0.0000
1.0000 0.8333 0.0000
1.0000 0.9444 0.0000
1.2222 0.0556 0.0000
1.2222 0.1667 0.0000
1.2222 0.2778 0.0000
1.2222 0.3889 0.0000
1.2222 0.5000 0.0000
1.2222 0.6111 0.0000
1.2222 0.7222 0.0000
1.2222 0.8333 0.0000
1.2222 0.9444 0.0000
1.4444 0.0556 0.0000
1.4444 0.1667 0.0000
1.4444 0.2778 0.0000
1.4444 0.3889 0.0000
1.4444 0.5000 0.0000
1.4444 0.6111 0.0000
1.4444 0.7222 0.0000
1.4444 0.8333 0.0000
1.4444 0.9444 0.0000
1.6667 0.0556 0.0000
1.6667 0.1667 0.0000
1.6667 0.2778 0.0000
1.6667 0.3889 0.0000
1.6667 0.5000 0.0000
1.6667 0.6111 0.0000
1.6667 0.7222 0.0000
1.6667 0.8333 0.0000
1.6667 0.9444 0.0000
1.8889 0.0556 0.0000
1.8889 0.1667 0.0000
1.8889 0.2778 0.0000
1.8889 0.3889 0.0000
1.8889 0.5000 0.0000
1.8889 0.6111 0.0000
1.8889 0.7222 0.0000
1.8889 0.8333 0.0000
1.8889 0.9444 0.0000
0.0000 0.0556 0.0000
0.0556 0.0278 0.0000
0.0556 0.0833 0.0000
0.0000 0.1667 0.0000
0.0556 0.1389 0.0000
0.0556 0.1944 0.0000
0.0000 0.2778 0.0000
0.0556 0.2500 0.0000
0.0556 0.3056 0.0000
0.0000 0.3889 0.0000
0.0556 0.3611 0.0000
0.0556 0.4167 0.0000
0.0000 0.5000 0.0000
0.0556 0.4722 0.0000
0.0556 0.5278 0.0000
0.0000 0.6111 0.0000
0.0556 0.5833 0.0000
0.0556 0.6389 0.0000
0.0000 0.7222 0.0000
0.0556 0.6944 0.0000
0.0556 0.7500 0.0000
0.0000 0.8333 0.0000
0.0556 0.8056 0.0000
0.0556 0.8611 0.0000
0.0000 0.9444 0.0000
0.0556 0.9167 0.0000
0.0556 0.9722 0.0000
0.2222 0.0556 0.0000
0.2778 0.0278 0.0000
0.2778 0.0833 0.0000
0.2222 0.1667 0.0000
0.2778 0.1389 0.0000
0.2778 0.1944 0.0000
0.2222 0.2778 0.0000
0.2778 0.2500 0.0000
0.2778 0.3056 0.0000
0.2222 0.3889 0.0000
0.2778 0.3611 0.0000
0.2778 0.4167 0.0000
0.2222 0.5000 0.0000
0.2778 0.4722 0.0000
0.2778 0.5278 0.0000
0.2222 0.6111 0.0000
0.2778 0.5833 0.0000
0.2778 0.6389 0.0000
0.2222 0.7222 0.0000
0.2778 0.6944 0.0000
0.2778 0.7500 0.0000
0.2222 0.8333 0.0000
0.2778 0.8056 0.0000
0.2778 0.8611 0.0000
0.2222 0.9444 0.0000
0.2778 0.9167 0.0000
0.2778 0.9722 0.0000
0.4444 0.0556 0.0000
0.5000 0.0278 0.0000
0.5000 0.0833 0.0000
0.4444 0.1667 0.0000
0.5000 0.1389 0.0000
0.5000 0.1944 0.0000
0.4444 0.2778 0.0000
0.5000 0.2500 0.0000
0.5000 0.3056 0.0000
0.4444 0.3889 0.0000
0.5000 0.3611 0.0000
0.5000 0.4167 0.0000
0.4444 0.5000 0.0000
0.5000 0.4722 0.0000
0.5000 0.5278 0.0000
0.4444 0.6111 0.0000
0.5000 0.5833 0.0000
0.5000 0.6389 0.0000
0.4444 0.7222 0.0000
0.5000 0.6944 0.0000
0.5000 0.7500 0.0000
0.4444 0.8333 0.0000
0.5000 0.8056 0.0000
0.5000 0.8611 0.0000
0.4444 0.9444 0.0000
0.5000 0.9167 0.0000
0.5000 0.9722 0.0000
0.6667 0.0556 0.0000
0.7222 0.0278 0.0000
0.7222 0.0833 0.0000
0.6667 0.1667 0.0000
0.7222 0.1389 0.0000
0.7222 0.1944 0.0000
0.6667 0.2778 0.0000
0.7222 0.2500 0.0000
0.7222 0.3056 0.0000
0.6667 0.3889 0.0000
0.7222 0.3611 0.0000
0.7222 0.4167 0.0000
0.6667 0.5000 0.0000
0.7222 0.4722 0.0000
0.7222 0.5278 0.0000
0.6667 0.6111 0.0000
0.7222 0.5833 0.0000
0.7222 0.6389 0.0000
0.6667 0.7222 0.0000
0.7222 0.6944 0.0000
0.7222 0.7500 0.0000
0.6667 0.8333 0.0000
0.7222 0.8056 0.0000
0.7222 0.8611 0.0000
0.6667 0.9444 0.0000
0.7222 0.9167 0.0000
0.7222 0.9722 0.0000
0.8889 0.0556 0.0000
0.9444 0.0278 0.0000
0.9444 0.0833 0.0000
0.8889 0.1667 0.0000
0.9444 0.1389 0.0000
0.9444 0.1944 0.0000
0.8889 0.2778 0.0000
0.9444 0.2500 0.0000
0.9444 0.3056 0.0000
0.8889 0.3889 0.0000
0.9444 0.3611 0.0000
0.9444 0.4167 0.0000
0.8889 0.5000 0.0000
0.9444 0.4722 0.0000
0.9444 0.5278 0.0000
0.8889 0.6111 0.0000
0.9444 0.5833 0.0000
0.9444 0.6389 0.0000
0.8889 0.7222 0.0000
0.9444 0.6944 0.0000
0.9444 0.7500 0.0000
0.8889 0.8333 0.0000
0.9444 0.8056 0.0000
0.9444 0.8611 0.0000
0.8889 0.9444 0.0000
0.9444 0.9167 0.0000
0.9444 0.9722 0.0000
1.1111 0.0556 0.0000
1.1667 0.0278 0.0000
1.1667 0.0833 0.0000
1.1111 0.1667 0.0000
1.1667 0.1389 0.0000
1.1667 0.1944 0.0000
1.1111 0.2778 0.0000
1.1667 0.2500 0.0000
1.1667 0.3056 0.0000
1.1111 0.3889 0.0000
1.1667 0.3611 0.0000
1.1667 0.4167 0.0000
1.1111 0.5000 0.0000
1.1667 0.4722 0.0000
1.1667 0.5278 0.0000
1.1111 0.6111 0.0000
1.1667 0.5833 0.0000
1.1667 0.6389 0.0000
1.1111 0.7222 0.0000
1.1667 0.6944 0.0000
1.1667 0.7500 0.0000
1.1111 0.8333 0.0000
1.1667 0.8056 0.0000
1.1667 0.8611 0.0000
1.1111 0.9444 0.0000
1.1667 0.9167 0.0000
1.1667 0.9722 0.0000
1.3333 0.0556 0.0000
1.3889 0.0278 0.0000
1.3889 0.0833 0.0000
1.3333 0.1667 0.0000
1.3889 0.1389 0.0000
1.3889 0.1944 0.0000
1.3333 0.2778 0.0000
1.3889 0.2500 0.0000
1.3889 0.3056 0.0000
1.3333 0.3889 0.0000
1.3889 0.3611 0.0000
1.3889 0.4167 0.0000
1.3333 0.5000 0.0000
1.3889 0.4722 0.0000
1.3889 0.5278 0.0000
1.3333 0.6111 0.0000
1.3889 0.5833 0.0000
1.3889 0.6389 0.0000
1.3333 0.7222 0.0000
1.3889 0.6944 0.0000
1.3889 0.7500 0.0000
1.3333 0.8333 0.0000
1.3889 0.8056 0.0000
1.3889 0.8611 0.0000
1.3333 0.9444 0.0000
1.3889 0.9167 0.0000
1.3889 0.9722 0.0000
1.5556 0.0556 0.0000
1.6111 0.0278 0.0000
1.6111 0.0833 0.0000
1.5556 0.1667 0.0000
1.6111 0.1389 0.0000
1.6111 0.1944 0.0000
1.5556 0.2778 0.0000
1.6111 0.2500 0.0000
1.6111 0.3056 0.0000
1.5556 0.3889 0.0000
1.6111 0.3611 0.0000
1.6111 0.4167 0.0000
1.5556 0.5000 0.0000
1.6111 0.4722 0.0000
1.6111 0.5278 0.0000
1.5556 0.6111 0.0000
1.6111 0.5833 0.0000
1.6111 0.6389 0.0000
1.5556 0.7222 0.0000
1.6111 0.6944 0.0000
1.6111 0.7500 0.0000
1.5556 0.8333 0.0000
1.6111 0.8056 0.0000
1.6111 0.8611 0.0000
1.5556 0.9444 0.0000
1.6111 0.9167 0.0000
1.6111 0.9722 0.0000
1.7778 0.0556 0.0000
1.8333 0.0278 0.0000
1.8333 0.0833 0.0000
1.7778 0.1667 0.0000
1.8333 0.1389 0.0000
1.8333 0.1944 0.0000
1.7778 0.2778 0.0000
1.8333 0.2500 0.0000
1.8333 0.3056 0.0000
1.7778 0.3889 0.0000
1.8333 0.3611 0.0000
1.8333 0.4167 0.0000
1.7778 0.5000 0.0000
1.8333 0.4722 0.0000
1.8333 0.5278 0.0000
1.7778 0.6111 0.0000
1.8333 0.5833 0.0000
1.8333 0.6389 0.0000
1.7778 0.7222 0.0000
1.8333 0.6944 0.0000
1.8333 0.7500 0.0000
1.7778 0.8333 0.0000
1.8333 0.8056 0.0000
1.8333 0.8611 0.0000
1.7778 0.9444 0.0000
1.8333 0.9167 0.0000
1.8333 0.9722 0.0000
0.1111 0.1111 0.0000
0.1667 0.0833 0.0000
0.1111 0.2222 0.0000
0.1667 0.1944 0.0000
0.1111 0.3333 0.0000
0.1667 0.3056 0.0000
0.1111 0.4444 0.0000
0.1667 0.4167 0.0000
0.1111 0.5556 0.0000
0.1667 0.5278 0.0000
0.1111 0.6667 0.0000
0.1667 0.6389 0.0000
0.1111 0.7778 0.0000
0.1667 0.7500 0.0000
0.1111 0.8889 0.0000
0.1667 0.8611 0.0000
0.1111 1.0000 0.0000
0.1667 0.9722 0.0000
0.3333 0.1111 0.0000
0.3889 0.0833 0.0000
0.3333 0.2222 0.0000
0.3889 0.1944 0.0000
0.3333 0.3333 0.0000
0.3889 0.3056 0.0000
0.3333 0.4444 0.0000
0.3889 0.4167 0.0000
0.3333 0.5556 0.0000
0.3889 0.5278 0.0000
0.3333 0.6667 0.0000
0.3889 0.6389 0.0000
0.3333 0.7778 0.0000
0.3889 0.7500 0.0000
0.3333 0.8889 0.0000
0.3889 0.8611 0.0000
0.3333 1.0000 0.0000
0.3889 0.9722 0.0000
0.5556 0.1111 0.0000
[...]
         <PointData>
            <DataArray Name="fValues" NumberOfComponents="3" format="ascii" type="Float64">
 1.16707e-21 -8.02363e-22        00000 
-3.32159e-21        00000        00000 
-1.35747e-22 -1.88620e-21        00000 
-1.25421e-22  1.91266e-21        00000 
 2.69578e-21 -1.04418e-21        00000 
 1.82644e-21 -3.76262e-22        00000 
-1.12138e-21  5.19375e-22        00000 
 7.51843e-22  3.75922e-22        00000 
 1.00774e-21  5.03869e-22        00000 
-5.83537e-22  1.16707e-21        00000 
-3.17319e-06  2.22373e-05        00000 
 1.68996e-05  6.40894e-06        00000 
 1.88697e-05 -6.39227e-06        00000 
 1.28228e-05  1.23496e-05        00000 
 1.19583e-05  1.54452e-05        00000 
 1.08364e-05  1.58959e-05        00000 
 5.63371e-06 -3.56155e-06        00000 
 1.51346e-05 -4.81963e-06        00000 
-6.08917e-06  4.21014e-07        00000 
 3.86357e-06 -1.97788e-05        00000 
 1.73140e-05  2.41635e-05        00000 
-7.98190e-06  1.98854e-05        00000 
-4.03661e-07  3.45051e-06        00000 
 6.42644e-06  1.54878e-05        00000 
 7.92689e-09 -2.34018e-06        00000 
-8.30766e-07  1.47727e-05        00000 
-5.00058e-06 -6.85564e-06        00000 
 1.85964e-05  8.22524e-06        00000 
-3.54162e-06  1.15877e-05        00000 
 9.04863e-06 -2.20505e-05        00000 
 1.08972e-05 -3.37842e-05        00000 
 8.64590e-06  1.25130e-05        00000 
 5.00194e-05  1.11198e-05        00000 
 3.24120e-05  4.95603e-06        00000 
 1.23616e-05 -1.58767e-05        00000 
 2.78215e-05  3.90538e-06        00000 
 1.78269e-05 -8.10616e-06        00000 
 3.78304e-05 -1.52848e-06        00000 
 1.09791e-05  3.97778e-06        00000 
 1.69002e-05  3.36347e-06        00000 
 1.67422e-05 -1.71537e-05        00000 
-1.09962e-06  3.22993e-05        00000 
 1.38292e-05  9.75362e-06        00000 
 2.48212e-05  2.69681e-05        00000 
-3.00446e-06  1.76096e-05        00000 
 4.77182e-06  2.40755e-05        00000 
-8.46824e-07  2.05995e-05        00000 
 1.62917e-05  1.91160e-05        00000 
-1.05273e-05  2.03282e-05        00000 
 1.65717e-06 -1.91789e-05        00000 
-2.45163e-06 -3.02311e-05        00000 
-7.01237e-06  6.87564e-06        00000 
 2.09255e-05  1.49596e-05        00000 
 2.54410e-05  1.36159e-05        00000 
 9.21716e-06  4.60683e-06        00000 
 2.19018e-05  1.19580e-05        00000 
 1.95978e-05  5.82459e-07        00000 
 2.64153e-05  9.50764e-06        00000 
 5.69294e-06 -8.77588e-06        00000 
 1.36382e-05 -2.53340e-05        00000 
-1.27710e-06 -4.04004e-05        00000 
 4.01516e-06 -6.55465e-06        00000 
 2.19120e-05 -2.26492e-06        00000 
 2.68483e-05  1.78372e-05        00000 
-1.43413e-05  8.21792e-06        00000 
 1.32391e-05  2.12100e-06        00000 
 5.65258e-06  6.88816e-06        00000 
 2.20939e-05  1.04226e-05        00000 
-1.36266e-05  1.01812e-05        00000 
 4.73249e-06  2.32375e-05        00000 
 3.19624e-06 -1.50184e-06        00000 
-1.10041e-05 -4.96181e-06        00000 
 3.00147e-05 -1.28025e-05        00000 
 1.91278e-05  1.35707e-07        00000 
 1.52847e-05 -2.47350e-05        00000 
 2.36924e-05 -2.75905e-05        00000 
 1.65140e-05 -3.47700e-05        00000 
 2.41953e-05 -2.25448e-05        00000 
-5.86839e-06 -2.12742e-05        00000 
 1.11586e-05 -2.71209e-05        00000 
 8.41478e-06 -5.18099e-05        00000 
-9.40067e-06 -1.67871e-05        00000 
 1.72980e-05 -2.88101e-05        00000 
 1.17659e-05 -2.71706e-05        00000 
 1.14306e-05 -3.71727e-05        00000 
 2.55245e-05 -2.91542e-05        00000 
 2.49666e-05 -1.41113e-05        00000 
 3.34835e-05 -1.41460e-05        00000 
-1.06001e-05  2.25345e-06        00000 
-1.45909e-05  3.88301e-05        00000 
 4.34749e-06 -4.46618e-06        00000 
-1.06679e-05  5.65920e-06        00000 
 1.96013e-05 -1.17570e-05        00000 
-1.67423e-06 -5.24910e-06        00000 
-3.58783e-06 -1.43731e-05        00000 
-7.76041e-06 -1.79439e-05        00000 
-9.97040e-06 -2.31499e-05        00000 
-3.78881e-06 -1.26665e-05        00000 
-1.01422e-05 -3.42737e-05        00000 
 1.99625e-05 -1.57920e-05        00000 
 4.99322e-06  8.30550e-06        00000 
-4.89114e-06  6.21341e-06        00000 
 3.57222e-06  9.29863e-06        00000 
 8.80205e-07  4.65196e-06        00000 
 4.99167e-06 -8.51907e-06        00000 
 3.07028e-06 -1.33246e-05        00000 
-2.56202e-06  1.08951e-05        00000 
 3.33166e-06 -1.88328e-05        00000 
-3.25478e-06 -2.07118e-06        00000 
 7.84749e-07 -2.67978e-05        00000 
 5.34388e-06 -5.74225e-06        00000 
 3.32467e-06 -9.59647e-06        00000 
 7.49151e-06  2.24697e-06        00000 
-4.59057e-07  5.94216e-06        00000 
 2.63120e-06  6.23743e-06        00000 
-6.10342e-06  4.27893e-06        00000 
 1.09839e-05  1.00381e-06        00000 
-2.35027e-06  9.57929e-06        00000 
 9.56525e-06  1.22877e-05        00000 
 1.93240e-05  1.62211e-05        00000 
 1.35638e-06  1.40696e-06        00000 
 9.83150e-06  6.93716e-06        00000 
 1.21835e-05 -1.10678e-05        00000 
-1.07435e-05 -1.11072e-05        00000 
-1.80793e-05 -1.67414e-07        00000 
 1.34961e-05 -9.88952e-06        00000 
 1.20927e-05 -1.29986e-05        00000 
-1.15309e-05  1.32341e-05        00000 
-6.22397e-06  1.11444e-05        00000 
-1.68146e-05 -1.09924e-05        00000 
-5.58297e-06 -4.47822e-06        00000 
 1.67649e-06 -2.78504e-05        00000 
-1.21109e-05 -9.78263e-06        00000 
-2.47611e-05 -1.81721e-05        00000 
 2.82792e-06 -1.43469e-05        00000 
-5.49822e-08 -9.89480e-06        00000 
-2.04155e-05  1.18409e-05        00000 
-4.51396e-07 -5.30979e-07        00000 
-9.48380e-06  5.31909e-06        00000 
 1.20240e-06 -5.68495e-06        00000 
 1.00710e-06 -1.62061e-06        00000 
-9.31641e-06  3.24430e-06        00000 
-9.60867e-06 -1.16101e-05        00000 
-6.53902e-08 -1.86296e-06        00000 
 8.62883e-06  1.09524e-05        00000 
-8.30179e-06  1.76909e-06        00000 
 1.72812e-05 -6.61777e-06        00000 
-1.08555e-05 -1.69616e-05        00000 
 1.73389e-05 -1.22197e-06        00000 
 2.27625e-05 -8.42250e-06        00000 
 4.33700e-06 -9.69601e-06        00000 
 4.26365e-06 -6.25044e-06        00000 
 8.50528e-06 -1.48817e-05        00000 
 6.21385e-06 -1.38068e-06        00000 
-1.64325e-05 -5.95227e-06        00000 
 7.14686e-06  2.40259e-06        00000 
-1.16850e-05  2.65101e-07        00000 
 8.04706e-06 -1.39944e-06        00000 
 3.62083e-07  3.77692e-06        00000 
-8.41956e-06  5.35553e-06        00000 
-8.50334e-06  1.91696e-06        00000 
-8.11768e-06  7.66442e-06        00000 
-6.31015e-06  1.91324e-05        00000 
-1.38033e-06 -1.30526e-05        00000 
 1.99078e-06 -1.46583e-05        00000 
 2.73324e-06 -3.33405e-05        00000 
 7.54091e-06 -3.19195e-05        00000 
 1.28681e-05 -3.61155e-05        00000 
 1.17500e-05 -3.71542e-05        00000 
 1.07802e-05 -1.62367e-05        00000 
 1.59828e-05 -2.14209e-05        00000 
-7.55663e-06 -1.66545e-05        00000 
-3.67619e-05  4.80016e-06        00000 
-1.96789e-05  9.01954e-06        00000 
-2.27775e-05 -1.11929e-06        00000 
-1.56621e-05 -8.00541e-06        00000 
-1.46976e-05 -9.18450e-06        00000 
-1.80737e-05 -6.93764e-06        00000 
-1.97348e-05  1.11898e-05        00000 
-1.36414e-05  1.19562e-05        00000 
-3.37973e-06 -1.33487e-05        00000 
 6.03925e-22 -1.08859e-21        00000 
 3.12604e-06  8.88594e-06        00000 
 7.06364e-06  1.65295e-06        00000 
-1.40674e-21 -2.06791e-21        00000 
 9.88024e-06  7.67098e-06        00000 
 7.36769e-06  8.65750e-06        00000 
-4.76456e-22  9.52912e-22        00000 
-6.51246e-06  5.51732e-06        00000 
-1.03674e-06  5.99918e-06        00000 
 4.44059e-22 -1.13622e-21        00000 
 1.06034e-06  8.26389e-07        00000 
 4.51274e-06 -5.61860e-06        00000 
 9.52912e-22 -5.95570e-22        00000 
 5.54257e-06 -1.96775e-06        00000 
 7.89018e-06 -7.04680e-06        00000 
-1.10889e-22 -8.65624e-23        00000 
-5.94624e-08  2.20033e-06        00000 
-9.04389e-06 -4.65649e-06        00000 
 4.76456e-22  4.76456e-22        00000 
-8.33056e-06  6.24972e-06        00000 
 5.36668e-06 -8.39300e-06        00000 
 2.85874e-21  9.52912e-22        00000 
 8.50813e-06  1.98708e-06        00000 
 1.66548e-05  7.25372e-06        00000 
 6.55960e-23 -1.08690e-21        00000 
 3.03584e-06 -1.12166e-05        00000 
-3.51489e-06 -2.41600e-06        00000 
-5.30580e-06  3.63369e-06        00000 
 7.51071e-06 -3.20138e-05        00000 
 7.15720e-06 -1.04185e-06        00000 
-1.08268e-05  5.23122e-06        00000 
 5.44646e-06  6.07817e-06        00000 
-2.02585e-05 -9.38014e-06        00000 
-1.42063e-06 -4.59384e-06        00000 
-1.24704e-05 -1.97342e-05        00000 
-8.15253e-06 -3.65175e-06        00000 
-1.35120e-05  1.89824e-06        00000 
-1.09339e-05 -1.21900e-05        00000 
-1.18790e-05 -1.44788e-05        00000 
 3.52069e-06  7.23267e-06        00000 
 3.97833e-06  2.91762e-06        00000 
-6.31508e-06 -9.57652e-06        00000 
 9.97851e-06 -3.82487e-06        00000 
-4.13662e-06 -8.16654e-06        00000 
-1.10989e-05 -1.66926e-05        00000 
 1.19784e-06 -5.69831e-06        00000 
-5.08401e-07  8.66796e-06        00000 
-1.31856e-05 -3.27230e-06        00000 
-2.74825e-06 -1.04291e-05        00000 
-3.81036e-06  2.25886e-06        00000 
-2.33629e-06  7.55461e-06        00000 
-2.12957e-05  7.48415e-06        00000 
 8.79549e-06 -2.09649e-05        00000 
 5.42718e-06  1.89396e-05        00000 
-8.34047e-07 -5.32640e-07        00000 
-9.15529e-06 -2.74206e-06        00000 
 3.11522e-06  1.70260e-05        00000 
-1.77011e-05  2.82341e-06        00000 
 8.07460e-06 -2.69199e-07        00000 
 6.27291e-06  1.18078e-05        00000 
-1.60209e-05 -1.02447e-05        00000 
 1.27977e-05  7.93251e-06        00000 
 2.45443e-05  4.98653e-06        00000 
-2.24977e-06 -1.23090e-05        00000 
 1.14166e-06 -1.99642e-05        00000 
 1.08251e-05 -1.16209e-05        00000 
-2.83308e-06 -1.54847e-05        00000 
 9.68532e-06  3.66067e-06        00000 
 1.37866e-05  1.55216e-06        00000 
 1.38475e-06 -5.59571e-06        00000 
-1.08929e-06 -5.39364e-06        00000 
-1.29053e-05 -1.86011e-05        00000 
 4.99399e-06 -1.07806e-05        00000 
 3.41592e-07  5.48978e-06        00000 
 2.09469e-06  1.07300e-05        00000 
 7.24324e-06 -4.18565e-06        00000 
-7.54331e-08  1.49986e-06        00000 
 1.89008e-05  6.87868e-06        00000 
-1.38965e-05  1.10157e-05        00000 
 1.99568e-05 -1.79211e-05        00000 
 7.88377e-06  1.42133e-05        00000 
 7.68401e-06  3.88180e-05        00000 
 7.66869e-06  1.00474e-04        00000 
-8.56444e-07 -1.35140e-05        00000 
 2.12100e-05  1.07773e-05        00000 
 1.26738e-05  3.05743e-05        00000 
-5.78859e-06  3.48027e-07        00000 
 2.39240e-05 -1.20087e-06        00000 
 2.25653e-06  1.68294e-05        00000 
-6.06752e-06  3.11479e-06        00000 
 1.00813e-05 -1.26999e-05        00000 
-1.61668e-05 -1.41656e-05        00000 
-2.12207e-05 -1.59902e-05        00000 
 1.94664e-05 -2.18982e-05        00000 
-1.38535e-05  4.67998e-06        00000 
-7.65516e-06  4.29867e-07        00000 
 2.08884e-05 -8.77742e-06        00000 
-1.32583e-05 -9.34032e-06        00000 
-3.34798e-05 -2.44437e-05        00000 
 1.18127e-05 -9.47617e-06        00000 
-1.01186e-05  6.71057e-06        00000 
-2.43814e-05  7.56464e-06        00000 
 2.22207e-05  1.28391e-05        00000 
-1.19454e-05  1.54654e-05        00000 
-5.86098e-06 -6.22784e-07        00000 
-1.15480e-06  3.57650e-06        00000 
 3.83562e-06 -5.82934e-06        00000 
 7.05423e-06 -3.63969e-06        00000 
-1.65258e-05  1.98210e-05        00000 
 5.16607e-07  4.76275e-05        00000 
-9.89637e-07  1.74551e-05        00000 
-8.42577e-06 -6.36059e-06        00000 
-1.31211e-05  1.18952e-05        00000 
-1.01212e-05  8.25013e-06        00000 
-6.49548e-09 -4.53344e-06        00000 
-2.08128e-05  6.45045e-06        00000 
-3.43759e-06  1.80335e-05        00000 
-9.70896e-06 -2.19334e-05        00000 
-2.60330e-05 -2.53461e-05        00000 
-1.35242e-05  5.38721e-06        00000 
-1.23364e-05 -1.99192e-05        00000 
-1.54531e-05  6.26778e-06        00000 
-5.26305e-06  2.28299e-05        00000 
 4.69960e-07 -2.31625e-06        00000 
-2.03331e-05  3.40948e-06        00000 
-2.09318e-05  6.76041e-07        00000 
-8.93675e-06 -2.26956e-06        00000 
-3.71290e-06  1.00891e-05        00000 
-3.88007e-06  2.77254e-05        00000 
-1.24783e-05  9.80968e-06        00000 
 9.20553e-07  1.41533e-05        00000 
 1.31593e-06  2.67917e-05        00000 
-1.79258e-05  1.49916e-05        00000 
-1.35458e-07  2.49303e-06        00000 
-1.51018e-05  3.54445e-05        00000 
-9.17729e-06 -1.98249e-06        00000 
-2.59308e-05  3.01544e-05        00000 
-2.12623e-05 -1.45785e-06        00000 
-1.17078e-05 -6.89599e-06        00000 
-1.56037e-05  1.83184e-06        00000 
-1.12170e-05  1.56440e-05        00000 
 8.96167e-06  2.23482e-06        00000 
-7.38469e-06  1.23829e-05        00000 
 4.55594e-06  6.56191e-06        00000 
 1.18486e-05 -1.11181e-05        00000 
-1.40998e-05 -7.74409e-06        00000 
-7.22594e-06  1.01853e-05        00000 
 5.73036e-06 -2.30972e-05        00000 
-6.93030e-06  5.85133e-06        00000 
-1.73607e-06  1.57092e-05        00000 
 1.57624e-05  1.46505e-06        00000 
-7.12897e-06  1.28544e-06        00000 
-2.15735e-05 -8.06278e-06        00000 
 7.18012e-06  4.66869e-06        00000 
 1.44287e-06 -4.85178e-06        00000 
-6.52706e-06  1.60903e-06        00000 
-5.07876e-06  1.32187e-05        00000 
-1.01624e-06  2.96354e-06        00000 
-1.45488e-05 -1.25256e-06        00000 
-1.91921e-06 -1.97226e-05        00000 
 4.93668e-06 -1.24041e-05        00000 
 3.86772e-06 -2.47560e-05        00000 
-1.20134e-05 -8.31332e-07        00000 
-1.66867e-06  1.96649e-05        00000 
 1.79983e-06 -1.61896e-06        00000 
-2.08282e-06 -1.42926e-05        00000 
-6.88628e-06 -1.37635e-06        00000 
-2.25877e-05 -8.30850e-06        00000 
-3.00091e-06  1.01193e-07        00000 
-1.17243e-05 -2.95459e-06        00000 
-2.36562e-07  1.13231e-05        00000 
-1.45295e-06 -1.37355e-05        00000 
-1.83942e-05 -2.19937e-05        00000 
-1.28154e-05 -3.80901e-06        00000 
-1.52653e-05 -1.47663e-05        00000 
-1.09253e-05  1.06267e-05        00000 
-1.24919e-05  2.10608e-05        00000 
 1.83330e-06 -1.43670e-06        00000 
-1.94239e-05 -1.39096e-05        00000 
-1.81972e-05  1.79285e-06        00000 
-3.48171e-06 -7.46625e-06        00000 
-1.06221e-05  6.80959e-07        00000 
-8.40394e-06  2.24307e-06        00000 
-8.42924e-06 -6.88724e-06        00000 
-1.69889e-05  1.03557e-05        00000 
-8.20211e-06  8.79200e-06        00000 
-1.25414e-05  5.05246e-06        00000 
-4.47986e-06  1.85732e-05        00000 
-1.47272e-05 -6.79847e-06        00000 
 1.52763e-06 -1.04043e-05        00000 
 4.62357e-06 -6.15207e-07        00000 
-9.68133e-06 -1.27215e-05        00000 
 5.85639e-06  1.11710e-06        00000 
-6.00274e-06  3.91331e-06        00000 
-3.31748e-05 -9.23982e-06        00000 
 2.74094e-06 -5.38303e-06        00000 
-1.29664e-05 -3.55736e-06        00000 
-3.08684e-05 -1.57773e-05        00000 
 5.13624e-06 -6.23884e-06        00000 
-9.59779e-06 -9.93058e-07        00000 
-3.38056e-05 -7.14321e-06        00000 
-2.39501e-07 -1.55435e-05        00000 
-2.04405e-06  2.03641e-06        00000 
-2.92516e-05  8.23996e-06        00000 
 1.71374e-05 -3.40768e-06        00000 
 6.12762e-07 -3.55668e-06        00000 
-2.67008e-05 -1.66192e-05        00000 
 1.59852e-05 -1.35129e-05        00000 
-5.57675e-06 -9.37447e-08        00000 
-2.28353e-05 -3.18407e-06        00000 
 7.89200e-06 -2.47006e-07        00000 
-1.17497e-05 -2.24688e-06        00000 
-2.72293e-05 -6.45673e-06        00000 
-5.16341e-06 -1.27028e-05        00000 
-4.92783e-06 -2.33951e-05        00000 
-7.28019e-06  3.78013e-06        00000 
 4.74567e-06 -7.57704e-06        00000 
 1.34708e-06  5.75058e-05        00000 
-3.27601e-06 -3.58436e-05        00000 
-2.12867e-06 -9.59223e-07        00000 
 7.29790e-06  2.13169e-05        00000 
-7.09507e-06 -5.00712e-06        00000 
-2.04644e-06 -5.74614e-06        00000 
-3.77582e-06  2.12857e-05        00000 
-1.07310e-05 -1.85937e-06        00000 
-6.17776e-06  9.16137e-06        00000 
-1.06024e-05  2.24217e-05        00000 
-1.27296e-05  7.43588e-06        00000 
-1.83575e-06  7.79822e-06        00000 
-3.12959e-06  2.26597e-05        00000 
-2.25764e-05  7.06705e-06        00000 
 2.35170e-07  6.90576e-06        00000 
-1.44262e-05  9.92802e-06        00000 
-1.47580e-05  3.99945e-06        00000 
 6.05825e-06 -8.67839e-06        00000 
-2.04068e-05  1.64206e-05        00000 
-1.04520e-05  1.94949e-05        00000 
 4.84571e-06 -1.29530e-05        00000 
-1.37768e-05  2.66698e-05        00000 
 7.03700e-06 -6.93759e-06        00000 
-1.32457e-05 -1.48276e-05        00000 
-3.75650e-05  2.79364e-05        00000 
-1.05067e-05 -7.23789e-05        00000 
-6.99648e-07 -3.15931e-06        00000 
-8.14435e-06 -8.62003e-07        00000 
 5.12913e-06 -3.12965e-07        00000 
 3.93162e-06  9.89017e-06        00000 
-2.07271e-06 -1.23871e-05        00000 
-4.24334e-06  4.15619e-06        00000 
 5.55958e-06 -5.16916e-06        00000 
-4.33310e-06  1.26385e-05        00000 
-4.20132e-06 -1.30719e-05        00000 
-8.36512e-06  2.22936e-05        00000 
 4.79695e-06  1.44745e-06        00000 
 4.74466e-06  1.73603e-05        00000 
-5.91918e-06 -1.60568e-06        00000 
 7.15773e-06 -5.53429e-06        00000 
 4.38495e-06 -1.52089e-05        00000 
-1.64335e-05 -2.48148e-06        00000 
-1.63810e-05 -3.34473e-05        00000 
 6.83407e-06  2.93467e-05        00000 
 1.20344e-05 -6.89868e-06        00000 
 9.01890e-06  1.39247e-05        00000 
 1.36398e-05 -2.24201e-06        00000 
 8.21367e-06  2.19276e-05        00000 
-3.21456e-06  1.23404e-06        00000 
 1.03126e-05  1.75748e-05        00000 
 6.53968e-06  1.07299e-05        00000 
 8.76434e-06  3.06603e-05        00000 
-1.67437e-05  4.92734e-06        00000 
 8.04929e-07  3.12532e-05        00000 
-2.25363e-06  7.44761e-06        00000 
 8.48583e-07  3.02173e-05        00000 
-6.43353e-06  5.00866e-06        00000 
 5.89492e-06  9.37054e-06        00000 
-6.05168e-06 -5.63079e-06        00000 
-1.07178e-06  1.41900e-05        00000 
-2.76624e-05 -3.47647e-05        00000 
-7.18711e-06  3.95474e-05        00000 
 9.01260e-06  4.59466e-06        00000 
-1.37811e-05 -1.36780e-05        00000 
 2.21192e-05 -1.17877e-06        00000 
-2.69787e-05  2.71568e-06        00000 
-1.44443e-05 -1.54262e-05        00000 
-1.00222e-05  1.35293e-06        00000 
 3.55266e-06 -4.26539e-06        00000 
-1.59551e-05  3.61067e-07        00000 
-1.37967e-05 -9.63458e-06        00000 
-1.92454e-05  2.26717e-07        00000 
-1.28548e-05  3.72018e-06        00000 
-7.27605e-06  1.60059e-05        00000 
-3.82962e-06 -7.73689e-06        00000 
-1.13683e-05 -1.26852e-06        00000 
 1.52264e-05 -1.11994e-05        00000 
-6.24385e-06  5.39276e-06        00000 
-1.47805e-05 -4.79440e-05        00000 
 1.71517e-05  2.87464e-05        00000 
-1.00755e-05  3.95067e-06        00000 
 7.04977e-06 -1.37453e-05        00000 
-1.16064e-05 -4.09373e-06        00000 
-4.76378e-06  6.06278e-06        00000 
-2.88720e-05 -1.49883e-06        00000 
 2.05498e-05  1.87845e-05        00000 
-1.73163e-05  1.64212e-05        00000 
 1.80495e-05  2.21108e-05        00000 
-2.34298e-05  8.42431e-06        00000 
 1.91852e-05  1.83554e-05        00000 
-1.88576e-05  1.61188e-05        00000 
 1.65227e-05  2.83200e-05        00000 
-8.26373e-06 -1.49016e-06        00000 
 6.53155e-06  1.21254e-05        00000 
 1.20847e-05 -7.34597e-06        00000 
 1.06740e-05  4.82111e-06        00000 
-1.94593e-05 -4.93156e-06        00000 
 2.32096e-06  2.85816e-05        00000 
-4.60115e-06  1.15165e-05        00000 