<?xml version="1.0" encoding="utf-8"?>
<VTKFile byte_order="LittleEndian" type="UnstructuredGrid" version="0.1">
   <UnstructuredGrid>
      <Piece NumberOfCells="1296" NumberOfPoints="685">
         <Points>
            <DataArray Name="Points" NumberOfComponents="3" format="ascii" type="Float32">
0.0000 0.0000 0.0000
0.0000 0.1111 0.0000
0.0000 0.2222 0.0000
0.0000 0.3333 0.0000
0.0000 0.4444 0.0000
0.0000 0.5556 0.0000
0.0000 0.6667 0.0000
0.0000 0.7778 0.0000
0.0000 0.8889 0.0000
0.0000 1.0000 0.0000
0.2222 0.0000 0.0000
0.2222 0.1111 0.0000
0.2222 0.2222 0.0000
0.2222 0.3333 0.0000
0.2222 0.4444 0.0000
0.2222 0.5556 0.0000
0.2222 0.6667 0.0000
0.2222 0.7778 0.0000
0.2222 0.8889 0.0000
0.2222 1.0000 0.0000
0.4444 0.0000 0.0000
0.4444 0.1111 0.0000
0.4444 0.2222 0.0000
0.4444 0.3333 0.0000
0.4444 0.4444 0.0000
0.4444 0.5556 0.0000
0.4444 0.6667 0.0000
0.4444 0.7778 0.0000
0.4444 0.8889 0.0000
0.4444 1.0000 0.0000
0.6667 0.0000 0.0000
0.6667 0.1111 0.0000
0.6667 0.2222 0.0000
0.6667 0.3333 0.0000
0.6667 0.4444 0.0000
0.6667 0.5556 0.0000
0.6667 0.6667 0.0000
0.6667 0.7778 0.0000
0.6667 0.8889 0.0000
0.6667 1.0000 0.0000
0.8889 0.0000 0.0000
0.8889 0.1111 0.0000
0.8889 0.2222 0.0000
0.8889 0.3333 0.0000
0.8889 0.4444 0.0000
0.8889 0.5556 0.0000
0.8889 0.6667 0.0000
0.8889 0.7778 0.0000
0.8889 0.8889 0.0000
0.8889 1.0000 0.0000
1.1111 0.0000 0.0000
1.1111 0.1111 0.0000
1.1111 0.2222 0.0000
1.1111 0.3333 0.0000
1.1111 0.4444 0.0000
1.1111 0.5556 0.0000
1.1111 0.6667 0.0000
1.1111 0.7778 0.0000
1.1111 0.8889 0.0000
1.1111 1.0000 0.0000
1.3333 0.0000 0.0000
1.3333 0.1111 0.0000
1.3333 0.2222 0.0000
1.3333 0.3333 0.0000
1.3333 0.4444 0.0000
1.3333 0.5556 0.0000
1.3333 0.6667 0.0000
1.3333 0.7778 0.0000
1.3333 0.8889 0.0000
1.3333 1.0000 0.0000
1.5556 0.0000 0.0000
1.5556 0.1111 0.0000
1.5556 0.2222 0.0000
1.5556 0.3333 0.0000
1.5556 0.4444 0.0000
1.5556 0.5556 0.0000
1.5556 0.6667 0.0000
1.5556 0.7778 0.0000
1.5556 0.8889 0.0000
1.5556 1.0000 0.0000
1.7778 0.0000 0.0000
1.7778 0.1111 0.0000
1.7778 0.2222 0.0000
1.7778 0.3333 0.0000
1.7778 0.4444 0.0000
1.7778 0.5556 0.0000
1.7778 0.6667 0.0000
1.7778 0.7778 0.0000
1.7778 0.8889 0.0000
1.7778 1.0000 0.0000
2.0000 0.0000 0.0000
2.0000 0.1111 0.0000
2.0000 0.2222 0.0000
2.0000 0.3333 0.0000
2.0000 0.4444 0.0000
2.0000 0.5556 0.0000
2.0000 0.6667 0.0000
2.0000 0.7778 0.0000
2.0000 0.8889 0.0000
2.0000 1.0000 0.0000
0.1111 0.0556 0.0000
0.1111 0.1667 0.0000
0.1111 0.2778 0.0000
0.1111 0.3889 0.0000
0.1111 0.5000 0.0000
0.1111 0.6111 0.0000
0.1111 0.7222 0.0000
0.1111 0.8333 0.0000
0.1111 0.9444 0.0000
0.3333 0.0556 0.0000
0.3333 0.1667 0.0000
0.3333 0.2778 0.0000
0.3333 0.3889 0.0000
0.3333 0.5000 0.0000
0.3333 0.6111 0.0000
0.3333 0.7222 0.0000
0.3333 0.8333 0.0000
0.3333 0.9444 0.0000
0.5556 0.0556 0.0000
0.5556 0.1667 0.0000
0.5556 0.2778 0.0000
0.5556 0.3889 0.0000
0.5556 0.5000 0.0000
0.5556 0.6111 0.0000
0.5556 0.7222 0.0000
0.5556 0.8333 0.0000
0.5556 0.9444 0.0000
0.7778 0.0556 0.0000
0.7778 0.1667 0.0000
0.7778 0.2778 0.0000
0.7778 0.3889 0.0000
0.7778 0.5000 0.0000
0.7778 0.6111 0.0000
0.7778 0.7222 0.0000
0.7778 0.8333 0.0000
0.7778 0.9444 0.0000
1.0000 0.0556 0.0000
1.0000 0.1667 0.0000
1.0000 0.2778 0.0000
1.0000 0.3889 0.0000
1.0000 0.5000 0.0000
1.0000 0.6111 0.0000
1.0000 0.7222 0.0000
1.0000 0.8333 0.0000
1.0000 0.9444 0.0000
1.2222 0.0556 0.0000
1.2222 0.1667 0.0000
1.2222 0.2778 0.0000
1.2222 0.3889 0.0000
1.2222 0.5000 0.0000
1.2222 0.6111 0.0000
1.2222 0.7222 0.0000
1.2222 0.8333 0.0000
1.2222 0.9444 0.0000
1.4444 0.0556 0.0000
1.4444 0.1667 0.0000
1.4444 0.2778 0.0000
1.4444 0.3889 0.0000
1.4444 0.5000 0.0000
1.4444 0.6111 0.0000
1.4444 0.7222 0.0000
1.4444 0.8333 0.0000
1.4444 0.9444 0.0000
1.6667 0.0556 0.0000
1.6667 0.1667 0.0000
1.6667 0.2778 0.0000
1.6667 0.3889 0.0000
1.6667 0.5000 0.0000
1.6667 0.6111 0.0000
1.6667 0.7222 0.0000
1.6667 0.8333 0.0000
1.6667 0.9444 0.0000
1.8889 0.0556 0.0000
1.8889 0.1667 0.0000
1.8889 0.2778 0.0000
1.8889 0.3889 0.0000
1.8889 0.5000 0.0000
1.8889 0.6111 0.0000
1.8889 0.7222 0.0000
1.8889 0.8333 0.0000
1.8889 0.9444 0.0000
0.0000 0.0556 0.0000
0.0556 0.0278 0.0000
0.0556 0.0833 0.0000
0.0000 0.1667 0.0000
0.0556 0.1389 0.0000
0.0556 0.1944 0.0000
0.0000 0.2778 0.0000
0.0556 0.2500 0.0000
0.0556 0.3056 0.0000
0.0000 0.3889 0.0000
0.0556 0.3611 0.0000
0.0556 0.4167 0.0000
0.0000 0.5000 0.0000
0.0556 0.4722 0.0000
0.0556 0.5278 0.0000
0.0000 0.6111 0.0000
0.0556 0.5833 0.0000
0.0556 0.6389 0.0000
0.0000 0.7222 0.0000
0.0556 0.6944 0.0000
0.0556 0.7500 0.0000
0.0000 0.8333 0.0000
0.0556 0.8056 0.0000
0.0556 0.8611 0.0000
0.0000 0.9444 0.0000
0.0556 0.9167 0.0000
0.0556 0.9722 0.0000
0.2222 0.0556 0.0000
0.2778 0.0278 0.0000
0.2778 0.0833 0.0000
0.2222 0.1667 0.0000
0.2778 0.1389 0.0000
0.2778 0.1944 0.0000
0.2222 0.2778 0.0000
0.2778 0.2500 0.0000
0.2778 0.3056 0.0000
0.2222 0.3889 0.0000
0.2778 0.3611 0.0000
0.2778 0.4167 0.0000
0.2222 0.5000 0.0000
0.2778 0.4722 0.0000
0.2778 0.5278 0.0000
0.2222 0.6111 0.0000
0.2778 0.5833 0.0000
0.2778 0.6389 0.0000
0.2222 0.7222 0.0000
0.2778 0.6944 0.0000
0.2778 0.7500 0.0000
0.2222 0.8333 0.0000
0.2778 0.8056 0.0000
0.2778 0.8611 0.0000
0.2222 0.9444 0.0000
0.2778 0.9167 0.0000
0.2778 0.9722 0.0000
0.4444 0.0556 0.0000
0.5000 0.0278 0.0000
0.5000 0.0833 0.0000
0.4444 0.1667 0.0000
0.5000 0.1389 0.0000
0.5000 0.1944 0.0000
0.4444 0.2778 0.0000
0.5000 0.2500 0.0000
0.5000 0.3056 0.0000
0.4444 0.3889 0.0000
0.5000 0.3611 0.0000
0.5000 0.4167 0.0000
0.4444 0.5000 0.0000
0.5000 0.4722 0.0000
0.5000 0.5278 0.0000
0.4444 0.6111 0.0000
0.5000 0.5833 0.0000
0.5000 0.6389 0.0000
0.4444 0.7222 0.0000
0.5000 0.6944 0.0000
0.5000 0.7500 0.0000
0.4444 0.8333 0.0000
0.5000 0.8056 0.0000
0.5000 0.8611 0.0000
0.4444 0.9444 0.0000
0.5000 0.9167 0.0000
0.5000 0.9722 0.0000
0.6667 0.0556 0.0000
0.7222 0.0278 0.0000
0.7222 0.0833 0.0000
0.6667 0.1667 0.0000
0.7222 0.1389 0.0000
0.7222 0.1944 0.0000
0.6667 0.2778 0.0000
0.7222 0.2500 0.0000
0.7222 0.3056 0.0000
0.6667 0.3889 0.0000
0.7222 0.3611 0.0000
0.7222 0.4167 0.0000
0.6667 0.5000 0.0000
0.7222 0.4722 0.0000
0.7222 0.5278 0.0000
0.6667 0.6111 0.0000
0.7222 0.5833 0.0000
0.7222 0.6389 0.0000
0.6667 0.7222 0.0000
0.7222 0.6944 0.0000
0.7222 0.7500 0.0000
0.6667 0.8333 0.0000
0.7222 0.8056 0.0000
0.7222 0.8611 0.0000
0.6667 0.9444 0.0000
0.7222 0.9167 0.0000
0.7222 0.9722 0.0000
0.8889 0.0556 0.0000
0.9444 0.0278 0.0000
0.9444 0.0833 0.0000
0.8889 0.1667 0.0000
0.9444 0.1389 0.0000
0.9444 0.1944 0.0000
0.8889 0.2778 0.0000
0.9444 0.2500 0.0000
0.9444 0.3056 0.0000
0.8889 0.3889 0.0000
0.9444 0.3611 0.0000
0.9444 0.4167 0.0000
0.8889 0.5000 0.0000
0.9444 0.4722 0.0000
0.9444 0.5278 0.0000
0.8889 0.6111 0.0000
0.9444 0.5833 0.0000
0.9444 0.6389 0.0000
0.8889 0.7222 0.0000
0.9444 0.6944 0.0000
0.9444 0.7500 0.0000
0.8889 0.8333 0.0000
0.9444 0.8056 0.0000
0.9444 0.8611 0.0000
0.8889 0.9444 0.0000
0.9444 0.9167 0.0000
0.9444 0.9722 0.0000
1.1111 0.0556 0.0000
1.1667 0.0278 0.0000
1.1667 0.0833 0.0000
1.1111 0.1667 0.0000
1.1667 0.1389 0.0000
1.1667 0.1944 0.0000
1.1111 0.2778 0.0000
1.1667 0.2500 0.0000
1.1667 0.3056 0.0000
1.1111 0.3889 0.0000
1.1667 0.3611 0.0000
1.1667 0.4167 0.0000
1.1111 0.5000 0.0000
1.1667 0.4722 0.0000
1.1667 0.5278 0.0000
1.1111 0.6111 0.0000
1.1667 0.5833 0.0000
1.1667 0.6389 0.0000
1.1111 0.7222 0.0000
1.1667 0.6944 0.0000
1.1667 0.7500 0.0000
1.1111 0.8333 0.0000
1.1667 0.8056 0.0000
1.1667 0.8611 0.0000
1.1111 0.9444 0.0000
1.1667 0.9167 0.0000
1.1667 0.9722 0.0000
1.3333 0.0556 0.0000
1.3889 0.0278 0.0000
1.3889 0.0833 0.0000
1.3333 0.1667 0.0000
1.3889 0.1389 0.0000
1.3889 0.1944 0.0000
1.3333 0.2778 0.0000
1.3889 0.2500 0.0000
1.3889 0.3056 0.0000
1.3333 0.3889 0.0000
1.3889 0.3611 0.0000
1.3889 0.4167 0.0000
1.3333 0.5000 0.0000
1.3889 0.4722 0.0000
1.3889 0.5278 0.0000
1.3333 0.6111 0.0000
1.3889 0.5833 0.0000
1.3889 0.6389 0.0000
1.3333 0.7222 0.0000
1.3889 0.6944 0.0000
1.3889 0.7500 0.0000
1.3333 0.8333 0.0000
1.3889 0.8056 0.0000
1.3889 0.8611 0.0000
1.3333 0.9444 0.0000
1.3889 0.9167 0.0000
1.3889 0.9722 0.0000
1.5556 0.0556 0.0000
1.6111 0.0278 0.0000
1.6111 0.0833 0.0000
1.5556 0.1667 0.0000
1.6111 0.1389 0.0000
1.6111 0.1944 0.0000
1.5556 0.2778 0.0000
1.6111 0.2500 0.0000
1.6111 0.3056 0.0000
1.5556 0.3889 0.0000
1.6111 0.3611 0.0000
1.6111 0.4167 0.0000
1.5556 0.5000 0.0000
1.6111 0.4722 0.0000
1.6111 0.5278 0.0000
1.5556 0.6111 0.0000
1.6111 0.5833 0.0000
1.6111 0.6389 0.0000
1.5556 0.7222 0.0000
1.6111 0.6944 0.0000
1.6111 0.7500 0.0000
1.5556 0.8333 0.0000
1.6111 0.8056 0.0000
1.6111 0.8611 0.0000
1.5556 0.9444 0.0000
1.6111 0.9167 0.0000
1.6111 0.9722 0.0000
1.7778 0.0556 0.0000
1.8333 0.0278 0.0000
1.8333 0.0833 0.0000
1.7778 0.1667 0.0000
1.8333 0.1389 0.0000
1.8333 0.1944 0.0000
1.7778 0.2778 0.0000
1.8333 0.2500 0.0000
1.8333 0.3056 0.0000
1.7778 0.3889 0.0000
1.8333 0.3611 0.0000
1.8333 0.4167 0.0000
1.7778 0.5000 0.0000
1.8333 0.4722 0.0000
1.8333 0.5278 0.0000
1.7778 0.6111 0.0000
1.8333 0.5833 0.0000
1.8333 0.6389 0.0000
1.7778 0.7222 0.0000
1.8333 0.6944 0.0000
1.8333 0.7500 0.0000
1.7778 0.8333 0.0000
1.8333 0.8056 0.0000
1.8333 0.8611 0.0000
1.7778 0.9444 0.0000
1.8333 0.9167 0.0000
1.8333 0.9722 0.0000
0.1111 0.1111 0.0000
0.1667 0.0833 0.0000
0.1111 0.2222 0.0000
0.1667 0.1944 0.0000
0.1111 0.3333 0.0000
0.1667 0.3056 0.0000
0.1111 0.4444 0.0000
0.1667 0.4167 0.0000
0.1111 0.5556 0.0000
0.1667 0.5278 0.0000
0.1111 0.6667 0.0000
0.1667 0.6389 0.0000
0.1111 0.7778 0.0000
0.1667 0.7500 0.0000
0.1111 0.8889 0.0000
0.1667 0.8611 0.0000
0.1111 1.0000 0.0000
0.1667 0.9722 0.0000
0.3333 0.1111 0.0000
0.3889 0.0833 0.0000
0.3333 0.2222 0.0000
0.3889 0.1944 0.0000
0.3333 0.3333 0.0000
0.3889 0.3056 0.0000
0.3333 0.4444 0.0000
0.3889 0.4167 0.0000
0.3333 0.5556 0.0000
0.3889 0.5278 0.0000
0.3333 0.6667 0.0000
0.3889 0.6389 0.0000
0.3333 0.7778 0.0000
0.3889 0.7500 0.0000
0.3333 0.8889 0.0000
0.3889 0.8611 0.0000
0.3333 1.0000 0.0000
0.3889 0.9722 0.0000
0.5556 0.1111 0.0000
[...]
         <PointData>
            <DataArray Name="fValues" NumberOfComponents="3" format="ascii" type="Float64">
-1.45884e-21 -1.86732e-20        00000 
-1.51124e-20 -7.93404e-21        00000 
-1.26225e-20  5.68909e-21        00000 
 1.45488e-20 -1.50505e-20        00000 
 1.62986e-20  2.30614e-20        00000 
 3.51178e-21  8.02692e-21        00000 
 4.53272e-21  4.78454e-21        00000 
-6.01475e-21 -3.00737e-21        00000 
-1.61238e-20  6.04643e-21        00000 
       00000  9.33659e-21        00000 
-3.65791e-05  2.95785e-04        00000 
-3.09310e-05  1.71247e-04        00000 
 1.36481e-04 -9.89090e-05        00000 
 2.61168e-06 -2.72061e-05        00000 
-2.03959e-05 -2.22474e-04        00000 
-7.42376e-06  1.12640e-04        00000 
 3.56516e-05  5.43329e-05        00000 
 1.53792e-04  1.13577e-04        00000 
 1.43731e-05 -6.49489e-06        00000 
 5.60232e-05  1.95431e-04        00000 
-1.14572e-05  4.69577e-04        00000 
 1.47881e-04  9.67739e-05        00000 
-2.44427e-05 -9.03186e-05        00000 
-2.91105e-04 -2.02481e-04        00000 
 1.12135e-04 -8.17524e-05        00000 
 7.96309e-05 -9.69022e-05        00000 
 4.00652e-05  1.40040e-04        00000 
 4.37433e-05 -7.74152e-05        00000 
 2.19640e-05  1.05511e-04        00000 
 1.24528e-04  2.09645e-04        00000 
 5.60504e-05  1.82397e-04        00000 
 1.76683e-05  7.20062e-05        00000 
 7.37168e-05  1.18013e-04        00000 
-2.41057e-04 -4.53481e-05        00000 
 1.33428e-04 -4.67991e-05        00000 
 1.90675e-04  8.92919e-05        00000 
-1.44390e-05  2.04186e-04        00000 
-1.06342e-04 -4.98748e-05        00000 
 1.71853e-05 -9.20161e-05        00000 
-9.16408e-05  1.15067e-04        00000 
-2.08568e-04 -9.87071e-05        00000 
 6.18246e-05  2.45176e-04        00000 
-6.87344e-05 -2.69115e-05        00000 
-1.49951e-04 -5.72436e-05        00000 
-4.93657e-05  7.26651e-05        00000 
-1.93387e-04 -8.55625e-05        00000 
-1.13830e-04  1.40197e-04        00000 
-1.20612e-04 -7.04478e-05        00000 
-1.69950e-04 -1.15871e-04        00000 
-2.39560e-04  3.87547e-06        00000 
 1.38631e-04 -3.94452e-04        00000 
-1.24997e-04 -7.53970e-05        00000 
 4.82513e-05  2.32663e-05        00000 
-4.78139e-05 -1.25197e-05        00000 
-6.28699e-05 -3.51379e-05        00000 
-1.80087e-05  3.82463e-05        00000 
-1.38072e-04  8.48738e-05        00000 
-1.12895e-04  6.88318e-05        00000 
-1.91970e-04 -7.49320e-06        00000 
-1.89732e-04  3.44621e-04        00000 
 3.31149e-05 -9.15822e-06        00000 
-1.19742e-04  3.10573e-05        00000 
-5.69562e-05 -1.08270e-04        00000 
 5.78462e-05  1.34670e-04        00000 
 4.56809e-05  1.08780e-04        00000 
-2.69481e-05  2.13135e-05        00000 
-2.28661e-05  2.70397e-05        00000 
-2.07863e-04 -3.71324e-05        00000 
-1.33451e-04  1.21896e-04        00000 
 9.41856e-05  5.18537e-04        00000 
-1.53922e-04 -1.88234e-04        00000 
 5.68193e-09 -1.06429e-07        00000 
-3.99634e-05 -1.73812e-05        00000 
 4.56660e-06 -3.54839e-05        00000 
-5.83258e-05  9.38021e-05        00000 
-6.69276e-05  3.00300e-05        00000 
-7.08665e-05  1.03617e-04        00000 
-2.51834e-05  2.20752e-04        00000 
 2.35567e-05 -6.92808e-06        00000 
-1.48600e-04 -1.46134e-04        00000 
-9.81369e-06 -3.32231e-04        00000 
-5.13650e-05 -4.39065e-05        00000 
-1.62056e-04 -3.23358e-05        00000 
-5.54677e-05 -1.80519e-06        00000 
-1.57933e-04 -6.39724e-05        00000 
-9.44807e-05  3.79223e-05        00000 
-1.71915e-04  7.63007e-05        00000 
-1.09097e-04  1.28903e-04        00000 
-1.98631e-04  2.20463e-04        00000 
-1.05726e-04 -4.95724e-05        00000 
 1.84793e-05  1.02204e-04        00000 
 6.13766e-05  5.84765e-05        00000 
 8.42470e-05  2.81989e-05        00000 
 4.40717e-05  3.73953e-05        00000 
 1.17785e-04 -8.66681e-05        00000 
-1.97141e-05  4.51059e-05        00000 
-4.66687e-05  1.56320e-04        00000 
-4.84934e-05  9.63601e-05        00000 
 8.05742e-05 -3.16827e-05        00000 
-1.68878e-04  1.58573e-05        00000 
 1.96883e-06 -4.24985e-05        00000 
 6.21587e-05 -1.72818e-05        00000 
 1.58378e-04  1.33373e-05        00000 
 2.43481e-05  1.21205e-04        00000 
-5.92283e-06  7.93148e-05        00000 
-2.21938e-05  7.66143e-07        00000 
-3.47487e-05  4.53716e-05        00000 
-7.37297e-05  8.55104e-05        00000 
 1.16113e-04  2.62971e-06        00000 
-9.50401e-05 -1.66899e-04        00000 
 7.34566e-05  6.15212e-05        00000 
 1.03697e-04 -1.31184e-05        00000 
 5.10361e-05 -3.17835e-05        00000 
 2.99691e-05 -4.13092e-05        00000 
-1.52234e-06  7.48210e-05        00000 
 6.42039e-05  9.60947e-05        00000 
-2.13283e-05 -3.02255e-05        00000 
-1.47934e-05 -3.96175e-05        00000 
 1.05290e-04 -4.98372e-05        00000 
-3.03625e-05 -2.96886e-05        00000 
-7.29108e-05 -3.84240e-05        00000 
-1.09521e-05 -6.95266e-05        00000 
-1.97505e-05  5.34127e-05        00000 
 2.22291e-04  3.10774e-05        00000 
 1.20754e-04 -1.51750e-04        00000 
 1.31505e-04 -5.50650e-05        00000 
 1.30937e-04 -1.44904e-04        00000 
-8.16145e-05 -3.24623e-05        00000 
 9.96873e-05  2.11283e-04        00000 
-6.47553e-06  1.30293e-04        00000 
 1.62522e-04  1.67841e-04        00000 
-8.98422e-05  5.54053e-05        00000 
 1.56359e-04  1.87218e-04        00000 
 2.19852e-04  6.99602e-05        00000 
 2.01302e-05 -2.29174e-05        00000 
-2.68859e-05 -4.01298e-05        00000 
-4.70902e-06  1.75704e-04        00000 
 2.86019e-04  2.47678e-04        00000 
 6.20596e-05  9.86562e-05        00000 
 9.56275e-05 -5.46609e-05        00000 
 7.22425e-05  1.50263e-04        00000 
 2.49749e-04  2.71008e-04        00000 
 8.88426e-05  2.10099e-04        00000 
-6.25415e-06  1.04428e-04        00000 
-1.39940e-05  5.02871e-05        00000 
-7.61212e-05  3.97375e-05        00000 
-6.78573e-05 -1.16038e-04        00000 
 4.52850e-05 -1.73564e-05        00000 
 8.74354e-05 -2.35579e-05        00000 
 5.01878e-05  1.10813e-04        00000 
 1.70595e-06  8.85184e-05        00000 
-1.11312e-04  8.60175e-05        00000 
-3.06601e-06 -6.88382e-06        00000 
-1.16219e-04 -1.97546e-04        00000 
 9.84899e-05 -6.28460e-05        00000 
-2.19034e-04 -1.74183e-04        00000 
-4.04952e-05 -1.22588e-05        00000 
 6.67179e-05  1.65249e-05        00000 
-9.39830e-05  6.27441e-05        00000 
-2.47702e-04  4.41204e-05        00000 
-6.20762e-05 -1.92561e-05        00000 
-1.65265e-04  8.65880e-05        00000 
-1.17536e-04 -4.86955e-05        00000 
 9.09434e-06  2.45895e-04        00000 
-1.03534e-05  7.85937e-05        00000 
-3.38892e-05  1.26869e-04        00000 
-1.24743e-04  1.00629e-04        00000 
 1.68565e-05  1.62031e-04        00000 
-1.74549e-04  1.17639e-04        00000 
 2.50373e-05  2.04433e-04        00000 
 8.81110e-05  1.26916e-04        00000 
 4.81683e-07  2.56379e-04        00000 
-4.32812e-05  1.02605e-04        00000 
 2.00467e-05  2.79641e-04        00000 
 4.49514e-05  1.61819e-04        00000 
 2.90542e-05  1.88854e-04        00000 
-5.21784e-05  2.25579e-04        00000 
-1.68569e-04  1.06343e-04        00000 
-2.34565e-06  2.33068e-04        00000 
 3.83234e-05  2.53136e-04        00000 
 7.23214e-05  9.03381e-05        00000 
 8.03517e-21 -5.48017e-22        00000 
 1.70460e-06 -1.09959e-04        00000 
 6.40272e-05  4.11542e-05        00000 
-9.33119e-21 -2.85401e-21        00000 
 8.25204e-05 -4.55636e-05        00000 
-8.20649e-07 -2.58718e-06        00000 
-7.62330e-21 -7.62330e-21        00000 
-2.82022e-05  1.39538e-05        00000 
 1.11963e-04 -9.09321e-05        00000 
 1.11008e-20  3.52258e-20        00000 
 9.07209e-06 -2.34873e-05        00000 
 1.11918e-04  1.57020e-04        00000 
 1.52466e-20 -4.76456e-21        00000 
 1.23993e-04 -8.43467e-06        00000 
 6.66891e-06  9.74977e-05        00000 
-4.56710e-21 -4.60907e-21        00000 
 1.38870e-05 -7.80965e-05        00000 
-1.31806e-04 -2.59911e-05        00000 
 1.90582e-21  9.52912e-21        00000 
 4.16842e-05  4.47539e-05        00000 
 1.86483e-05 -5.35187e-05        00000 
-1.90582e-20  1.33408e-20        00000 
-8.58362e-05 -3.28444e-05        00000 
-7.63205e-05  4.41286e-05        00000 
 4.92217e-21  8.91218e-22        00000 
-5.72075e-05  1.70186e-05        00000 
-4.30290e-05 -1.31593e-04        00000 
-1.62575e-04 -8.28487e-06        00000 
 6.58178e-05 -2.99331e-04        00000 
 6.16151e-06  9.30216e-05        00000 
 8.50132e-06 -1.01773e-04        00000 
 7.47039e-05  1.47048e-04        00000 
-1.26157e-04 -2.90881e-05        00000 
 5.00217e-05 -1.56774e-04        00000 
 6.94214e-05  1.21878e-04        00000 
 2.15352e-04 -5.22627e-05        00000 
 5.20768e-05  9.65732e-05        00000 
 2.44985e-04 -1.30682e-04        00000 
 7.65762e-05 -1.48182e-04        00000 
-4.73014e-05  1.17068e-05        00000 
 5.75402e-05  3.24875e-05        00000 
 9.39362e-05  1.26823e-04        00000 
-2.20787e-05  7.70160e-05        00000 
 1.03471e-04 -5.23155e-05        00000 
 7.43389e-05  1.65346e-05        00000 
 3.70268e-05 -1.43887e-04        00000 
 1.11872e-04  1.63680e-05        00000 
 1.25826e-04  1.16788e-04        00000 
 8.72991e-06  4.82629e-05        00000 
 1.67232e-04  7.88790e-05        00000 
-6.31087e-05 -1.25910e-04        00000 
 7.02144e-05  9.22247e-05        00000 
 2.68680e-05  6.54946e-05        00000 
 5.56116e-05 -1.11621e-04        00000 
 8.50695e-05 -5.98296e-05        00000 
 2.27183e-04 -3.45410e-04        00000 
 1.55447e-04  1.62030e-04        00000 
 1.01983e-05 -1.15692e-04        00000 
-1.04196e-06 -5.17464e-05        00000 
-1.48642e-04 -5.10192e-05        00000 
-1.69424e-04  3.68088e-05        00000 
-3.37103e-06 -1.26249e-05        00000 
 3.62514e-05 -3.98896e-05        00000 
 7.18072e-05  5.85747e-05        00000 
 5.36664e-05 -9.29182e-05        00000 
-3.58758e-05 -7.45614e-05        00000 
 2.04932e-05  7.44467e-05        00000 
-2.44222e-04 -1.40080e-04        00000 
-2.90422e-05 -2.86373e-05        00000 
-9.77781e-06 -3.36912e-05        00000 
-2.07423e-05 -8.78057e-05        00000 
 2.18031e-05  1.12548e-04        00000 
-3.57956e-05 -1.48110e-04        00000 
-9.81847e-05 -2.29684e-04        00000 
-1.36675e-04 -7.65274e-05        00000 
-1.20645e-05 -9.41085e-05        00000 
 2.32882e-05  3.17646e-05        00000 
 7.49310e-05  1.06054e-04        00000 
-6.69562e-05  2.83836e-04        00000 
 1.71685e-04  6.62796e-05        00000 
 1.70312e-04 -1.95615e-04        00000 
-4.24523e-05 -5.91346e-06        00000 
-2.98380e-05  1.67745e-05        00000 
 1.23418e-04 -6.84357e-06        00000 
 1.65660e-05 -3.68139e-05        00000 
 4.36528e-05  8.83570e-05        00000 
 2.06099e-04  1.30140e-04        00000 
-1.43415e-04 -4.12237e-05        00000 
 8.23314e-05  1.16075e-04        00000 
 8.58800e-05  1.08584e-04        00000 
 7.32999e-05  1.20603e-04        00000 
 8.50733e-05  1.74500e-04        00000 
 5.62663e-05  2.68152e-05        00000 
-8.98336e-05  7.68466e-05        00000 
 6.34411e-05  2.29274e-04        00000 
-4.95645e-06  5.35971e-05        00000 
-1.25348e-04  9.42475e-05        00000 
-1.38538e-05 -2.59914e-05        00000 
 3.10176e-05  1.25479e-04        00000 
-1.39857e-04 -3.51578e-05        00000 
 1.69558e-05  1.22800e-04        00000 
-8.30850e-05 -3.47777e-05        00000 
-6.45552e-05 -1.69877e-06        00000 
-9.64301e-06  1.03607e-04        00000 
-1.28738e-05  4.16495e-05        00000 
-1.35767e-04  7.13587e-05        00000 
 2.19308e-04  1.76429e-05        00000 
 2.35557e-04  4.46877e-05        00000 
-3.18473e-04 -1.99678e-04        00000 
 1.32229e-05 -5.23948e-05        00000 
-1.24254e-04  1.20152e-04        00000 
 8.60579e-05  9.63580e-05        00000 
 2.85240e-05  6.74092e-05        00000 
-1.43892e-04  1.10757e-04        00000 
 1.89530e-05  4.06363e-05        00000 
 2.38914e-05  1.47980e-04        00000 
 2.88977e-06 -1.08459e-05        00000 
 2.28407e-05  8.04293e-05        00000 
 1.18530e-04 -2.58006e-06        00000 
-2.06257e-04 -1.14460e-04        00000 
-1.69956e-04  1.59857e-05        00000 
-2.92905e-05  7.17694e-05        00000 
-1.06552e-04 -5.05977e-05        00000 
-5.68826e-05 -2.67389e-05        00000 
 9.80570e-06 -2.49257e-05        00000 
 2.25172e-04  1.27384e-04        00000 
-2.73533e-05 -1.30387e-05        00000 
 7.83345e-05  7.76770e-05        00000 
 1.73477e-04  1.97429e-04        00000 
-8.45550e-05  5.33947e-05        00000 
 3.72008e-05  3.89412e-05        00000 
 7.76501e-05 -7.89911e-05        00000 
 3.15214e-06  1.03628e-04        00000 
 1.32903e-04  3.40038e-05        00000 
 7.77241e-05  1.26594e-04        00000 
-8.77235e-05  9.93612e-05        00000 
 1.21032e-04  3.71628e-04        00000 
-6.26343e-05 -1.93180e-04        00000 
 7.35008e-05 -3.39345e-05        00000 
-9.13114e-06  8.50969e-05        00000 
-3.10078e-06  8.15160e-06        00000 
 8.62446e-05  4.20345e-05        00000 
-2.45367e-05  1.35892e-04        00000 
-7.05028e-06  9.86311e-07        00000 
 1.82112e-05  2.49971e-05        00000 
 3.31547e-05  4.61308e-05        00000 
 2.12026e-05 -1.54266e-04        00000 
-6.33479e-05 -3.58613e-05        00000 
 2.73581e-05  2.00880e-05        00000 
 3.52131e-05 -2.13500e-05        00000 
 5.87924e-05  9.39487e-05        00000 
 6.34275e-05 -1.61588e-05        00000 
 9.31491e-05  7.76692e-05        00000 
-4.19742e-05  9.04581e-05        00000 
-8.69577e-05 -2.36947e-06        00000 
-1.23957e-04 -1.64953e-05        00000 
-5.95966e-05  7.53934e-05        00000 
-9.43983e-05 -2.28197e-05        00000 
 5.71281e-05  3.68744e-05        00000 
-6.35279e-05  1.26314e-04        00000 
 1.28954e-06  1.78017e-04        00000 
 7.39146e-06 -3.45330e-04        00000 
-1.28628e-04  7.05238e-05        00000 
 8.21055e-05  1.45365e-04        00000 
-3.82481e-05  7.44440e-05        00000 
-1.43550e-04  1.60093e-04        00000 
-3.02870e-05 -8.32886e-05        00000 
-1.41676e-05  1.13432e-04        00000 
-1.95120e-04  8.92423e-05        00000 
 1.70947e-05 -9.49231e-05        00000 
-1.67268e-05  1.63588e-04        00000 
-1.88312e-04 -1.80091e-04        00000 
 1.31538e-04  5.61018e-05        00000 
 6.53012e-05  1.32072e-04        00000 
-1.06319e-04  4.44911e-05        00000 
 2.01801e-04  1.07180e-04        00000 
 2.89036e-05 -1.24713e-04        00000 
-1.19555e-04  5.76010e-05        00000 
-8.77138e-06  2.66973e-04        00000 
 1.10780e-04  3.67159e-05        00000 
-1.60510e-04  1.61417e-04        00000 
 7.11962e-05  2.77990e-04        00000 
-1.71898e-04  2.54876e-05        00000 
-2.84526e-04  1.14135e-04        00000 
 2.24758e-05  5.96729e-05        00000 
 4.88762e-05  1.60210e-04        00000 
-1.12002e-04 -2.57124e-05        00000 
 1.48128e-04  1.21727e-04        00000 
 1.09134e-05 -2.22696e-04        00000 
 1.47258e-04  1.31788e-04        00000 
-4.66391e-05  4.77036e-04        00000 
 1.45182e-05 -1.34013e-04        00000 
 1.47480e-04  6.48667e-05        00000 
-1.17685e-05  2.34275e-04        00000 
 1.82221e-05 -1.48421e-06        00000 
 1.20239e-04  1.46378e-04        00000 
-1.45519e-04 -6.06582e-05        00000 
 4.70534e-05  1.13827e-04        00000 
 4.37570e-05  3.62148e-05        00000 
 5.34998e-05  1.13016e-05        00000 
-8.37527e-05  1.58653e-04        00000 
-6.72976e-05 -1.94989e-05        00000 
-6.09304e-05 -4.77979e-05        00000 
 3.55188e-05  1.54923e-04        00000 
-8.19151e-05 -8.84470e-05        00000 
-1.26354e-05 -5.80977e-05        00000 
 1.00638e-04 -4.49795e-05        00000 
 1.20238e-04  1.56870e-04        00000 
 1.32410e-04  1.04498e-04        00000 
 2.26517e-04 -5.15426e-06        00000 
-1.02062e-04 -9.14389e-05        00000 
 3.80676e-05 -4.03348e-05        00000 
 5.70302e-06  1.23337e-04        00000 
-1.26036e-04  7.69454e-05        00000 
-3.32942e-05 -1.33421e-05        00000 
 8.94824e-05  2.58803e-04        00000 
-5.92853e-05  1.11576e-06        00000 
 1.92344e-05  2.98049e-04        00000 
 2.30738e-04 -1.24223e-04        00000 
-1.77239e-04  6.24050e-06        00000 
 1.44064e-04  4.54936e-05        00000 
 1.32076e-04 -6.97960e-05        00000 
-1.32181e-04  6.79836e-05        00000 
 7.90895e-05  8.18354e-05        00000 
 6.05874e-05 -1.72136e-05        00000 
-3.40517e-05  4.65699e-05        00000 
-5.36721e-05 -7.89901e-05        00000 
 5.89757e-05  1.39659e-05        00000 
-4.60589e-06  1.27490e-04        00000 
-6.99203e-05  8.92066e-06        00000 
 3.11920e-05  2.78846e-05        00000 
-2.26222e-05  5.34731e-05        00000 
-2.99352e-05 -3.02963e-05        00000 
 6.80539e-05  3.29730e-05        00000 
-2.00439e-05  2.23444e-04        00000 
-7.20826e-05 -4.02093e-05        00000 
 1.45278e-04  1.38676e-04        00000 
-8.62871e-05  1.98458e-04        00000 
-3.16355e-05  6.37111e-06        00000 
 2.73926e-04  8.83002e-05        00000 
-2.75047e-05 -3.03841e-05        00000 
 1.06261e-06  2.38645e-05        00000 
-1.64868e-05  5.46503e-05        00000 
-1.69413e-04 -1.81124e-05        00000 
-6.27428e-05 -9.09159e-05        00000 
 1.03545e-04 -5.90247e-05        00000 
 1.69303e-04 -4.64593e-05        00000 
 4.44393e-05  5.25884e-05        00000 
 3.40212e-05 -4.50468e-05        00000 
 3.60312e-05  3.08743e-05        00000 
 1.02774e-04  2.04756e-05        00000 
 6.69430e-05  1.17808e-04        00000 
 1.40552e-04  8.02999e-05        00000 
 8.85141e-05  1.58137e-04        00000 
 7.92552e-05  6.78852e-05        00000 
 1.14762e-04 -5.94821e-05        00000 
-3.85315e-05 -2.11310e-05        00000 
 4.53516e-05  4.96349e-05        00000 
 1.58372e-04  3.22241e-05        00000 
 1.71199e-04  1.15760e-04        00000 
 4.26904e-05 -3.12401e-05        00000 
 9.77490e-05  1.15660e-04        00000 
 1.46135e-04  8.94975e-05        00000 
 2.33300e-05  1.66404e-04        00000 
 6.29391e-05 -6.02480e-05        00000 
 7.95605e-05  2.68106e-04        00000 
 8.75208e-05  4.55404e-05        00000 
 8.97630e-05  1.64552e-04        00000 
 1.27964e-04  3.25629e-06        00000 
 8.59807e-05  1.75706e-04        00000 
 6.46632e-05  4.81130e-05        00000 
 1.93377e-05  7.83897e-05        00000 
-6.24941e-05 -1.02251e-05        00000 
 1.22510e-04  1.68150e-04        00000 
 4.56538e-06  2.35156e-05        00000 
-1.89506e-07 -7.99707e-05        00000 
 4.79791e-05 -7.06623e-05        00000 
-4.96521e-06  9.28690e-05        00000 
 2.18479e-04 -7.59608e-05        00000 
 3.02041e-05  1.04780e-04        00000 
 1.19971e-05  2.62870e-05        00000 
 7.37295e-05 -1.48914e-05        00000 
-3.61976e-05  1.36409e-04        00000 
-2.38137e-05  2.11235e-04        00000 
 9.52350e-05  1.06502e-04        00000 
-7.81496e-05 -9.54797e-05        00000 
 1.32878e-04 -1.10289e-04        00000 
 1.00719e-04 -4.77629e-05        00000 
 2.07386e-04  1.38160e-04        00000 
 4.21440e-05 -3.80968e-05        00000 
 8.74937e-05  3.30312e-05        00000 
 1.62218e-04 -2.57002e-05        00000 
 8.22310e-06 -4.84864e-05        00000 
 7.84766e-05 -1.52999e-06        00000 
 1.19319e-04 -1.24434e-04        00000 
 1.89805e-04  8.97834e-05        00000 
 2.02122e-05 -1.05403e-05        00000 
 2.46712e-05  7.16317e-05        00000 
 2.95013e-05 -2.56882e-04        00000 
 1.43757e-04  7.36120e-05        00000 
-1.34705e-04  1.59938e-04        00000 
 8.12636e-05  6.58223e-05        00000 
-7.21472e-05  1.02379e-05        00000 
 7.29654e-05 -1.86951e-04        00000 
-1.47564e-04 -1.62782e-04        00000 
 1.00752e-04 -9.14076e-05        00000 
 1.23339e-05 -3.83904e-05        00000 
 9.04084e-05 -2.86407e-05        00000 
-1.93658e-04 -6.33199e-05        00000 
-1.64594e-05 -1.95915e-04        00000 
-9.98923e-05 -6.02966e-05        00000 
-1.80555e-04 -2.36795e-06        00000 
-1.34806e-05 -1.53248e-04        00000 
 1.02397e-04 -1.89374e-04        00000 
 6.22431e-05  3.50514e-05        00000 
-8.02539e-05  3.64807e-05        00000 