<?xml version="1.0" encoding="utf-8"?>
<VTKFile byte_order="LittleEndian" type="UnstructuredGrid" version="0.1">
   <UnstructuredGrid>
      <Piece NumberOfCells="1296" NumberOfPoints="685">
         <Points>
            <DataArray Name="Points" NumberOfComponents="3" format="ascii" type="Float32">
0.0000 0.0000 0.0000
0.0000 0.1111 0.0000
0.0000 0.2222 0.0000
0.0000 0.3333 0.0000
0.0000 0.4444 0.0000
0.0000 0.5556 0.0000
0.0000 0.6667 0.0000
0.0000 0.7778 0.0000
0.0000 0.8889 0.0000
0.0000 1.0000 0.0000
0.2222 0.0000 0.0000
0.2222 0.1111 0.0000
0.2222 0.2222 0.0000
0.2222 0.3333 0.0000
0.2222 0.4444 0.0000
0.2222 0.5556 0.0000
0.2222 0.6667 0.0000
0.2222 0.7778 0.0000
0.2222 0.8889 0.0000
0.2222 1.0000 0.0000
0.4444 0.0000 0.0000
0.4444 0.1111 0.0000
0.4444 0.2222 0.0000
0.4444 0.3333 0.0000
0.4444 0.4444 0.0000
0.4444 0.5556 0.0000
0.4444 0.6667 0.0000
0.4444 0.7778 0.0000
0.4444 0.8889 0.0000
0.4444 1.0000 0.0000
0.6667 0.0000 0.0000
0.6667 0.1111 0.0000
0.6667 0.2222 0.0000
0.6667 0.3333 0.0000
0.6667 0.4444 0.0000
0.6667 0.5556 0.0000
0.6667 0.6667 0.0000
0.6667 0.7778 0.0000
0.6667 0.8889 0.0000
0.6667 1.0000 0.0000
0.8889 0.0000 0.0000
0.8889 0.1111 0.0000
0.8889 0.2222 0.0000
0.8889 0.3333 0.0000
0.8889 0.4444 0.0000
0.8889 0.5556 0.0000
0.8889 0.6667 0.0000
0.8889 0.7778 0.0000
0.8889 0.8889 0.0000
0.8889 1.0000 0.0000
1.1111 0.0000 0.0000
1.1111 0.1111 0.0000
1.1111 0.2222 0.0000
1.1111 0.3333 0.0000
1.1111 0.4444 0.0000
1.1111 0.5556 0.0000
1.1111 0.6667 0.0000
1.1111 0.7778 0.0000
1.1111 0.8889 0.0000
1.1111 1.0000 0.0000
1.3333 0.0000 0.0000
1.3333 0.1111 0.0000
1.3333 0.2222 0.0000
1.3333 0.3333 0.0000
1.3333 0.4444 0.0000
1.3333 0.5556 0.0000
1.3333 0.6667 0.0000
1.3333 0.7778 0.0000
1.3333 0.8889 0.0000
1.3333 1.0000 0.0000
1.5556 0.0000 0.0000
1.5556 0.1111 0.0000
1.5556 0.2222 0.0000
1.5556 0.3333 0.0000
1.5556 0.4444 0.0000
1.5556 0.5556 0.0000
1.5556 0.6667 0.0000
1.5556 0.7778 0.0000
1.5556 0.8889 0.0000
1.5556 1.0000 0.0000
1.7778 0.0000 0.0000
1.7778 0.1111 0.0000
1.7778 0.2222 0.0000
1.7778 0.3333 0.0000
1.7778 0.4444 0.0000
1.7778 0.5556 0.0000
1.7778 0.6667 0.0000
1.7778 0.7778 0.0000
1.7778 0.8889 0.0000
1.7778 1.0000 0.0000
2.0000 0.0000 0.0000
2.0000 0.1111 0.0000
2.0000 0.2222 0.0000
2.0000 0.3333 0.0000
2.0000 0.4444 0.0000
2.0000 0.5556 0.0000
2.0000 0.6667 0.0000
2.0000 0.7778 0.0000
2.0000 0.8889 0.0000
2.0000 1.0000 0.0000
0.1111 0.0556 0.0000
0.1111 0.1667 0.0000
0.1111 0.2778 0.0000
0.1111 0.3889 0.0000
0.1111 0.5000 0.0000
0.1111 0.6111 0.0000
0.1111 0.7222 0.0000
0.1111 0.8333 0.0000
0.1111 0.9444 0.0000
0.3333 0.0556 0.0000
0.3333 0.1667 0.0000
0.3333 0.2778 0.0000
0.3333 0.3889 0.0000
0.3333 0.5000 0.0000
0.3333 0.6111 0.0000
0.3333 0.7222 0.0000
0.3333 0.8333 0.0000
0.3333 0.9444 0.0000
0.5556 0.0556 0.0000
0.5556 0.1667 0.0000
0.5556 0.2778 0.0000
0.5556 0.3889 0.0000
0.5556 0.5000 0.0000
0.5556 0.6111 0.0000
0.5556 0.7222 0.0000
0.5556 0.8333 0.0000
0.5556 0.9444 0.0000
0.7778 0.0556 0.0000
0.7778 0.1667 0.0000
0.7778 0.2778 0.0000
0.7778 0.3889 0.0000
0.7778 0.5000 0.0000
0.7778 0.6111 0.0000
0.7778 0.7222 0.0000
0.7778 0.8333 0.0000
0.7778 0.9444 0.0000
1.0000 0.0556 0.0000
1.0000 0.1667 0.0000
1.0000 0.2778 0.0000
1.0000 0.3889 0.0000
1.0000 0.5000 0.0000
1.0000 0.6111 0.0000
1.0000 0.7222 0.0000
1.0000 0.8333 0.0000
1.0000 0.9444 0.0000
1.2222 0.0556 0.0000
1.2222 0.1667 0.0000
1.2222 0.2778 0.0000
1.2222 0.3889 0.0000
1.2222 0.5000 0.0000
1.2222 0.6111 0.0000
1.2222 0.7222 0.0000
1.2222 0.8333 0.0000
1.2222 0.9444 0.0000
1.4444 0.0556 0.0000
1.4444 0.1667 0.0000
1.4444 0.2778 0.0000
1.4444 0.3889 0.0000
1.4444 0.5000 0.0000
1.4444 0.6111 0.0000
1.4444 0.7222 0.0000
1.4444 0.8333 0.0000
1.4444 0.9444 0.0000
1.6667 0.0556 0.0000
1.6667 0.1667 0.0000
1.6667 0.2778 0.0000
1.6667 0.3889 0.0000
1.6667 0.5000 0.0000
1.6667 0.6111 0.0000
1.6667 0.7222 0.0000
1.6667 0.8333 0.0000
1.6667 0.9444 0.0000
1.8889 0.0556 0.0000
1.8889 0.1667 0.0000
1.8889 0.2778 0.0000
1.8889 0.3889 0.0000
1.8889 0.5000 0.0000
1.8889 0.6111 0.0000
1.8889 0.7222 0.0000
1.8889 0.8333 0.0000
1.8889 0.9444 0.0000
0.0000 0.0556 0.0000
0.0556 0.0278 0.0000
0.0556 0.0833 0.0000
0.0000 0.1667 0.0000
0.0556 0.1389 0.0000
0.0556 0.1944 0.0000
0.0000 0.2778 0.0000
0.0556 0.2500 0.0000
0.0556 0.3056 0.0000
0.0000 0.3889 0.0000
0.0556 0.3611 0.0000
0.0556 0.4167 0.0000
0.0000 0.5000 0.0000
0.0556 0.4722 0.0000
0.0556 0.5278 0.0000
0.0000 0.6111 0.0000
0.0556 0.5833 0.0000
0.0556 0.6389 0.0000
0.0000 0.7222 0.0000
0.0556 0.6944 0.0000
0.0556 0.7500 0.0000
0.0000 0.8333 0.0000
0.0556 0.8056 0.0000
0.0556 0.8611 0.0000
0.0000 0.9444 0.0000
0.0556 0.9167 0.0000
0.0556 0.9722 0.0000
0.2222 0.0556 0.0000
0.2778 0.0278 0.0000
0.2778 0.0833 0.0000
0.2222 0.1667 0.0000
0.2778 0.1389 0.0000
0.2778 0.1944 0.0000
0.2222 0.2778 0.0000
0.2778 0.2500 0.0000
0.2778 0.3056 0.0000
0.2222 0.3889 0.0000
0.2778 0.3611 0.0000
0.2778 0.4167 0.0000
0.2222 0.5000 0.0000
0.2778 0.4722 0.0000
0.2778 0.5278 0.0000
0.2222 0.6111 0.0000
0.2778 0.5833 0.0000
0.2778 0.6389 0.0000
0.2222 0.7222 0.0000
0.2778 0.6944 0.0000
0.2778 0.7500 0.0000
0.2222 0.8333 0.0000
0.2778 0.8056 0.0000
0.2778 0.8611 0.0000
0.2222 0.9444 0.0000
0.2778 0.9167 0.0000
0.2778 0.9722 0.0000
0.4444 0.0556 0.0000
0.5000 0.0278 0.0000
0.5000 0.0833 0.0000
0.4444 0.1667 0.0000
0.5000 0.1389 0.0000
0.5000 0.1944 0.0000
0.4444 0.2778 0.0000
0.5000 0.2500 0.0000
0.5000 0.3056 0.0000
0.4444 0.3889 0.0000
0.5000 0.3611 0.0000
0.5000 0.4167 0.0000
0.4444 0.5000 0.0000
0.5000 0.4722 0.0000
0.5000 0.5278 0.0000
0.4444 0.6111 0.0000
0.5000 0.5833 0.0000
0.5000 0.6389 0.0000
0.4444 0.7222 0.0000
0.5000 0.6944 0.0000
0.5000 0.7500 0.0000
0.4444 0.8333 0.0000
0.5000 0.8056 0.0000
0.5000 0.8611 0.0000
0.4444 0.9444 0.0000
0.5000 0.9167 0.0000
0.5000 0.9722 0.0000
0.6667 0.0556 0.0000
0.7222 0.0278 0.0000
0.7222 0.0833 0.0000
0.6667 0.1667 0.0000
0.7222 0.1389 0.0000
0.7222 0.1944 0.0000
0.6667 0.2778 0.0000
0.7222 0.2500 0.0000
0.7222 0.3056 0.0000
0.6667 0.3889 0.0000
0.7222 0.3611 0.0000
0.7222 0.4167 0.0000
0.6667 0.5000 0.0000
0.7222 0.4722 0.0000
0.7222 0.5278 0.0000
0.6667 0.6111 0.0000
0.7222 0.5833 0.0000
0.7222 0.6389 0.0000
0.6667 0.7222 0.0000
0.7222 0.6944 0.0000
0.7222 0.7500 0.0000
0.6667 0.8333 0.0000
0.7222 0.8056 0.0000
0.7222 0.8611 0.0000
0.6667 0.9444 0.0000
0.7222 0.9167 0.0000
0.7222 0.9722 0.0000
0.8889 0.0556 0.0000
0.9444 0.0278 0.0000
0.9444 0.0833 0.0000
0.8889 0.1667 0.0000
0.9444 0.1389 0.0000
0.9444 0.1944 0.0000
0.8889 0.2778 0.0000
0.9444 0.2500 0.0000
0.9444 0.3056 0.0000
0.8889 0.3889 0.0000
0.9444 0.3611 0.0000
0.9444 0.4167 0.0000
0.8889 0.5000 0.0000
0.9444 0.4722 0.0000
0.9444 0.5278 0.0000
0.8889 0.6111 0.0000
0.9444 0.5833 0.0000
0.9444 0.6389 0.0000
0.8889 0.7222 0.0000
0.9444 0.6944 0.0000
0.9444 0.7500 0.0000
0.8889 0.8333 0.0000
0.9444 0.8056 0.0000
0.9444 0.8611 0.0000
0.8889 0.9444 0.0000
0.9444 0.9167 0.0000
0.9444 0.9722 0.0000
1.1111 0.0556 0.0000
1.1667 0.0278 0.0000
1.1667 0.0833 0.0000
1.1111 0.1667 0.0000
1.1667 0.1389 0.0000
1.1667 0.1944 0.0000
1.1111 0.2778 0.0000
1.1667 0.2500 0.0000
1.1667 0.3056 0.0000
1.1111 0.3889 0.0000
1.1667 0.3611 0.0000
1.1667 0.4167 0.0000
1.1111 0.5000 0.0000
1.1667 0.4722 0.0000
1.1667 0.5278 0.0000
1.1111 0.6111 0.0000
1.1667 0.5833 0.0000
1.1667 0.6389 0.0000
1.1111 0.7222 0.0000
1.1667 0.6944 0.0000
1.1667 0.7500 0.0000
1.1111 0.8333 0.0000
1.1667 0.8056 0.0000
1.1667 0.8611 0.0000
1.1111 0.9444 0.0000
1.1667 0.9167 0.0000
1.1667 0.9722 0.0000
1.3333 0.0556 0.0000
1.3889 0.0278 0.0000
1.3889 0.0833 0.0000
1.3333 0.1667 0.0000
1.3889 0.1389 0.0000
1.3889 0.1944 0.0000
1.3333 0.2778 0.0000
1.3889 0.2500 0.0000
1.3889 0.3056 0.0000
1.3333 0.3889 0.0000
1.3889 0.3611 0.0000
1.3889 0.4167 0.0000
1.3333 0.5000 0.0000
1.3889 0.4722 0.0000
1.3889 0.5278 0.0000
1.3333 0.6111 0.0000
1.3889 0.5833 0.0000
1.3889 0.6389 0.0000
1.3333 0.7222 0.0000
1.3889 0.6944 0.0000
1.3889 0.7500 0.0000
1.3333 0.8333 0.0000
1.3889 0.8056 0.0000
1.3889 0.8611 0.0000
1.3333 0.9444 0.0000
1.3889 0.9167 0.0000
1.3889 0.9722 0.0000
1.5556 0.0556 0.0000
1.6111 0.0278 0.0000
1.6111 0.0833 0.0000
1.5556 0.1667 0.0000
1.6111 0.1389 0.0000
1.6111 0.1944 0.0000
1.5556 0.2778 0.0000
1.6111 0.2500 0.0000
1.6111 0.3056 0.0000
1.5556 0.3889 0.0000
1.6111 0.3611 0.0000
1.6111 0.4167 0.0000
1.5556 0.5000 0.0000
1.6111 0.4722 0.0000
1.6111 0.5278 0.0000
1.5556 0.6111 0.0000
1.6111 0.5833 0.0000
1.6111 0.6389 0.0000
1.5556 0.7222 0.0000
1.6111 0.6944 0.0000
1.6111 0.7500 0.0000
1.5556 0.8333 0.0000
1.6111 0.8056 0.0000
1.6111 0.8611 0.0000
1.5556 0.9444 0.0000
1.6111 0.9167 0.0000
1.6111 0.9722 0.0000
1.7778 0.0556 0.0000
1.8333 0.0278 0.0000
1.8333 0.0833 0.0000
1.7778 0.1667 0.0000
1.8333 0.1389 0.0000
1.8333 0.1944 0.0000
1.7778 0.2778 0.0000
1.8333 0.2500 0.0000
1.8333 0.3056 0.0000
1.7778 0.3889 0.0000
1.8333 0.3611 0.0000
1.8333 0.4167 0.0000
1.7778 0.5000 0.0000
1.8333 0.4722 0.0000
1.8333 0.5278 0.0000
1.7778 0.6111 0.0000
1.8333 0.5833 0.0000
1.8333 0.6389 0.0000
1.7778 0.7222 0.0000
1.8333 0.6944 0.0000
1.8333 0.7500 0.0000
1.7778 0.8333 0.0000
1.8333 0.8056 0.0000
1.8333 0.8611 0.0000
1.7778 0.9444 0.0000
1.8333 0.9167 0.0000
1.8333 0.9722 0.0000
0.1111 0.1111 0.0000
0.1667 0.0833 0.0000
0.1111 0.2222 0.0000
0.1667 0.1944 0.0000
0.1111 0.3333 0.0000
0.1667 0.3056 0.0000
0.1111 0.4444 0.0000
0.1667 0.4167 0.0000
0.1111 0.5556 0.0000
0.1667 0.5278 0.0000
0.1111 0.6667 0.0000
0.1667 0.6389 0.0000
0.1111 0.7778 0.0000
0.1667 0.7500 0.0000
0.1111 0.8889 0.0000
0.1667 0.8611 0.0000
0.1111 1.0000 0.0000
0.1667 0.9722 0.0000
0.3333 0.1111 0.0000
0.3889 0.0833 0.0000
0.3333 0.2222 0.0000
0.3889 0.1944 0.0000
0.3333 0.3333 0.0000
0.3889 0.3056 0.0000
0.3333 0.4444 0.0000
0.3889 0.4167 0.0000
0.3333 0.5556 0.0000
0.3889 0.5278 0.0000
0.3333 0.6667 0.0000
0.3889 0.6389 0.0000
0.3333 0.7778 0.0000
0.3889 0.7500 0.0000
0.3333 0.8889 0.0000
0.3889 0.8611 0.0000
0.3333 1.0000 0.0000
0.3889 0.9722 0.0000
0.5556 0.1111 0.0000
[...]
         <PointData>
            <DataArray Name="fValues" NumberOfComponents="3" format="ascii" type="Float64">
-7.29421e-22 -6.56479e-22        00000 
 3.01068e-22        00000        00000 
-2.28367e-22 -3.70354e-22        00000 
 1.31692e-21 -1.00337e-21        00000 
-1.00176e-21 -6.55501e-22        00000 
-1.25421e-22 -1.00337e-21        00000 
-8.98085e-22 -3.96417e-22        00000 
 6.38283e-22  9.39804e-23        00000 
-2.51934e-22 -7.55803e-22        00000 
 7.29421e-23 -5.83537e-22        00000 
 1.46452e-07  1.28236e-05        00000 
-6.01973e-07  9.86118e-07        00000 
 1.26918e-06  3.21839e-06        00000 
-9.17646e-06 -6.15363e-06        00000 
-5.08947e-06 -2.83975e-06        00000 
-3.57619e-06  3.23025e-06        00000 
-1.65260e-06  1.36922e-06        00000 
-5.93611e-06  6.85438e-06        00000 
-2.56371e-06  1.64980e-06        00000 
-4.04034e-06 -2.98722e-05        00000 
 1.45573e-06  1.49983e-05        00000 
-2.73204e-06  5.71812e-06        00000 
 4.12449e-07 -4.59752e-06        00000 
 1.31242e-07 -8.11159e-06        00000 
-1.48889e-05 -9.19363e-06        00000 
 8.90869e-06  3.78960e-06        00000 
 3.16461e-06 -1.48179e-06        00000 
-2.82925e-06 -7.96179e-06        00000 
 3.59525e-07 -2.69606e-06        00000 
 2.16944e-07 -6.57857e-06        00000 
 1.02014e-06  1.61405e-05        00000 
 1.34143e-06  6.05475e-06        00000 
 2.07591e-06  3.52874e-06        00000 
-6.19318e-06 -1.30628e-06        00000 
-3.14957e-06  1.91931e-07        00000 
 4.24060e-06  4.89006e-06        00000 
-1.26216e-06 -1.80943e-08        00000 
-7.09674e-06 -6.32172e-06        00000 
-5.06372e-06 -3.24900e-06        00000 
-2.18451e-06 -4.14165e-06        00000 
 1.77573e-06  1.08493e-05        00000 
 2.33003e-07  5.13112e-06        00000 
 1.59125e-06 -2.78425e-06        00000 
-1.29576e-06 -1.98232e-06        00000 
-9.28194e-06 -2.99330e-06        00000 
 1.93941e-06  4.73382e-06        00000 
 1.46637e-06  4.09124e-06        00000 
-7.45776e-07 -1.44587e-07        00000 
 2.36093e-06  6.69432e-06        00000 
-4.67537e-06 -1.79991e-05        00000 
 9.53198e-06  6.46322e-06        00000 
 3.58723e-06  3.28537e-07        00000 
 2.14801e-06  2.83210e-06        00000 
-1.40117e-06  8.60026e-06        00000 
-6.58485e-07  3.08668e-07        00000 
 1.71140e-06  1.65957e-06        00000 
 1.95308e-06 -4.01178e-06        00000 
-5.01114e-07  1.23912e-07        00000 
-5.08724e-06 -1.09124e-06        00000 
-2.97718e-06 -2.82878e-06        00000 
-3.82377e-07 -8.03432e-06        00000 
 2.62932e-06 -4.85643e-06        00000 
 7.01481e-06 -2.24062e-06        00000 
-9.05206e-07  4.80507e-06        00000 
 2.78663e-06  3.70657e-06        00000 
-3.32994e-06 -2.91941e-08        00000 
-9.36518e-06 -3.99412e-06        00000 
-7.42510e-06 -9.26483e-06        00000 
 3.57636e-06 -9.83359e-07        00000 
 6.44283e-06 -9.97357e-06        00000 
 3.55960e-07 -1.02096e-05        00000 
 3.34595e-06 -4.82168e-06        00000 
 4.71099e-06  2.34917e-07        00000 
 4.43153e-06  1.57850e-06        00000 
 1.18793e-06  1.19989e-06        00000 
 4.56182e-07 -3.30825e-06        00000 
-2.21016e-06  7.72051e-07        00000 
 7.49639e-06  1.78894e-07        00000 
 5.58293e-06 -2.60194e-06        00000 
 2.32113e-06 -8.34628e-06        00000 
-5.88533e-06  8.23746e-06        00000 
-9.95691e-06  1.10375e-05        00000 
-7.09140e-06  6.09831e-07        00000 
-8.31943e-06 -1.60264e-06        00000 
-7.69099e-06 -6.17186e-06        00000 
-2.35039e-06 -1.99441e-06        00000 
-1.24091e-06  2.79318e-06        00000 
-3.03344e-06  8.04762e-06        00000 
 6.55034e-07  4.87037e-06        00000 
-5.50395e-06  1.54716e-05        00000 
-3.49547e-06  2.80259e-06        00000 
 4.72669e-06  2.76631e-06        00000 
 3.71963e-06 -2.51705e-06        00000 
-1.31249e-06  3.60950e-07        00000 
-3.55996e-06  2.84080e-06        00000 
 2.75716e-06  1.16713e-06        00000 
-6.77431e-06  3.55032e-06        00000 
 6.48431e-06 -1.13784e-06        00000 
-3.32866e-06  1.44589e-06        00000 
-2.44970e-06 -1.85668e-06        00000 
 4.82845e-06  2.80540e-06        00000 
-6.78316e-07  8.39348e-06        00000 
-2.11987e-06  8.52994e-06        00000 
 3.53993e-06  5.66813e-06        00000 
 8.72548e-06 -1.85330e-06        00000 
 4.09893e-06  3.98257e-06        00000 
 1.22977e-06 -1.32372e-06        00000 
-2.11878e-06 -2.88087e-06        00000 
-3.83310e-06  1.24450e-06        00000 
-1.83793e-06  2.43067e-06        00000 
-9.74726e-06  4.30782e-06        00000 
-1.26815e-06  6.55450e-06        00000 
-5.90670e-06  6.88537e-06        00000 
-1.46326e-06  5.84416e-06        00000 
-1.05138e-06 -1.09966e-06        00000 
-3.09642e-06 -5.69114e-07        00000 
-6.07886e-07  9.54642e-07        00000 
-7.13229e-06  7.29021e-06        00000 
 3.92540e-06 -2.79019e-06        00000 
 2.78682e-06  5.68911e-06        00000 
 3.80951e-06  5.92117e-06        00000 
 5.20567e-06  8.90996e-06        00000 
 3.04682e-06  2.71366e-06        00000 
 5.08797e-06  6.34051e-06        00000 
 5.37272e-07  7.83503e-06        00000 
-5.85441e-06  3.42666e-06        00000 
-1.59384e-06 -2.87016e-07        00000 
 2.82099e-06 -5.40155e-06        00000 
-6.61891e-06 -2.32605e-06        00000 
-3.85128e-06 -7.91698e-07        00000 
-1.32651e-05 -8.72430e-06        00000 
 2.58291e-06  1.17422e-06        00000 
-2.19639e-06  2.87282e-06        00000 
 1.21666e-06  2.81797e-06        00000 
-8.91975e-06 -6.02920e-06        00000 
-5.97341e-06 -6.41437e-06        00000 
-1.06096e-06 -4.69150e-06        00000 
-2.19925e-06 -6.67113e-06        00000 
 5.16484e-06 -5.52856e-06        00000 
-4.34101e-06 -1.29021e-06        00000 
-2.04597e-06 -6.40035e-06        00000 
 2.13340e-06 -6.05307e-06        00000 
 1.36897e-06  4.43477e-07        00000 
-4.17328e-06 -5.84622e-06        00000 
 7.13010e-07  3.46932e-06        00000 
 3.72500e-06  2.92146e-06        00000 
 1.02619e-05  3.91437e-06        00000 
 9.41135e-06 -1.11701e-06        00000 
 8.64985e-06  2.95502e-06        00000 
 6.67160e-06  5.03068e-06        00000 
 2.26582e-07  3.59998e-06        00000 
 1.00712e-05  5.17576e-06        00000 
-9.71307e-07 -2.91621e-06        00000 
-2.24395e-07 -7.68879e-07        00000 
 1.14547e-06  1.20906e-06        00000 
-7.02499e-06  5.59700e-06        00000 
-3.54355e-06  4.13985e-06        00000 
 3.05905e-06  8.53428e-06        00000 
 1.82437e-06  1.26298e-05        00000 
 9.45371e-07  1.00517e-05        00000 
-3.09297e-06  4.74637e-06        00000 
-5.20765e-06  4.99425e-06        00000 
-1.50479e-07  1.66191e-06        00000 
-5.58193e-06 -5.24919e-06        00000 
 1.65726e-06  2.10157e-06        00000 
 1.84879e-06 -9.56834e-07        00000 
-3.55391e-06  1.53648e-06        00000 
-2.67651e-06  5.52858e-07        00000 
-7.64382e-07 -4.86654e-06        00000 
-7.80513e-06  1.60475e-06        00000 
-6.01235e-06  5.12058e-06        00000 
-3.96569e-06  4.44466e-06        00000 
 5.32276e-06  1.22223e-05        00000 
 5.68529e-06  5.88665e-06        00000 
-2.40532e-06  4.21162e-06        00000 
-1.05457e-06  1.40738e-06        00000 
-3.30674e-07 -4.95227e-06        00000 
-3.17292e-06 -5.08206e-06        00000 
-6.03851e-06 -4.30161e-07        00000 
 1.56469e-06 -5.92303e-06        00000 
-5.20845e-06 -1.03645e-05        00000 
 3.18492e-22  2.79924e-22        00000 
-4.12261e-06 -9.99055e-06        00000 
-7.10669e-06  3.04318e-07        00000 
-3.19281e-22 -6.52958e-22        00000 
 2.36393e-06 -1.34167e-06        00000 
 6.02397e-07  2.59415e-06        00000 
 6.40238e-22  6.99795e-22        00000 
-2.67375e-07 -2.72584e-07        00000 
 4.47860e-06  1.47525e-06        00000 
-9.05067e-22  3.47478e-22        00000 
 1.98381e-06 -5.58687e-06        00000 
-4.58167e-06  3.85058e-06        00000 
-3.27564e-22 -7.14684e-22        00000 
-4.96768e-07 -5.20865e-06        00000 
-2.56052e-06 -4.04479e-06        00000 
-5.05446e-22  6.60694e-23        00000 
-1.01040e-06 -3.35938e-06        00000 
-4.24003e-06 -2.37770e-06        00000 
 4.31788e-22 -2.38228e-22        00000 
 3.17607e-07  2.32693e-06        00000 
 2.94076e-06  1.15605e-06        00000 
-9.52912e-22 -3.57342e-22        00000 
 3.49072e-06  2.86948e-07        00000 
-2.70807e-06 -1.86726e-06        00000 
 8.23372e-22  1.30083e-23        00000 
-3.00020e-06 -2.10787e-06        00000 
-1.16404e-06  9.01551e-07        00000 
 1.22828e-06 -3.58544e-06        00000 
-5.85255e-06 -1.44632e-05        00000 
-1.99784e-06  2.64715e-06        00000 
-7.78649e-06 -7.43730e-06        00000 
-3.47695e-06  1.64909e-06        00000 
-2.18773e-06  1.90501e-06        00000 
 8.85658e-07  5.20687e-06        00000 
 3.09384e-07  3.28887e-06        00000 
 2.84983e-07  4.23568e-06        00000 
-3.32873e-06  1.01852e-05        00000 
 2.10603e-06  2.21396e-06        00000 
-3.21953e-06  2.93767e-06        00000 
-4.81538e-06  3.93486e-06        00000 
 2.60807e-06  1.45869e-06        00000 
-5.41829e-06  2.95405e-06        00000 
-6.47981e-06 -1.19494e-06        00000 
 5.73658e-07  4.42443e-06        00000 
-4.85987e-07 -2.68860e-06        00000 
-3.26000e-06 -1.22233e-07        00000 
-1.06648e-06  3.35581e-06        00000 
-4.78659e-06 -5.05668e-06        00000 
-5.56721e-06 -5.42930e-06        00000 
-2.42452e-06  5.37324e-06        00000 
 2.49303e-06  2.31761e-06        00000 
-7.13346e-06  9.43526e-06        00000 
 2.67677e-06 -7.82398e-06        00000 
-2.73462e-06  2.72327e-05        00000 
-3.49540e-06 -2.41256e-06        00000 
-6.12562e-06 -8.28559e-06        00000 
-4.30961e-06  4.24978e-06        00000 
-1.53065e-05 -5.38818e-06        00000 
 6.89410e-07  3.15414e-06        00000 
 8.42302e-06  4.64756e-06        00000 
-4.30743e-06  2.05256e-06        00000 
-1.88196e-06  3.03502e-06        00000 
-3.82026e-06 -9.55933e-06        00000 
-9.18266e-06  3.07151e-06        00000 
-1.19981e-06  9.93060e-07        00000 
-6.20759e-06 -4.51324e-06        00000 
-4.73905e-06 -3.80879e-06        00000 
 6.77451e-06  5.38831e-06        00000 
 6.00820e-06 -8.47356e-07        00000 
-6.69283e-07 -3.88946e-06        00000 
 5.18824e-06 -1.06826e-06        00000 
-3.08848e-06  1.15208e-06        00000 
 1.70508e-07 -5.78570e-06        00000 
-5.69694e-06 -2.24752e-06        00000 
-6.13874e-06  4.10170e-06        00000 
-2.29087e-06 -1.37107e-06        00000 
 2.99514e-06  6.92767e-06        00000 
-1.90534e-08 -1.06384e-07        00000 
 1.75127e-06  1.45182e-06        00000 
-2.00195e-06  2.34387e-06        00000 
-5.29631e-06 -1.97288e-06        00000 
-4.63623e-06 -6.84684e-06        00000 
 1.80028e-06 -1.59681e-05        00000 
-6.54176e-06  4.13347e-06        00000 
-8.23307e-07 -3.27641e-06        00000 
 1.85604e-06  2.63732e-06        00000 
 3.16603e-06  4.56843e-06        00000 
 4.72931e-06  2.60658e-06        00000 
-2.42801e-06 -1.50670e-07        00000 
-5.80592e-07 -4.28197e-06        00000 
-9.56879e-06 -2.00544e-06        00000 
 2.27690e-06 -3.99067e-06        00000 
 6.57734e-07 -6.41643e-06        00000 
 5.16887e-06 -7.82717e-06        00000 
-7.75301e-07  4.97690e-06        00000 
 3.94522e-07  6.63043e-06        00000 
 2.05316e-06 -3.70455e-06        00000 
-1.50837e-06 -2.79657e-06        00000 
-2.71020e-06  5.16266e-06        00000 
-3.68576e-06  1.55150e-06        00000 
-6.89232e-06  5.30827e-06        00000 
-9.95067e-06  4.04703e-06        00000 
-5.22023e-06 -3.17506e-06        00000 
-2.63531e-06  4.06651e-06        00000 
-2.97366e-07  7.01260e-07        00000 
-5.36014e-06  4.08489e-06        00000 
-4.34784e-06  3.59345e-06        00000 
-1.78260e-06  1.65625e-06        00000 
 4.06264e-06 -5.87823e-06        00000 
-1.19419e-06 -8.10405e-06        00000 
-2.30420e-06  1.47473e-06        00000 
-5.92400e-07 -6.37849e-06        00000 
-1.74108e-06  2.05992e-06        00000 
-8.82465e-08  5.85264e-06        00000 
 5.93325e-06 -1.06694e-06        00000 
-8.61697e-06 -6.16253e-06        00000 
-8.39776e-06 -5.41431e-07        00000 
-4.87797e-06 -5.16404e-06        00000 
-6.87815e-06  1.56125e-06        00000 
-1.91038e-06  1.37436e-06        00000 
-4.87916e-06 -4.34532e-06        00000 
-8.35698e-06  4.24091e-06        00000 
-6.03021e-06  7.61171e-06        00000 
-5.23219e-07 -2.00137e-06        00000 
-7.43446e-06 -4.34706e-06        00000 
-3.21205e-06  9.78134e-06        00000 
-1.88727e-06  3.53504e-06        00000 
-2.25482e-06 -2.33690e-06        00000 
-7.58011e-07  3.50187e-06        00000 
-1.97257e-06 -3.98946e-06        00000 
 3.87930e-06  4.29523e-06        00000 
 5.11919e-06  6.50473e-06        00000 
-1.03713e-06  4.60470e-06        00000 
-4.06305e-06 -9.56244e-06        00000 
-9.10038e-06  1.99288e-05        00000 
 1.58495e-06 -2.47657e-06        00000 
 1.52605e-06 -3.90146e-06        00000 
-7.55757e-07 -1.71052e-06        00000 
-3.53634e-06 -1.46203e-06        00000 
 1.15031e-05  2.22125e-06        00000 
 8.78852e-06  5.84895e-06        00000 
-3.53833e-06 -3.39500e-06        00000 
-3.64234e-06 -3.30049e-06        00000 
-6.42771e-06  9.41108e-06        00000 
 2.89500e-06 -7.97005e-07        00000 
-1.56264e-06  6.35930e-06        00000 
 5.37662e-07  5.10012e-06        00000 
 8.85072e-08 -3.62144e-06        00000 
-6.51670e-09  5.41911e-06        00000 
-3.86195e-07  5.71445e-06        00000 
 1.38206e-06 -4.59938e-06        00000 
-2.01592e-06 -5.98297e-06        00000 
-1.33215e-06 -6.46275e-07        00000 
 2.25459e-06 -3.55277e-06        00000 
-1.24156e-06 -9.72746e-06        00000 
 7.98798e-06  9.33828e-08        00000 
-9.05255e-06 -2.14776e-07        00000 
 8.45570e-06 -5.80428e-06        00000 
 4.69714e-06  5.86620e-06        00000 
 3.21174e-06  8.04107e-06        00000 
 4.16966e-06 -1.52245e-06        00000 
 1.09592e-05  4.08404e-06        00000 
 7.34591e-06  1.83191e-06        00000 
 9.85774e-06  1.61163e-05        00000 
 5.62803e-06 -2.05233e-06        00000 
 5.26007e-06  1.82456e-06        00000 
 2.54464e-06  4.82572e-06        00000 
 2.56319e-06  8.90564e-07        00000 
 4.80748e-06 -5.73539e-07        00000 
 2.09152e-06  6.94797e-06        00000 
 4.35794e-06  2.30287e-06        00000 
 2.29086e-06 -3.59721e-06        00000 
 4.65290e-06  1.10632e-06        00000 
 1.58398e-06  2.23377e-06        00000 
 1.73821e-06 -4.04207e-06        00000 
 3.26968e-06  1.21552e-06        00000 
 1.52715e-06  8.14459e-07        00000 
-7.75342e-07  4.95707e-06        00000 
-9.14934e-07 -2.71559e-06        00000 
-4.95973e-06 -7.05056e-06        00000 
-5.73879e-06  3.27535e-06        00000 
 1.54278e-06 -3.50450e-06        00000 
 4.94592e-06 -1.61094e-06        00000 
 6.81523e-06  9.43267e-06        00000 
 8.53431e-06  3.31534e-06        00000 
 3.66011e-06  2.16489e-06        00000 
 6.95928e-06  4.82570e-06        00000 
-2.23128e-07 -9.16922e-06        00000 
 5.46448e-06  2.21086e-05        00000 
 2.91656e-06  7.80807e-06        00000 
 6.15980e-06  1.55249e-06        00000 
 4.58574e-06 -4.86724e-07        00000 
 2.13374e-06  6.98637e-06        00000 
 1.88202e-06 -3.65044e-06        00000 
 3.02859e-06  2.96858e-06        00000 
 2.64141e-06 -2.67886e-09        00000 
 3.28565e-06 -1.92006e-06        00000 
-9.74055e-09  4.23638e-06        00000 
-1.14527e-06 -2.76807e-06        00000 
-3.11768e-06 -1.21753e-06        00000 
-4.09667e-07 -1.43657e-06        00000 
-8.22238e-06  4.03597e-06        00000 
 4.29350e-06  7.57263e-06        00000 
 8.62139e-06  3.10198e-06        00000 
 1.40157e-06  2.99329e-06        00000 
 8.67136e-06  1.25682e-07        00000 
 4.59090e-06 -2.10740e-06        00000 
-2.27182e-06 -3.11122e-06        00000 
 8.89135e-06  3.05926e-06        00000 
-2.52334e-07 -3.26343e-06        00000 
 6.94979e-06  1.53529e-06        00000 
 4.74069e-06 -2.04276e-06        00000 
 7.35449e-06  1.97762e-06        00000 
 7.41096e-10  5.32134e-06        00000 
 8.79991e-06 -6.33226e-06        00000 
-1.49130e-06  9.90646e-06        00000 
-1.58074e-06 -2.39274e-06        00000 
-4.46486e-06  1.14099e-05        00000 
 1.26868e-06 -4.91265e-07        00000 
-4.23373e-06 -3.05668e-06        00000 
-3.01287e-06  5.57899e-06        00000 
 2.06701e-06  9.65625e-07        00000 
-1.21835e-06 -2.75602e-06        00000 
-4.64605e-08 -6.28243e-08        00000 
 4.14204e-06 -1.56005e-06        00000 
-5.26556e-06  6.17270e-06        00000 
 3.92626e-06 -1.47831e-06        00000 
-5.28872e-06 -1.28684e-06        00000 
-7.57569e-06  3.70119e-06        00000 
 3.58934e-06 -8.23767e-08        00000 
 3.75889e-06 -4.24718e-06        00000 
-1.50647e-06  5.05888e-06        00000 
 2.82168e-06 -1.63991e-06        00000 
 2.71372e-07 -3.00791e-07        00000 
-3.59752e-06 -2.24237e-07        00000 
-1.61316e-06  5.78115e-06        00000 
 2.32419e-06  1.44165e-06        00000 
-1.20021e-06 -4.79038e-06        00000 
-1.46716e-06  6.47166e-06        00000 
-2.24607e-06 -1.59330e-06        00000 
 1.44442e-06 -4.04031e-06        00000 
-5.31412e-06  1.23032e-05        00000 
-8.71990e-06 -2.12241e-05        00000 
-8.53584e-06 -1.23140e-06        00000 
-2.80757e-06 -1.92123e-06        00000 
-6.83775e-06 -8.11095e-06        00000 
-1.07493e-05 -6.69365e-06        00000 
-4.36658e-06 -7.36109e-06        00000 
 3.12972e-07 -2.52869e-06        00000 
 3.96022e-06 -9.09605e-06        00000 
-2.46145e-06 -1.55332e-06        00000 
 1.95920e-06 -4.15448e-06        00000 
 1.29545e-06  9.25872e-07        00000 
-6.24905e-07  5.23747e-06        00000 
 2.19086e-08 -3.56734e-06        00000 
 3.11370e-06 -1.19568e-06        00000 
-2.58814e-06 -2.18272e-06        00000 
-2.56263e-06 -2.50751e-06        00000 
-3.39348e-06  1.10201e-06        00000 
 2.07804e-06 -1.16816e-05        00000 
-6.05684e-06  1.99659e-05        00000 
-4.89881e-06 -2.69219e-06        00000 
-3.13809e-06  5.90511e-06        00000 
-5.01214e-06 -3.36590e-06        00000 
 3.70852e-06 -3.28745e-06        00000 
-1.57161e-06 -2.16169e-06        00000 
 2.31458e-06 -4.70937e-06        00000 
-3.09686e-06 -2.81230e-06        00000 
 2.27175e-06 -4.22718e-06        00000 
 5.17110e-06  2.94370e-06        00000 
-4.11461e-07  1.77848e-06        00000 
-6.27959e-06  4.67397e-07        00000 
-1.61942e-06 -8.23190e-06        00000 
-6.33900e-07 -7.26695e-06        00000 
-4.39141e-06 -6.80837e-06        00000 
-2.20464e-06 -2.57673e-06        00000 
-3.46997e-06 -2.45465e-07        00000 
-2.94476e-06 -1.83821e-05        00000 
-5.52269e-06  1.00013e-05        00000 
-1.66248e-06  4.61841e-06        00000 
-4.65901e-06 -7.48556e-06        00000 
 1.83311e-06 -1.86810e-07        00000 
-1.21259e-07 -6.65973e-06        00000 
 1.85219e-06  3.83981e-06        00000 
 3.21351e-07 -1.27259e-06        00000 
-2.11294e-06  3.68109e-06        00000 
-3.20734e-06 -7.94452e-06        00000 
 2.79499e-07 -4.14227e-06        00000 
-6.78498e-06 -5.45522e-06        00000 
-1.58898e-06 -3.49021e-07        00000 
 4.77140e-07  2.79443e-07        00000 
-5.18514e-06 -1.15337e-08        00000 
-7.25511e-06 -8.67634e-06        00000 
-9.08500e-07  1.89388e-06        00000 
 2.96837e-06 -2.02108e-06        00000 
-4.07824e-06  7.18914e-06        00000 
 5.05719e-06 -3.14475e-06        00000 
-5.54545e-07  2.30844e-06        00000 
-2.05836e-06  1.73182e-06        00000 
-8.34309e-06 -1.96005e-06        00000 
-3.88850e-06  2.07265e-06        00000 
-5.92354e-06  1.10229e-05        00000 
 2.37135e-06  3.86667e-06        00000 
-2.14988e-06  6.98593e-06        00000 
 5.30054e-07  6.14545e-07        00000 
-7.76331e-07  9.53421e-06        00000 
-4.56074e-06  8.26272e-06        00000 
 1.12109e-06  1.20191e-05        00000 
 7.03729e-06  6.86358e-06        00000 
-2.10541e-07  4.60986e-06        00000 
-1.52657e-06  2.95129e-06        00000 
 2.29805e-06  4.80490e-06        00000 
 5.13078e-06  1.01022e-05        00000 
-6.86545e-07 -9.15425e-06        00000 
 1.17409e-05  1.88311e-05        00000 
 5.39863e-06  5.19636e-06        00000 