<?xml version="1.0" encoding="utf-8"?>
<VTKFile byte_order="LittleEndian" type="UnstructuredGrid" version="0.1">
   <UnstructuredGrid>
      <Piece NumberOfCells="1296" NumberOfPoints="685">
         <Points>
            <DataArray Name="Points" NumberOfComponents="3" format="ascii" type="Float32">
0.0000 0.0000 0.0000
0.0000 0.1111 0.0000
0.0000 0.2222 0.0000
0.0000 0.3333 0.0000
0.0000 0.4444 0.0000
0.0000 0.5556 0.0000
0.0000 0.6667 0.0000
0.0000 0.7778 0.0000
0.0000 0.8889 0.0000
0.0000 1.0000 0.0000
0.2222 0.0000 0.0000
0.2222 0.1111 0.0000
0.2222 0.2222 0.0000
0.2222 0.3333 0.0000
0.2222 0.4444 0.0000
0.2222 0.5556 0.0000
0.2222 0.6667 0.0000
0.2222 0.7778 0.0000
0.2222 0.8889 0.0000
0.2222 1.0000 0.0000
0.4444 0.0000 0.0000
0.4444 0.1111 0.0000
0.4444 0.2222 0.0000
0.4444 0.3333 0.0000
0.4444 0.4444 0.0000
0.4444 0.5556 0.0000
0.4444 0.6667 0.0000
0.4444 0.7778 0.0000
0.4444 0.8889 0.0000
0.4444 1.0000 0.0000
0.6667 0.0000 0.0000
0.6667 0.1111 0.0000
0.6667 0.2222 0.0000
0.6667 0.3333 0.0000
0.6667 0.4444 0.0000
0.6667 0.5556 0.0000
0.6667 0.6667 0.0000
0.6667 0.7778 0.0000
0.6667 0.8889 0.0000
0.6667 1.0000 0.0000
0.8889 0.0000 0.0000
0.8889 0.1111 0.0000
0.8889 0.2222 0.0000
0.8889 0.3333 0.0000
0.8889 0.4444 0.0000
0.8889 0.5556 0.0000
0.8889 0.6667 0.0000
0.8889 0.7778 0.0000
0.8889 0.8889 0.0000
0.8889 1.0000 0.0000
1.1111 0.0000 0.0000
1.1111 0.1111 0.0000
1.1111 0.2222 0.0000
1.1111 0.3333 0.0000
1.1111 0.4444 0.0000
1.1111 0.5556 0.0000
1.1111 0.6667 0.0000
1.1111 0.7778 0.0000
1.1111 0.8889 0.0000
1.1111 1.0000 0.0000
1.3333 0.0000 0.0000
1.3333 0.1111 0.0000
1.3333 0.2222 0.0000
1.3333 0.3333 0.0000
1.3333 0.4444 0.0000
1.3333 0.5556 0.0000
1.3333 0.6667 0.0000
1.3333 0.7778 0.0000
1.3333 0.8889 0.0000
1.3333 1.0000 0.0000
1.5556 0.0000 0.0000
1.5556 0.1111 0.0000
1.5556 0.2222 0.0000
1.5556 0.3333 0.0000
1.5556 0.4444 0.0000
1.5556 0.5556 0.0000
1.5556 0.6667 0.0000
1.5556 0.7778 0.0000
1.5556 0.8889 0.0000
1.5556 1.0000 0.0000
1.7778 0.0000 0.0000
1.7778 0.1111 0.0000
1.7778 0.2222 0.0000
1.7778 0.3333 0.0000
1.7778 0.4444 0.0000
1.7778 0.5556 0.0000
1.7778 0.6667 0.0000
1.7778 0.7778 0.0000
1.7778 0.8889 0.0000
1.7778 1.0000 0.0000
2.0000 0.0000 0.0000
2.0000 0.1111 0.0000
2.0000 0.2222 0.0000
2.0000 0.3333 0.0000
2.0000 0.4444 0.0000
2.0000 0.5556 0.0000
2.0000 0.6667 0.0000
2.0000 0.7778 0.0000
2.0000 0.8889 0.0000
2.0000 1.0000 0.0000
0.1111 0.0556 0.0000
0.1111 0.1667 0.0000
0.1111 0.2778 0.0000
0.1111 0.3889 0.0000
0.1111 0.5000 0.0000
0.1111 0.6111 0.0000
0.1111 0.7222 0.0000
0.1111 0.8333 0.0000
0.1111 0.9444 0.0000
0.3333 0.0556 0.0000
0.3333 0.1667 0.0000
0.3333 0.2778 0.0000
0.3333 0.3889 0.0000
0.3333 0.5000 0.0000
0.3333 0.6111 0.0000
0.3333 0.7222 0.0000
0.3333 0.8333 0.0000
0.3333 0.9444 0.0000
0.5556 0.0556 0.0000
0.5556 0.1667 0.0000
0.5556 0.2778 0.0000
0.5556 0.3889 0.0000
0.5556 0.5000 0.0000
0.5556 0.6111 0.0000
0.5556 0.7222 0.0000
0.5556 0.8333 0.0000
0.5556 0.9444 0.0000
0.7778 0.0556 0.0000
0.7778 0.1667 0.0000
0.7778 0.2778 0.0000
0.7778 0.3889 0.0000
0.7778 0.5000 0.0000
0.7778 0.6111 0.0000
0.7778 0.7222 0.0000
0.7778 0.8333 0.0000
0.7778 0.9444 0.0000
1.0000 0.0556 0.0000
1.0000 0.1667 0.0000
1.0000 0.2778 0.0000
1.0000 0.3889 0.0000
1.0000 0.5000 0.0000
1.0000 0.6111 0.0000
1.0000 0.7222 0.0000
1.0000 0.8333 0.0000
1.0000 0.9444 0.0000
1.2222 0.0556 0.0000
1.2222 0.1667 0.0000
1.2222 0.2778 0.0000
1.2222 0.3889 0.0000
1.2222 0.5000 0.0000
1.2222 0.6111 0.0000
1.2222 0.7222 0.0000
1.2222 0.8333 0.0000
1.2222 0.9444 0.0000
1.4444 0.0556 0.0000
1.4444 0.1667 0.0000
1.4444 0.2778 0.0000
1.4444 0.3889 0.0000
1.4444 0.5000 0.0000
1.4444 0.6111 0.0000
1.4444 0.7222 0.0000
1.4444 0.8333 0.0000
1.4444 0.9444 0.0000
1.6667 0.0556 0.0000
1.6667 0.1667 0.0000
1.6667 0.2778 0.0000
1.6667 0.3889 0.0000
1.6667 0.5000 0.0000
1.6667 0.6111 0.0000
1.6667 0.7222 0.0000
1.6667 0.8333 0.0000
1.6667 0.9444 0.0000
1.8889 0.0556 0.0000
1.8889 0.1667 0.0000
1.8889 0.2778 0.0000
1.8889 0.3889 0.0000
1.8889 0.5000 0.0000
1.8889 0.6111 0.0000
1.8889 0.7222 0.0000
1.8889 0.8333 0.0000
1.8889 0.9444 0.0000
0.0000 0.0556 0.0000
0.0556 0.0278 0.0000
0.0556 0.0833 0.0000
0.0000 0.1667 0.0000
0.0556 0.1389 0.0000
0.0556 0.1944 0.0000
0.0000 0.2778 0.0000
0.0556 0.2500 0.0000
0.0556 0.3056 0.0000
0.0000 0.3889 0.0000
0.0556 0.3611 0.0000
0.0556 0.4167 0.0000
0.0000 0.5000 0.0000
0.0556 0.4722 0.0000
0.0556 0.5278 0.0000
0.0000 0.6111 0.0000
0.0556 0.5833 0.0000
0.0556 0.6389 0.0000
0.0000 0.7222 0.0000
0.0556 0.6944 0.0000
0.0556 0.7500 0.0000
0.0000 0.8333 0.0000
0.0556 0.8056 0.0000
0.0556 0.8611 0.0000
0.0000 0.9444 0.0000
0.0556 0.9167 0.0000
0.0556 0.9722 0.0000
0.2222 0.0556 0.0000
0.2778 0.0278 0.0000
0.2778 0.0833 0.0000
0.2222 0.1667 0.0000
0.2778 0.1389 0.0000
0.2778 0.1944 0.0000
0.2222 0.2778 0.0000
0.2778 0.2500 0.0000
0.2778 0.3056 0.0000
0.2222 0.3889 0.0000
0.2778 0.3611 0.0000
0.2778 0.4167 0.0000
0.2222 0.5000 0.0000
0.2778 0.4722 0.0000
0.2778 0.5278 0.0000
0.2222 0.6111 0.0000
0.2778 0.5833 0.0000
0.2778 0.6389 0.0000
0.2222 0.7222 0.0000
0.2778 0.6944 0.0000
0.2778 0.7500 0.0000
0.2222 0.8333 0.0000
0.2778 0.8056 0.0000
0.2778 0.8611 0.0000
0.2222 0.9444 0.0000
0.2778 0.9167 0.0000
0.2778 0.9722 0.0000
0.4444 0.0556 0.0000
0.5000 0.0278 0.0000
0.5000 0.0833 0.0000
0.4444 0.1667 0.0000
0.5000 0.1389 0.0000
0.5000 0.1944 0.0000
0.4444 0.2778 0.0000
0.5000 0.2500 0.0000
0.5000 0.3056 0.0000
0.4444 0.3889 0.0000
0.5000 0.3611 0.0000
0.5000 0.4167 0.0000
0.4444 0.5000 0.0000
0.5000 0.4722 0.0000
0.5000 0.5278 0.0000
0.4444 0.6111 0.0000
0.5000 0.5833 0.0000
0.5000 0.6389 0.0000
0.4444 0.7222 0.0000
0.5000 0.6944 0.0000
0.5000 0.7500 0.0000
0.4444 0.8333 0.0000
0.5000 0.8056 0.0000
0.5000 0.8611 0.0000
0.4444 0.9444 0.0000
0.5000 0.9167 0.0000
0.5000 0.9722 0.0000
0.6667 0.0556 0.0000
0.7222 0.0278 0.0000
0.7222 0.0833 0.0000
0.6667 0.1667 0.0000
0.7222 0.1389 0.0000
0.7222 0.1944 0.0000
0.6667 0.2778 0.0000
0.7222 0.2500 0.0000
0.7222 0.3056 0.0000
0.6667 0.3889 0.0000
0.7222 0.3611 0.0000
0.7222 0.4167 0.0000
0.6667 0.5000 0.0000
0.7222 0.4722 0.0000
0.7222 0.5278 0.0000
0.6667 0.6111 0.0000
0.7222 0.5833 0.0000
0.7222 0.6389 0.0000
0.6667 0.7222 0.0000
0.7222 0.6944 0.0000
0.7222 0.7500 0.0000
0.6667 0.8333 0.0000
0.7222 0.8056 0.0000
0.7222 0.8611 0.0000
0.6667 0.9444 0.0000
0.7222 0.9167 0.0000
0.7222 0.9722 0.0000
0.8889 0.0556 0.0000
0.9444 0.0278 0.0000
0.9444 0.0833 0.0000
0.8889 0.1667 0.0000
0.9444 0.1389 0.0000
0.9444 0.1944 0.0000
0.8889 0.2778 0.0000
0.9444 0.2500 0.0000
0.9444 0.3056 0.0000
0.8889 0.3889 0.0000
0.9444 0.3611 0.0000
0.9444 0.4167 0.0000
0.8889 0.5000 0.0000
0.9444 0.4722 0.0000
0.9444 0.5278 0.0000
0.8889 0.6111 0.0000
0.9444 0.5833 0.0000
0.9444 0.6389 0.0000
0.8889 0.7222 0.0000
0.9444 0.6944 0.0000
0.9444 0.7500 0.0000
0.8889 0.8333 0.0000
0.9444 0.8056 0.0000
0.9444 0.8611 0.0000
0.8889 0.9444 0.0000
0.9444 0.9167 0.0000
0.9444 0.9722 0.0000
1.1111 0.0556 0.0000
1.1667 0.0278 0.0000
1.1667 0.0833 0.0000
1.1111 0.1667 0.0000
1.1667 0.1389 0.0000
1.1667 0.1944 0.0000
1.1111 0.2778 0.0000
1.1667 0.2500 0.0000
1.1667 0.3056 0.0000
1.1111 0.3889 0.0000
1.1667 0.3611 0.0000
1.1667 0.4167 0.0000
1.1111 0.5000 0.0000
1.1667 0.4722 0.0000
1.1667 0.5278 0.0000
1.1111 0.6111 0.0000
1.1667 0.5833 0.0000
1.1667 0.6389 0.0000
1.1111 0.7222 0.0000
1.1667 0.6944 0.0000
1.1667 0.7500 0.0000
1.1111 0.8333 0.0000
1.1667 0.8056 0.0000
1.1667 0.8611 0.0000
1.1111 0.9444 0.0000
1.1667 0.9167 0.0000
1.1667 0.9722 0.0000
1.3333 0.0556 0.0000
1.3889 0.0278 0.0000
1.3889 0.0833 0.0000
1.3333 0.1667 0.0000
1.3889 0.1389 0.0000
1.3889 0.1944 0.0000
1.3333 0.2778 0.0000
1.3889 0.2500 0.0000
1.3889 0.3056 0.0000
1.3333 0.3889 0.0000
1.3889 0.3611 0.0000
1.3889 0.4167 0.0000
1.3333 0.5000 0.0000
1.3889 0.4722 0.0000
1.3889 0.5278 0.0000
1.3333 0.6111 0.0000
1.3889 0.5833 0.0000
1.3889 0.6389 0.0000
1.3333 0.7222 0.0000
1.3889 0.6944 0.0000
1.3889 0.7500 0.0000
1.3333 0.8333 0.0000
1.3889 0.8056 0.0000
1.3889 0.8611 0.0000
1.3333 0.9444 0.0000
1.3889 0.9167 0.0000
1.3889 0.9722 0.0000
1.5556 0.0556 0.0000
1.6111 0.0278 0.0000
1.6111 0.0833 0.0000
1.5556 0.1667 0.0000
1.6111 0.1389 0.0000
1.6111 0.1944 0.0000
1.5556 0.2778 0.0000
1.6111 0.2500 0.0000
1.6111 0.3056 0.0000
1.5556 0.3889 0.0000
1.6111 0.3611 0.0000
1.6111 0.4167 0.0000
1.5556 0.5000 0.0000
1.6111 0.4722 0.0000
1.6111 0.5278 0.0000
1.5556 0.6111 0.0000
1.6111 0.5833 0.0000
1.6111 0.6389 0.0000
1.5556 0.7222 0.0000
1.6111 0.6944 0.0000
1.6111 0.7500 0.0000
1.5556 0.8333 0.0000
1.6111 0.8056 0.0000
1.6111 0.8611 0.0000
1.5556 0.9444 0.0000
1.6111 0.9167 0.0000
1.6111 0.9722 0.0000
1.7778 0.0556 0.0000
1.8333 0.0278 0.0000
1.8333 0.0833 0.0000
1.7778 0.1667 0.0000
1.8333 0.1389 0.0000
1.8333 0.1944 0.0000
1.7778 0.2778 0.0000
1.8333 0.2500 0.0000
1.8333 0.3056 0.0000
1.7778 0.3889 0.0000
1.8333 0.3611 0.0000
1.8333 0.4167 0.0000
1.7778 0.5000 0.0000
1.8333 0.4722 0.0000
1.8333 0.5278 0.0000
1.7778 0.6111 0.0000
1.8333 0.5833 0.0000
1.8333 0.6389 0.0000
1.7778 0.7222 0.0000
1.8333 0.6944 0.0000
1.8333 0.7500 0.0000
1.7778 0.8333 0.0000
1.8333 0.8056 0.0000
1.8333 0.8611 0.0000
1.7778 0.9444 0.0000
1.8333 0.9167 0.0000
1.8333 0.9722 0.0000
0.1111 0.1111 0.0000
0.1667 0.0833 0.0000
0.1111 0.2222 0.0000
0.1667 0.1944 0.0000
0.1111 0.3333 0.0000
0.1667 0.3056 0.0000
0.1111 0.4444 0.0000
0.1667 0.4167 0.0000
0.1111 0.5556 0.0000
0.1667 0.5278 0.0000
0.1111 0.6667 0.0000
0.1667 0.6389 0.0000
0.1111 0.7778 0.0000
0.1667 0.7500 0.0000
0.1111 0.8889 0.0000
0.1667 0.8611 0.0000
0.1111 1.0000 0.0000
0.1667 0.9722 0.0000
0.3333 0.1111 0.0000
0.3889 0.0833 0.0000
0.3333 0.2222 0.0000
0.3889 0.1944 0.0000
0.3333 0.3333 0.0000
0.3889 0.3056 0.0000
0.3333 0.4444 0.0000
0.3889 0.4167 0.0000
0.3333 0.5556 0.0000
0.3889 0.5278 0.0000
0.3333 0.6667 0.0000
0.3889 0.6389 0.0000
0.3333 0.7778 0.0000
0.3889 0.7500 0.0000
0.3333 0.8889 0.0000
0.3889 0.8611 0.0000
0.3333 1.0000 0.0000
0.3889 0.9722 0.0000
0.5556 0.1111 0.0000
[...]
         <PointData>
            <DataArray Name="fValues" NumberOfComponents="3" format="ascii" type="Float64">
       00000  3.40786e-19        00000 
-2.44318e-20 -8.05997e-20        00000 
-2.99038e-20 -1.23392e-19        00000 
 2.56861e-19  1.60538e-19        00000 
-2.59786e-19  3.23922e-19        00000 
 3.21077e-20 -2.24754e-19        00000 
-1.58645e-19 -1.12185e-19        00000 
-1.60393e-20  1.12275e-19        00000 
-1.93486e-19  3.22476e-20        00000 
-1.86732e-20 -2.24078e-19        00000 
 7.97748e-05  1.76973e-03        00000 
-1.55468e-05  4.63342e-04        00000 
 1.95294e-04  9.16607e-04        00000 
-2.01468e-03 -9.41083e-04        00000 
-8.66504e-04 -1.08690e-04        00000 
-8.69154e-04  4.85184e-04        00000 
-4.47816e-04  2.15573e-04        00000 
-1.65549e-03  1.30928e-03        00000 
-7.44949e-04  3.19719e-04        00000 
-1.01980e-03 -5.28418e-03        00000 
 3.21332e-04  2.40950e-03        00000 
-4.79572e-04  1.12645e-03        00000 
 4.81968e-04 -1.34129e-03        00000 
 2.89009e-04 -1.66859e-03        00000 
-2.57462e-03 -1.98829e-03        00000 
 2.09565e-03  8.16838e-04        00000 
 7.05483e-04 -2.59318e-04        00000 
-6.98948e-04 -2.26244e-03        00000 
-1.38607e-04 -8.18527e-04        00000 
 3.77257e-04 -1.27157e-03        00000 
 3.40343e-04  4.16728e-03        00000 
 3.54305e-04  1.29238e-03        00000 
 6.57761e-04  5.80355e-04        00000 
-1.15945e-03 -1.45351e-04        00000 
-8.47321e-04  5.26247e-05        00000 
 1.12134e-03  1.39787e-03        00000 
-6.59849e-04  1.13477e-04        00000 
-1.95339e-03 -1.15494e-03        00000 
-1.21029e-03 -6.23148e-04        00000 
-7.92914e-04  1.70081e-04        00000 
 3.74582e-04  2.12799e-03        00000 
-2.65044e-04  1.27239e-03        00000 
 3.95959e-05 -5.36660e-04        00000 
-4.50668e-04 -6.44179e-04        00000 
-2.60080e-03 -1.48209e-03        00000 
 2.70805e-04  1.12010e-03        00000 
 1.35811e-04  1.35465e-03        00000 
-5.74026e-04 -8.90903e-06        00000 
 2.00283e-04  1.47333e-03        00000 
-9.48155e-04 -3.90850e-03        00000 
 2.15539e-03  7.06374e-04        00000 
 7.71406e-04  2.68384e-04        00000 
 5.95324e-04  1.06738e-03        00000 
-9.49622e-05  2.25018e-03        00000 
-2.08303e-04  3.20693e-04        00000 
 4.29380e-04  6.44609e-04        00000 
 7.42179e-04 -5.91181e-04        00000 
-4.61710e-04  5.37889e-04        00000 
-9.74298e-04  4.34517e-05        00000 
-5.78836e-04 -1.28104e-03        00000 
 6.80317e-06 -6.15385e-04        00000 
 3.81961e-04 -9.89794e-04        00000 
 1.51566e-03 -6.39206e-04        00000 
-4.22606e-04  1.20273e-03        00000 
 4.89574e-04  1.06701e-03        00000 
-7.35108e-04  1.88051e-04        00000 
-2.08056e-03 -6.38505e-04        00000 
-1.55947e-03 -2.06381e-03        00000 
 5.20849e-04  1.05239e-04        00000 
 1.45985e-03 -8.98595e-04        00000 
 8.91575e-06 -1.81074e-03        00000 
 5.48069e-04 -1.14052e-03        00000 
 9.49154e-04  4.07762e-04        00000 
 1.01005e-03  8.17706e-04        00000 
 2.25340e-04  3.69134e-04        00000 
-1.08919e-04 -2.99204e-04        00000 
-7.21649e-04  6.89189e-05        00000 
 1.48805e-03 -4.78590e-04        00000 
 1.36629e-03 -8.93723e-04        00000 
 6.09920e-04 -2.29130e-03        00000 
-1.10522e-03  1.64315e-03        00000 
-1.85465e-03  2.50140e-03        00000 
-1.58581e-03  1.24923e-04        00000 
-1.68573e-03 -4.48481e-04        00000 
-1.84885e-03 -1.81123e-03        00000 
-8.09463e-04 -1.19346e-03        00000 
-8.49522e-05  2.43573e-04        00000 
-9.00093e-04  1.06124e-03        00000 
-8.05000e-05  8.68367e-04        00000 
-1.45443e-03  2.92846e-03        00000 
-5.24984e-04  4.44981e-04        00000 
 8.43585e-04  2.62909e-04        00000 
 5.73917e-04 -6.27762e-04        00000 
-2.55356e-04  6.81332e-05        00000 
-1.04066e-03  7.87180e-04        00000 
 8.42897e-04  3.07173e-04        00000 
-1.47615e-03  1.21756e-03        00000 
 1.39994e-03  3.20153e-05        00000 
-3.27378e-04  4.89045e-04        00000 
-7.33278e-04 -2.29331e-04        00000 
 1.24938e-03  1.04098e-03        00000 
 1.03280e-04  2.07552e-03        00000 
-1.73148e-04  1.83349e-03        00000 
 8.66495e-04  1.01223e-03        00000 
 2.14163e-03 -2.44347e-04        00000 
 1.31313e-03  9.43125e-04        00000 
 2.96964e-04 -5.80410e-04        00000 
-4.29105e-04 -7.93247e-04        00000 
-4.77682e-04 -4.27831e-05        00000 
-7.78258e-05  8.00573e-04        00000 
-2.00298e-03  8.53515e-04        00000 
-3.74203e-04  1.11847e-03        00000 
-1.10889e-03  1.50038e-03        00000 
-3.22604e-04  1.47942e-03        00000 
-1.19318e-04 -8.06309e-05        00000 
-1.57812e-04 -5.85073e-05        00000 
 1.02228e-04  3.21042e-04        00000 
-1.46704e-03  1.72132e-03        00000 
 1.16999e-03 -1.68134e-04        00000 
 4.96186e-04  1.45766e-03        00000 
 1.15432e-03  1.56092e-03        00000 
 1.04899e-03  2.03848e-03        00000 
 4.54035e-04  6.83616e-04        00000 
 1.13394e-03  1.14324e-03        00000 
 5.99406e-04  1.70554e-03        00000 
-1.25593e-03  6.64719e-04        00000 
 2.11284e-06 -3.16505e-04        00000 
 9.72718e-04 -1.21891e-03        00000 
-1.12040e-03  1.04842e-05        00000 
-3.80175e-04 -2.53678e-05        00000 
-2.60071e-03 -1.60189e-03        00000 
 6.28311e-04 -5.24433e-05        00000 
-1.70156e-04  5.57918e-04        00000 
 3.18755e-04  6.63760e-04        00000 
-2.19285e-03 -1.72736e-03        00000 
-1.73544e-03 -1.90973e-03        00000 
-9.53200e-05 -4.96927e-04        00000 
-5.18667e-04 -1.79665e-03        00000 
 6.48192e-04 -1.42707e-03        00000 
-1.24724e-03 -3.63009e-04        00000 
-5.02092e-04 -1.54847e-03        00000 
 4.11946e-04 -1.42631e-03        00000 
 2.68157e-04 -3.46364e-04        00000 
-9.93730e-04 -1.45574e-03        00000 
 6.31381e-06  8.49539e-04        00000 
 3.98763e-04  3.02199e-04        00000 
 2.19514e-03  6.66220e-04        00000 
 2.12054e-03 -6.42516e-05        00000 
 2.06129e-03  9.26158e-04        00000 
 1.11519e-03  1.08883e-03        00000 
-2.54409e-06  5.41448e-04        00000 
 1.98328e-03  1.28178e-03        00000 
-6.11440e-04 -9.40165e-04        00000 
-2.70005e-04 -3.26565e-04        00000 
 2.88138e-04 -1.19238e-04        00000 
-1.00824e-03  1.12564e-03        00000 
-7.26621e-04  7.93814e-04        00000 
 9.02136e-04  1.91475e-03        00000 
 5.36544e-04  2.61991e-03        00000 
 3.59859e-04  2.27568e-03        00000 
-4.78836e-04  8.43905e-04        00000 
-1.10318e-03  1.15634e-03        00000 
-7.70236e-04  3.75784e-05        00000 
-1.33039e-03 -1.06774e-03        00000 
 3.46840e-04  2.96958e-04        00000 
 1.70807e-04 -4.94618e-04        00000 
-8.97484e-04  8.19944e-05        00000 
-9.31293e-04 -1.03597e-04        00000 
-2.30526e-04 -1.23893e-03        00000 
-1.93342e-03  1.88931e-04        00000 
-1.45922e-03  1.12475e-03        00000 
-8.79005e-04  1.33080e-03        00000 
 1.07617e-03  2.37119e-03        00000 
 9.15333e-04  6.75463e-04        00000 
-8.97963e-04  6.98940e-04        00000 
-3.33555e-04  3.22783e-05        00000 
-9.48466e-05 -7.84062e-04        00000 
-8.72607e-04 -8.66777e-04        00000 
-1.27884e-03 -5.28502e-05        00000 
 1.57829e-04 -1.23760e-03        00000 
-1.40873e-03 -2.38671e-03        00000 
-3.53692e-20  2.09730e-19        00000 
-1.62887e-03 -2.03833e-03        00000 
-1.44253e-03  2.33921e-04        00000 
-5.60024e-20 -1.16654e-19        00000 
 4.38515e-04  1.13949e-04        00000 
 2.39353e-04  7.17571e-04        00000 
 6.09864e-20  8.76679e-20        00000 
-4.71004e-04  6.37528e-05        00000 
 8.70373e-04  6.89052e-04        00000 
-2.00648e-19  6.79857e-20        00000 
 3.78018e-04 -8.55985e-04        00000 
-1.13829e-03  8.01403e-04        00000 
       00000 -6.09864e-20        00000 
-5.37496e-04 -8.06860e-04        00000 
-7.37769e-04 -9.21674e-04        00000 
-4.05230e-21  2.01657e-19        00000 
-4.91806e-04 -8.30021e-04        00000 
-1.25438e-03 -2.00579e-04        00000 
-5.07426e-20 -3.04932e-20        00000 
-5.49598e-06  5.94408e-04        00000 
 6.31947e-04  6.34704e-06        00000 
-9.14796e-20 -7.62330e-20        00000 
 4.44266e-04  7.90437e-04        00000 
-8.19273e-04 -4.00133e-04        00000 
 1.30726e-19  5.78350e-20        00000 
-8.34492e-04 -3.88305e-04        00000 
-4.59171e-04 -4.47434e-04        00000 
-3.65650e-05 -7.72349e-04        00000 
-1.57500e-03 -1.86465e-03        00000 
-6.73234e-04 -1.21822e-04        00000 
-1.81642e-03 -1.83456e-03        00000 
-1.02722e-03  7.20344e-04        00000 
-2.30755e-04  3.38842e-04        00000 
 1.88736e-05  9.34038e-04        00000 
-1.06423e-04  6.42718e-04        00000 
 2.80180e-04  7.89423e-04        00000 
-4.13642e-04  2.22208e-03        00000 
 6.81739e-04  5.89119e-04        00000 
-4.97128e-04  3.73773e-04        00000 
-1.01945e-03  8.03152e-04        00000 
 5.87713e-04  3.65362e-04        00000 
-8.85192e-04  5.94808e-04        00000 
-1.66088e-03 -2.29296e-04        00000 
-1.60579e-04  7.20027e-04        00000 
-7.02112e-05 -7.47716e-04        00000 
-6.57495e-04  3.16156e-04        00000 
-4.84463e-04  7.05576e-04        00000 
-8.02687e-04 -1.02943e-03        00000 
-1.14345e-03 -8.10511e-04        00000 
-3.52964e-04  1.48888e-03        00000 
 6.71053e-04  4.67671e-04        00000 
-1.72203e-03  1.72126e-03        00000 
 4.79232e-04 -1.47857e-03        00000 
-4.45431e-04  4.86129e-03        00000 
-1.06005e-03 -7.60763e-04        00000 
-1.33497e-03 -1.24095e-03        00000 
-7.23340e-04  8.59261e-04        00000 
-2.93656e-03 -1.26054e-03        00000 
 1.74725e-04  6.93955e-04        00000 
 2.03973e-03  1.07151e-03        00000 
-7.63273e-04  5.00715e-05        00000 
-3.64049e-04  7.47025e-04        00000 
-7.75879e-04 -1.77963e-03        00000 
-1.97846e-03  3.29602e-04        00000 
-6.26274e-05  4.20861e-04        00000 
-1.12543e-03 -6.03712e-04        00000 
-9.10636e-04 -1.01755e-03        00000 
 1.49792e-03  1.25597e-03        00000 
 1.24390e-03 -1.15245e-04        00000 
-3.27684e-04 -9.49210e-04        00000 
 7.79791e-04 -2.98186e-04        00000 
-8.63364e-04  2.31814e-04        00000 
-7.98090e-05 -1.43736e-03        00000 
-1.46466e-03 -3.78435e-04        00000 
-1.21213e-03  6.73573e-04        00000 
-6.71475e-04 -1.96345e-04        00000 
 5.93987e-04  1.48519e-03        00000 
-5.29508e-05 -1.48200e-04        00000 
 7.48178e-05 -3.58922e-05        00000 
-5.85505e-04  2.48513e-04        00000 
-1.16556e-03 -9.68879e-04        00000 
-9.74164e-04 -1.70486e-03        00000 
 4.31461e-04 -4.69169e-03        00000 
-1.28427e-03  1.28354e-03        00000 
-1.90481e-04 -4.84535e-04        00000 
 6.70079e-04  5.93947e-04        00000 
 5.68533e-04  1.08804e-03        00000 
 1.08201e-03  8.11588e-04        00000 
-3.92421e-04  1.26404e-04        00000 
-3.12924e-04 -9.12079e-04        00000 
-1.95458e-03 -4.35253e-04        00000 
 2.99858e-04 -7.38429e-04        00000 
-1.42473e-04 -1.24959e-03        00000 
 8.68950e-04 -1.50433e-03        00000 
-3.96872e-04  1.44170e-03        00000 
-2.99655e-04  1.70386e-03        00000 
 4.53986e-04 -9.49262e-04        00000 
-4.55042e-04 -5.87069e-04        00000 
-6.28056e-04  9.40198e-04        00000 
-8.66464e-04  3.79439e-04        00000 
-1.72804e-03  1.51400e-03        00000 
-2.44832e-03  5.18510e-04        00000 
-1.40103e-03 -6.62845e-04        00000 
-1.63493e-04  1.54732e-03        00000 
 3.00428e-04 -1.15570e-04        00000 
-1.27284e-03  8.09780e-04        00000 
-7.74658e-04  1.34188e-03        00000 
-5.62828e-04 -1.54655e-03        00000 
 1.52602e-03 -1.42104e-03        00000 
-3.77986e-04 -2.90728e-04        00000 
-4.83483e-04 -5.12004e-04        00000 
-6.10538e-04 -1.66914e-03        00000 
-1.91035e-04  6.68767e-04        00000 
 2.36097e-04  1.08487e-03        00000 
 1.23271e-03  1.20720e-04        00000 
-1.24514e-03 -1.31208e-03        00000 
-1.63936e-03 -6.16217e-04        00000 
-1.00005e-03 -2.77040e-04        00000 
-1.16386e-03  3.65905e-04        00000 
-4.84543e-04  7.09095e-05        00000 
-1.15085e-03 -4.67403e-04        00000 
-1.03798e-03  1.08747e-03        00000 
-1.51424e-03  1.34568e-03        00000 
-4.76053e-04 -9.89638e-04        00000 
-1.40204e-03 -9.98808e-04        00000 
-4.52155e-04  2.13035e-03        00000 
-4.31883e-04  5.44484e-04        00000 
-2.99989e-04 -5.81213e-04        00000 
-3.94786e-04  5.71375e-04        00000 
-3.19051e-04 -7.78919e-04        00000 
 1.17117e-03  1.13355e-03        00000 
 1.12887e-03  1.30285e-03        00000 
-1.04250e-03  8.72134e-04        00000 
-8.29034e-04 -2.12830e-03        00000 
-1.87144e-03  4.37349e-03        00000 
 2.69888e-04 -3.53937e-04        00000 
 6.69287e-04 -4.89115e-04        00000 
-2.23884e-04 -5.74269e-04        00000 
-8.00805e-04 -3.66111e-04        00000 
 2.48709e-03  4.90162e-04        00000 
 1.71335e-03  1.48258e-03        00000 
-7.34179e-04 -8.51593e-04        00000 
-1.06369e-03 -1.08093e-03        00000 
-1.36396e-03  2.55370e-03        00000 
 9.99465e-04  1.38020e-04        00000 
-1.93335e-04  1.29012e-03        00000 
-4.01896e-05  9.89964e-04        00000 
-2.82023e-04 -1.10245e-03        00000 
 4.33996e-04  1.98742e-03        00000 
 1.13643e-04  1.56311e-03        00000 
 2.63728e-04 -1.06868e-03        00000 
-4.67263e-04 -1.20527e-03        00000 
-6.58914e-04 -4.52851e-05        00000 
 2.80634e-04 -1.28722e-03        00000 
-4.32897e-04 -2.04197e-03        00000 
 1.51602e-03  2.16801e-04        00000 
-2.26618e-03 -2.60795e-04        00000 
 1.85202e-03 -7.18766e-04        00000 
 1.02039e-03  1.37727e-03        00000 
 5.85316e-04  1.71339e-03        00000 
 9.37047e-04 -8.50656e-05        00000 
 2.31546e-03  7.29461e-04        00000 
 1.57510e-03 -2.68515e-04        00000 
 2.33877e-03  1.97078e-03        00000 
 1.75625e-03  3.93165e-04        00000 
 1.01411e-03  4.86015e-04        00000 
 7.98675e-04  3.47176e-04        00000 
 5.54971e-04  3.99416e-04        00000 
 6.59961e-04 -1.32345e-04        00000 
 6.18282e-04  1.31391e-03        00000 
 9.70850e-04  2.95153e-04        00000 
 6.05010e-04 -1.01097e-03        00000 
 7.83857e-04  1.43385e-04        00000 
 6.56704e-04  5.40835e-04        00000 
 4.84566e-04 -9.48256e-04        00000 
 8.60294e-04  2.77182e-04        00000 
 5.72823e-04  3.48629e-04        00000 
-2.44779e-04  1.11039e-03        00000 
-3.35051e-04 -6.90823e-04        00000 
-1.08176e-03 -1.22209e-03        00000 
-1.35335e-03  8.02207e-04        00000 
 2.38444e-04 -8.99880e-04        00000 
 8.36240e-04 -6.02847e-04        00000 
 8.86397e-04  1.77662e-03        00000 
 1.59141e-03  6.29136e-04        00000 
 6.05847e-04  1.98161e-04        00000 
 1.39849e-03  5.06658e-04        00000 
-5.69914e-04 -1.57991e-03        00000 
 1.32574e-03  3.36926e-03        00000 
 1.03137e-03  1.89593e-03        00000 
 1.33232e-03  7.12936e-04        00000 
 8.68348e-04 -2.86189e-04        00000 
 7.99851e-04  1.39110e-03        00000 
 4.58305e-04 -6.99481e-05        00000 
 1.07163e-03  1.54748e-04        00000 
 5.64960e-04 -2.49490e-04        00000 
 1.05361e-03 -2.57003e-04        00000 
 2.86901e-04  7.97104e-04        00000 
-2.13463e-04 -7.02584e-04        00000 
-4.33857e-04 -8.37140e-05        00000 
 2.45949e-04 -3.55219e-04        00000 
-1.52054e-03  1.47180e-03        00000 
 1.50620e-03  1.60938e-03        00000 
 1.92099e-03  7.93189e-04        00000 
 2.56069e-04  8.26913e-04        00000 
 1.76204e-03 -4.08840e-04        00000 
 1.38408e-03  1.27877e-04        00000 
-3.57968e-04 -2.04817e-04        00000 
 2.43306e-03  8.78895e-04        00000 
-1.23380e-04 -1.03045e-03        00000 
 1.48930e-03  5.01021e-04        00000 
 1.12610e-03 -5.44333e-04        00000 
 1.20256e-03  6.62110e-04        00000 
-1.17705e-04  1.47333e-03        00000 
 1.71718e-03 -2.01361e-03        00000 
 1.43443e-04  3.48034e-03        00000 
-4.72959e-04 -7.41446e-04        00000 
-8.36529e-04  2.21880e-03        00000 
 6.16743e-04  2.30607e-04        00000 
-8.51342e-04 -6.65689e-04        00000 
-4.79914e-04  1.02719e-03        00000 
 3.07836e-04 -2.62113e-05        00000 
-4.09543e-04 -8.76052e-04        00000 
-7.28045e-05 -1.22861e-04        00000 
 9.75856e-04 -1.39577e-04        00000 
-1.01984e-03  1.32999e-03        00000 
 5.61833e-04 -4.71420e-04        00000 
-1.12664e-03 -1.11341e-04        00000 
-1.79887e-03  1.03537e-03        00000 
 1.30189e-03 -2.22007e-04        00000 
 9.22252e-04 -9.46159e-04        00000 
-5.28145e-04  9.84969e-04        00000 
 9.24093e-04 -4.15720e-04        00000 
-1.77456e-04  1.29612e-05        00000 
-8.96892e-04 -1.65316e-05        00000 
-7.45948e-04  7.29662e-04        00000 
 2.37060e-04 -5.46612e-05        00000 
-4.56118e-04 -7.92156e-04        00000 
-3.37539e-04  1.55824e-03        00000 
-7.18197e-04 -4.47001e-04        00000 
 1.06054e-04 -6.47872e-04        00000 
-1.04870e-03  2.55108e-03        00000 
-1.87372e-03 -4.18146e-03        00000 
-1.39366e-03 -2.90798e-04        00000 
-4.73133e-04 -9.63620e-04        00000 
-1.31784e-03 -1.96029e-03        00000 
-2.15845e-03 -1.73980e-03        00000 
-3.66029e-04 -9.81939e-04        00000 
 5.73924e-05 -5.77308e-04        00000 
 1.15619e-03 -1.78788e-03        00000 
-3.87274e-04 -3.54221e-04        00000 
 3.13590e-04 -9.19391e-04        00000 
 4.27964e-04  2.30536e-04        00000 
 1.43251e-05  1.12518e-03        00000 
 9.98636e-05 -9.83968e-04        00000 
 5.52256e-04 -4.30180e-04        00000 
-2.75324e-04 -7.59650e-04        00000 
-4.84752e-04 -3.36842e-04        00000 
-3.59390e-04 -1.48780e-04        00000 
 3.78970e-04 -1.55887e-03        00000 
-1.19591e-03  3.21369e-03        00000 
-1.09560e-03 -6.10760e-04        00000 
-3.47928e-04  5.70477e-04        00000 
-1.29636e-03 -9.14681e-04        00000 
 7.98849e-04 -7.98672e-04        00000 
-1.69755e-04 -4.77283e-04        00000 
 6.04167e-04 -1.05208e-03        00000 
-5.64291e-04 -7.15759e-04        00000 
 7.17032e-04 -1.10113e-03        00000 
 1.07251e-03  4.98339e-04        00000 
-7.32145e-06  5.03184e-04        00000 
-1.08941e-03 -8.85001e-05        00000 
-3.91548e-04 -1.75336e-03        00000 
 2.90177e-04 -2.04311e-03        00000 
-8.69711e-04 -1.51796e-03        00000 
-4.14900e-04 -5.98783e-04        00000 
-4.97044e-04  8.55662e-06        00000 
-5.68336e-04 -3.22425e-03        00000 
-9.17599e-04  1.99574e-03        00000 
-3.32775e-04  8.34640e-04        00000 
-6.93002e-04 -1.52136e-03        00000 
 4.69832e-05 -1.36544e-04        00000 
 1.26021e-04 -1.51674e-03        00000 
 5.03014e-04  8.30707e-04        00000 
 3.34528e-04 -7.53275e-04        00000 
-1.52563e-04  8.84219e-04        00000 
-6.39327e-04 -2.01808e-03        00000 
-5.76893e-05 -6.34377e-04        00000 
-1.36720e-03 -1.23634e-03        00000 
-1.15255e-05  1.58276e-05        00000 
 3.24079e-04  1.26254e-04        00000 
-8.06427e-04 -1.60971e-05        00000 
-1.41022e-03 -1.87919e-03        00000 
-4.39051e-04  4.45775e-04        00000 
 6.36215e-04 -4.96787e-04        00000 
-6.84076e-04  2.12534e-03        00000 
 8.27829e-04 -1.51964e-03        00000 
-1.32499e-04  3.13423e-04        00000 
-5.59731e-04  4.37935e-04        00000 
-1.63309e-03 -4.46616e-04        00000 
-1.03061e-03  4.97704e-04        00000 
-8.73112e-04  2.43543e-03        00000 
 5.02350e-04  8.52047e-04        00000 
-5.75656e-04  1.38495e-03        00000 
-3.88756e-05  1.11734e-04        00000 
-1.74325e-05  2.00408e-03        00000 
-1.51290e-03  1.44102e-03        00000 
 4.21583e-04  2.60989e-03        00000 
 1.49459e-03  1.34144e-03        00000 
-2.61580e-04  1.24969e-03        00000 
-8.07163e-04  5.96653e-04        00000 
 3.88185e-04  1.31173e-03        00000 
 9.76424e-04  2.27645e-03        00000 
-1.81831e-04 -5.59811e-04        00000 
 2.87655e-03  3.17942e-03        00000 
 1.15337e-03  1.19872e-03        00000 