<?xml version="1.0" encoding="utf-8"?>
<VTKFile byte_order="LittleEndian" type="UnstructuredGrid" version="0.1">
   <UnstructuredGrid>
      <Piece NumberOfCells="1296" NumberOfPoints="685">
         <Points>
            <DataArray Name="Points" NumberOfComponents="3" format="ascii" type="Float32">
0.0000 0.0000 0.0000
0.0000 0.1111 0.0000
0.0000 0.2222 0.0000
0.0000 0.3333 0.0000
0.0000 0.4444 0.0000
0.0000 0.5556 0.0000
0.0000 0.6667 0.0000
0.0000 0.7778 0.0000
0.0000 0.8889 0.0000
0.0000 1.0000 0.0000
0.2222 0.0000 0.0000
0.2222 0.1111 0.0000
0.2222 0.2222 0.0000
0.2222 0.3333 0.0000
0.2222 0.4444 0.0000
0.2222 0.5556 0.0000
0.2222 0.6667 0.0000
0.2222 0.7778 0.0000
0.2222 0.8889 0.0000
0.2222 1.0000 0.0000
0.4444 0.0000 0.0000
0.4444 0.1111 0.0000
0.4444 0.2222 0.0000
0.4444 0.3333 0.0000
0.4444 0.4444 0.0000
0.4444 0.5556 0.0000
0.4444 0.6667 0.0000
0.4444 0.7778 0.0000
0.4444 0.8889 0.0000
0.4444 1.0000 0.0000
0.6667 0.0000 0.0000
0.6667 0.1111 0.0000
0.6667 0.2222 0.0000
0.6667 0.3333 0.0000
0.6667 0.4444 0.0000
0.6667 0.5556 0.0000
0.6667 0.6667 0.0000
0.6667 0.7778 0.0000
0.6667 0.8889 0.0000
0.6667 1.0000 0.0000
0.8889 0.0000 0.0000
0.8889 0.1111 0.0000
0.8889 0.2222 0.0000
0.8889 0.3333 0.0000
0.8889 0.4444 0.0000
0.8889 0.5556 0.0000
0.8889 0.6667 0.0000
0.8889 0.7778 0.0000
0.8889 0.8889 0.0000
0.8889 1.0000 0.0000
1.1111 0.0000 0.0000
1.1111 0.1111 0.0000
1.1111 0.2222 0.0000
1.1111 0.3333 0.0000
1.1111 0.4444 0.0000
1.1111 0.5556 0.0000
1.1111 0.6667 0.0000
1.1111 0.7778 0.0000
1.1111 0.8889 0.0000
1.1111 1.0000 0.0000
1.3333 0.0000 0.0000
1.3333 0.1111 0.0000
1.3333 0.2222 0.0000
1.3333 0.3333 0.0000
1.3333 0.4444 0.0000
1.3333 0.5556 0.0000
1.3333 0.6667 0.0000
1.3333 0.7778 0.0000
1.3333 0.8889 0.0000
1.3333 1.0000 0.0000
1.5556 0.0000 0.0000
1.5556 0.1111 0.0000
1.5556 0.2222 0.0000
1.5556 0.3333 0.0000
1.5556 0.4444 0.0000
1.5556 0.5556 0.0000
1.5556 0.6667 0.0000
1.5556 0.7778 0.0000
1.5556 0.8889 0.0000
1.5556 1.0000 0.0000
1.7778 0.0000 0.0000
1.7778 0.1111 0.0000
1.7778 0.2222 0.0000
1.7778 0.3333 0.0000
1.7778 0.4444 0.0000
1.7778 0.5556 0.0000
1.7778 0.6667 0.0000
1.7778 0.7778 0.0000
1.7778 0.8889 0.0000
1.7778 1.0000 0.0000
2.0000 0.0000 0.0000
2.0000 0.1111 0.0000
2.0000 0.2222 0.0000
2.0000 0.3333 0.0000
2.0000 0.4444 0.0000
2.0000 0.5556 0.0000
2.0000 0.6667 0.0000
2.0000 0.7778 0.0000
2.0000 0.8889 0.0000
2.0000 1.0000 0.0000
0.1111 0.0556 0.0000
0.1111 0.1667 0.0000
0.1111 0.2778 0.0000
0.1111 0.3889 0.0000
0.1111 0.5000 0.0000
0.1111 0.6111 0.0000
0.1111 0.7222 0.0000
0.1111 0.8333 0.0000
0.1111 0.9444 0.0000
0.3333 0.0556 0.0000
0.3333 0.1667 0.0000
0.3333 0.2778 0.0000
0.3333 0.3889 0.0000
0.3333 0.5000 0.0000
0.3333 0.6111 0.0000
0.3333 0.7222 0.0000
0.3333 0.8333 0.0000
0.3333 0.9444 0.0000
0.5556 0.0556 0.0000
0.5556 0.1667 0.0000
0.5556 0.2778 0.0000
0.5556 0.3889 0.0000
0.5556 0.5000 0.0000
0.5556 0.6111 0.0000
0.5556 0.7222 0.0000
0.5556 0.8333 0.0000
0.5556 0.9444 0.0000
0.7778 0.0556 0.0000
0.7778 0.1667 0.0000
0.7778 0.2778 0.0000
0.7778 0.3889 0.0000
0.7778 0.5000 0.0000
0.7778 0.6111 0.0000
0.7778 0.7222 0.0000
0.7778 0.8333 0.0000
0.7778 0.9444 0.0000
1.0000 0.0556 0.0000
1.0000 0.1667 0.0000
1.0000 0.2778 0.0000
1.0000 0.3889 0.0000
1.0000 0.5000 0.0000
1.0000 0.6111 0.0000
1.0000 0.7222 0.0000
1.0000 0.8333 0.0000
1.0000 0.9444 0.0000
1.2222 0.0556 0.0000
1.2222 0.1667 0.0000
1.2222 0.2778 0.0000
1.2222 0.3889 0.0000
1.2222 0.5000 0.0000
1.2222 0.6111 0.0000
1.2222 0.7222 0.0000
1.2222 0.8333 0.0000
1.2222 0.9444 0.0000
1.4444 0.0556 0.0000
1.4444 0.1667 0.0000
1.4444 0.2778 0.0000
1.4444 0.3889 0.0000
1.4444 0.5000 0.0000
1.4444 0.6111 0.0000
1.4444 0.7222 0.0000
1.4444 0.8333 0.0000
1.4444 0.9444 0.0000
1.6667 0.0556 0.0000
1.6667 0.1667 0.0000
1.6667 0.2778 0.0000
1.6667 0.3889 0.0000
1.6667 0.5000 0.0000
1.6667 0.6111 0.0000
1.6667 0.7222 0.0000
1.6667 0.8333 0.0000
1.6667 0.9444 0.0000
1.8889 0.0556 0.0000
1.8889 0.1667 0.0000
1.8889 0.2778 0.0000
1.8889 0.3889 0.0000
1.8889 0.5000 0.0000
1.8889 0.6111 0.0000
1.8889 0.7222 0.0000
1.8889 0.8333 0.0000
1.8889 0.9444 0.0000
0.0000 0.0556 0.0000
0.0556 0.0278 0.0000
0.0556 0.0833 0.0000
0.0000 0.1667 0.0000
0.0556 0.1389 0.0000
0.0556 0.1944 0.0000
0.0000 0.2778 0.0000
0.0556 0.2500 0.0000
0.0556 0.3056 0.0000
0.0000 0.3889 0.0000
0.0556 0.3611 0.0000
0.0556 0.4167 0.0000
0.0000 0.5000 0.0000
0.0556 0.4722 0.0000
0.0556 0.5278 0.0000
0.0000 0.6111 0.0000
0.0556 0.5833 0.0000
0.0556 0.6389 0.0000
0.0000 0.7222 0.0000
0.0556 0.6944 0.0000
0.0556 0.7500 0.0000
0.0000 0.8333 0.0000
0.0556 0.8056 0.0000
0.0556 0.8611 0.0000
0.0000 0.9444 0.0000
0.0556 0.9167 0.0000
0.0556 0.9722 0.0000
0.2222 0.0556 0.0000
0.2778 0.0278 0.0000
0.2778 0.0833 0.0000
0.2222 0.1667 0.0000
0.2778 0.1389 0.0000
0.2778 0.1944 0.0000
0.2222 0.2778 0.0000
0.2778 0.2500 0.0000
0.2778 0.3056 0.0000
0.2222 0.3889 0.0000
0.2778 0.3611 0.0000
0.2778 0.4167 0.0000
0.2222 0.5000 0.0000
0.2778 0.4722 0.0000
0.2778 0.5278 0.0000
0.2222 0.6111 0.0000
0.2778 0.5833 0.0000
0.2778 0.6389 0.0000
0.2222 0.7222 0.0000
0.2778 0.6944 0.0000
0.2778 0.7500 0.0000
0.2222 0.8333 0.0000
0.2778 0.8056 0.0000
0.2778 0.8611 0.0000
0.2222 0.9444 0.0000
0.2778 0.9167 0.0000
0.2778 0.9722 0.0000
0.4444 0.0556 0.0000
0.5000 0.0278 0.0000
0.5000 0.0833 0.0000
0.4444 0.1667 0.0000
0.5000 0.1389 0.0000
0.5000 0.1944 0.0000
0.4444 0.2778 0.0000
0.5000 0.2500 0.0000
0.5000 0.3056 0.0000
0.4444 0.3889 0.0000
0.5000 0.3611 0.0000
0.5000 0.4167 0.0000
0.4444 0.5000 0.0000
0.5000 0.4722 0.0000
0.5000 0.5278 0.0000
0.4444 0.6111 0.0000
0.5000 0.5833 0.0000
0.5000 0.6389 0.0000
0.4444 0.7222 0.0000
0.5000 0.6944 0.0000
0.5000 0.7500 0.0000
0.4444 0.8333 0.0000
0.5000 0.8056 0.0000
0.5000 0.8611 0.0000
0.4444 0.9444 0.0000
0.5000 0.9167 0.0000
0.5000 0.9722 0.0000
0.6667 0.0556 0.0000
0.7222 0.0278 0.0000
0.7222 0.0833 0.0000
0.6667 0.1667 0.0000
0.7222 0.1389 0.0000
0.7222 0.1944 0.0000
0.6667 0.2778 0.0000
0.7222 0.2500 0.0000
0.7222 0.3056 0.0000
0.6667 0.3889 0.0000
0.7222 0.3611 0.0000
0.7222 0.4167 0.0000
0.6667 0.5000 0.0000
0.7222 0.4722 0.0000
0.7222 0.5278 0.0000
0.6667 0.6111 0.0000
0.7222 0.5833 0.0000
0.7222 0.6389 0.0000
0.6667 0.7222 0.0000
0.7222 0.6944 0.0000
0.7222 0.7500 0.0000
0.6667 0.8333 0.0000
0.7222 0.8056 0.0000
0.7222 0.8611 0.0000
0.6667 0.9444 0.0000
0.7222 0.9167 0.0000
0.7222 0.9722 0.0000
0.8889 0.0556 0.0000
0.9444 0.0278 0.0000
0.9444 0.0833 0.0000
0.8889 0.1667 0.0000
0.9444 0.1389 0.0000
0.9444 0.1944 0.0000
0.8889 0.2778 0.0000
0.9444 0.2500 0.0000
0.9444 0.3056 0.0000
0.8889 0.3889 0.0000
0.9444 0.3611 0.0000
0.9444 0.4167 0.0000
0.8889 0.5000 0.0000
0.9444 0.4722 0.0000
0.9444 0.5278 0.0000
0.8889 0.6111 0.0000
0.9444 0.5833 0.0000
0.9444 0.6389 0.0000
0.8889 0.7222 0.0000
0.9444 0.6944 0.0000
0.9444 0.7500 0.0000
0.8889 0.8333 0.0000
0.9444 0.8056 0.0000
0.9444 0.8611 0.0000
0.8889 0.9444 0.0000
0.9444 0.9167 0.0000
0.9444 0.9722 0.0000
1.1111 0.0556 0.0000
1.1667 0.0278 0.0000
1.1667 0.0833 0.0000
1.1111 0.1667 0.0000
1.1667 0.1389 0.0000
1.1667 0.1944 0.0000
1.1111 0.2778 0.0000
1.1667 0.2500 0.0000
1.1667 0.3056 0.0000
1.1111 0.3889 0.0000
1.1667 0.3611 0.0000
1.1667 0.4167 0.0000
1.1111 0.5000 0.0000
1.1667 0.4722 0.0000
1.1667 0.5278 0.0000
1.1111 0.6111 0.0000
1.1667 0.5833 0.0000
1.1667 0.6389 0.0000
1.1111 0.7222 0.0000
1.1667 0.6944 0.0000
1.1667 0.7500 0.0000
1.1111 0.8333 0.0000
1.1667 0.8056 0.0000
1.1667 0.8611 0.0000
1.1111 0.9444 0.0000
1.1667 0.9167 0.0000
1.1667 0.9722 0.0000
1.3333 0.0556 0.0000
1.3889 0.0278 0.0000
1.3889 0.0833 0.0000
1.3333 0.1667 0.0000
1.3889 0.1389 0.0000
1.3889 0.1944 0.0000
1.3333 0.2778 0.0000
1.3889 0.2500 0.0000
1.3889 0.3056 0.0000
1.3333 0.3889 0.0000
1.3889 0.3611 0.0000
1.3889 0.4167 0.0000
1.3333 0.5000 0.0000
1.3889 0.4722 0.0000
1.3889 0.5278 0.0000
1.3333 0.6111 0.0000
1.3889 0.5833 0.0000
1.3889 0.6389 0.0000
1.3333 0.7222 0.0000
1.3889 0.6944 0.0000
1.3889 0.7500 0.0000
1.3333 0.8333 0.0000
1.3889 0.8056 0.0000
1.3889 0.8611 0.0000
1.3333 0.9444 0.0000
1.3889 0.9167 0.0000
1.3889 0.9722 0.0000
1.5556 0.0556 0.0000
1.6111 0.0278 0.0000
1.6111 0.0833 0.0000
1.5556 0.1667 0.0000
1.6111 0.1389 0.0000
1.6111 0.1944 0.0000
1.5556 0.2778 0.0000
1.6111 0.2500 0.0000
1.6111 0.3056 0.0000
1.5556 0.3889 0.0000
1.6111 0.3611 0.0000
1.6111 0.4167 0.0000
1.5556 0.5000 0.0000
1.6111 0.4722 0.0000
1.6111 0.5278 0.0000
1.5556 0.6111 0.0000
1.6111 0.5833 0.0000
1.6111 0.6389 0.0000
1.5556 0.7222 0.0000
1.6111 0.6944 0.0000
1.6111 0.7500 0.0000
1.5556 0.8333 0.0000
1.6111 0.8056 0.0000
1.6111 0.8611 0.0000
1.5556 0.9444 0.0000
1.6111 0.9167 0.0000
1.6111 0.9722 0.0000
1.7778 0.0556 0.0000
1.8333 0.0278 0.0000
1.8333 0.0833 0.0000
1.7778 0.1667 0.0000
1.8333 0.1389 0.0000
1.8333 0.1944 0.0000
1.7778 0.2778 0.0000
1.8333 0.2500 0.0000
1.8333 0.3056 0.0000
1.7778 0.3889 0.0000
1.8333 0.3611 0.0000
1.8333 0.4167 0.0000
1.7778 0.5000 0.0000
1.8333 0.4722 0.0000
1.8333 0.5278 0.0000
1.7778 0.6111 0.0000
1.8333 0.5833 0.0000
1.8333 0.6389 0.0000
1.7778 0.7222 0.0000
1.8333 0.6944 0.0000
1.8333 0.7500 0.0000
1.7778 0.8333 0.0000
1.8333 0.8056 0.0000
1.8333 0.8611 0.0000
1.7778 0.9444 0.0000
1.8333 0.9167 0.0000
1.8333 0.9722 0.0000
0.1111 0.1111 0.0000
0.1667 0.0833 0.0000
0.1111 0.2222 0.0000
0.1667 0.1944 0.0000
0.1111 0.3333 0.0000
0.1667 0.3056 0.0000
0.1111 0.4444 0.0000
0.1667 0.4167 0.0000
0.1111 0.5556 0.0000
0.1667 0.5278 0.0000
0.1111 0.6667 0.0000
0.1667 0.6389 0.0000
0.1111 0.7778 0.0000
0.1667 0.7500 0.0000
0.1111 0.8889 0.0000
0.1667 0.8611 0.0000
0.1111 1.0000 0.0000
0.1667 0.9722 0.0000
0.3333 0.1111 0.0000
0.3889 0.0833 0.0000
0.3333 0.2222 0.0000
0.3889 0.1944 0.0000
0.3333 0.3333 0.0000
0.3889 0.3056 0.0000
0.3333 0.4444 0.0000
0.3889 0.4167 0.0000
0.3333 0.5556 0.0000
0.3889 0.5278 0.0000
0.3333 0.6667 0.0000
0.3889 0.6389 0.0000
0.3333 0.7778 0.0000
0.3889 0.7500 0.0000
0.3333 0.8889 0.0000
0.3889 0.8611 0.0000
0.3333 1.0000 0.0000
0.3889 0.9722 0.0000
0.5556 0.1111 0.0000
[...]
         <PointData>
            <DataArray Name="fValues" NumberOfComponents="3" format="ascii" type="Float64">
 8.96313e-19 -1.19508e-18        00000 
-3.06279e-18 -9.34957e-19        00000 
-1.11607e-18 -2.07853e-18        00000 
 1.02745e-18 -5.13723e-19        00000 
 7.41617e-18  1.88942e-18        00000 
       00000 -1.15588e-18        00000 
 4.48236e-20 -2.96138e-19        00000 
 9.62359e-19 -3.84944e-19        00000 
 1.16091e-18  2.57981e-18        00000 
       00000  8.96313e-19        00000 
-2.06156e-03 -5.17147e-02        00000 
 5.39907e-03  1.72204e-02        00000 
 3.87505e-03 -1.43119e-02        00000 
 6.44736e-03 -9.84299e-03        00000 
 1.11667e-02 -9.76904e-03        00000 
 1.19998e-02  7.72437e-03        00000 
 1.63889e-02  2.48519e-03        00000 
 7.99483e-03 -1.17775e-03        00000 
-4.07271e-03 -3.03829e-03        00000 
 4.05826e-03  8.96526e-03        00000 
 5.14605e-03 -4.65321e-02        00000 
 1.62233e-02  1.35827e-04        00000 
-7.28094e-03 -6.54456e-03        00000 
-1.03706e-02 -1.36307e-02        00000 
-7.42085e-03 -1.36902e-02        00000 
-7.48776e-03  9.05190e-04        00000 
 2.95146e-03 -3.88138e-03        00000 
 2.05906e-02 -1.53156e-02        00000 
 1.66312e-02  6.19087e-03        00000 
 1.85294e-02  2.21224e-02        00000 
 5.90038e-03 -2.97335e-02        00000 
-8.89459e-03  1.27213e-03        00000 
 3.77878e-03  7.68265e-03        00000 
-2.08255e-02 -9.47746e-03        00000 
 9.82665e-03 -1.08130e-02        00000 
 1.00835e-02  3.36684e-03        00000 
 6.76406e-03  7.57240e-03        00000 
-9.07425e-03 -8.69702e-03        00000 
-1.44556e-02 -4.75704e-03        00000 
 1.62777e-03 -1.84663e-02        00000 
-6.26338e-03  2.52500e-02        00000 
 2.08868e-02  1.93047e-02        00000 
-1.14655e-02 -5.87957e-03        00000 
-9.22164e-03  7.61891e-03        00000 
 3.65300e-03  1.70349e-02        00000 
-1.12572e-02 -5.84048e-03        00000 
-2.57398e-02  2.02057e-02        00000 
-3.69066e-03  8.08263e-03        00000 
-2.94670e-02 -7.94276e-03        00000 
-1.15153e-02  1.32861e-02        00000 
 8.43250e-03  1.70054e-02        00000 
-8.20881e-05 -1.36768e-02        00000 
 2.98413e-03 -5.76231e-03        00000 
 5.34070e-03  1.24493e-02        00000 
 6.14759e-03  1.48183e-03        00000 
-6.32996e-03  9.43597e-03        00000 
-5.43097e-03  1.72899e-02        00000 
-2.44953e-02  2.58560e-03        00000 
-2.62025e-02 -3.24394e-03        00000 
-2.57305e-02  6.95099e-03        00000 
 1.40818e-02  2.56702e-02        00000 
-1.68398e-02 -6.30812e-03        00000 
 5.51306e-03 -2.05084e-03        00000 
 1.36504e-02  2.50529e-02        00000 
 1.98916e-02  9.77565e-03        00000 
 1.41986e-02  1.67204e-02        00000 
-7.80356e-04 -2.91631e-03        00000 
-3.00689e-03  1.68755e-03        00000 
-3.38841e-02  1.24590e-03        00000 
-1.69100e-02  4.14900e-02        00000 
-1.21326e-02 -3.41822e-03        00000 
 3.00751e-02 -2.77552e-03        00000 
 7.93486e-03 -3.02148e-03        00000 
 1.32041e-02  1.24435e-03        00000 
 8.99967e-03  6.19257e-03        00000 
-1.65873e-03 -4.13547e-03        00000 
-5.82081e-03 -6.07797e-04        00000 
-1.55330e-02 -2.17830e-03        00000 
 4.65285e-03 -4.46890e-03        00000 
-3.74226e-03 -2.58447e-02        00000 
 1.19159e-02 -7.84362e-03        00000 
-2.24205e-04 -3.42663e-04        00000 
 4.41391e-03  7.78225e-03        00000 
 3.95269e-03 -6.41486e-03        00000 
 5.89525e-04 -1.75307e-02        00000 
 7.35844e-03 -2.12649e-02        00000 
-4.60312e-03 -3.51841e-03        00000 
-1.41792e-02  1.65751e-02        00000 
-2.79421e-02  2.73692e-02        00000 
-2.71383e-03  7.98084e-03        00000 
-2.00349e-02  3.62134e-03        00000 
 1.39471e-02  6.82684e-03        00000 
 2.05554e-02  2.22335e-03        00000 
 8.31677e-03  2.65685e-03        00000 
 1.25844e-02  1.65587e-03        00000 
 5.30914e-03 -3.04086e-03        00000 
 7.05553e-03  8.79572e-03        00000 
 1.27219e-02  1.81368e-03        00000 
 8.57660e-03 -1.89970e-02        00000 
-2.37295e-02  1.42460e-02        00000 
 8.86116e-03  2.40309e-03        00000 
-4.77615e-03  2.88731e-03        00000 
 1.71868e-02 -1.24437e-02        00000 
-1.14062e-02  3.69376e-03        00000 
-1.97440e-02  2.30910e-03        00000 
-1.34535e-02  1.65624e-02        00000 
-1.19814e-02  9.81800e-03        00000 
-1.33051e-02  1.05886e-02        00000 
 1.07904e-03  7.52743e-04        00000 
-6.54110e-03  1.52449e-02        00000 
 2.83325e-02  7.07328e-03        00000 
 9.18403e-03 -7.71724e-03        00000 
-1.45359e-03 -8.67386e-04        00000 
 1.24731e-02 -4.33636e-03        00000 
-5.06152e-06  1.34179e-02        00000 
 3.13522e-03  8.53686e-03        00000 
-7.79525e-03 -7.13320e-03        00000 
 4.11194e-03 -8.15827e-03        00000 
 1.97123e-02  2.49057e-02        00000 
 1.00361e-02 -1.73268e-04        00000 
-3.52689e-04  1.73420e-02        00000 
-5.26800e-03 -1.16507e-02        00000 
-5.97757e-03 -1.99885e-04        00000 
-1.52030e-03 -6.25917e-03        00000 
 4.69315e-03 -1.51810e-02        00000 
-5.25350e-03 -6.18907e-03        00000 
-4.31150e-03  2.05635e-03        00000 
-3.99240e-03 -3.52543e-03        00000 
 7.89988e-03  3.51949e-04        00000 
 9.21634e-03  1.98387e-03        00000 
 4.27055e-03  3.71999e-03        00000 
-2.06571e-03  1.54284e-02        00000 
 1.05220e-02  6.65620e-03        00000 
 2.01456e-02  1.28005e-02        00000 
-1.00481e-02 -9.89640e-03        00000 
-4.32673e-03  1.11329e-03        00000 
 9.02551e-03  1.06903e-02        00000 
 4.47222e-03  1.81629e-02        00000 
-4.88261e-03 -1.21184e-02        00000 
-4.99243e-03 -4.17514e-03        00000 
 1.83997e-03 -5.99883e-03        00000 
 3.62015e-02  2.71305e-02        00000 
-1.03328e-02  1.43839e-02        00000 
 4.30304e-04  1.50393e-02        00000 
 1.58999e-02  2.49610e-02        00000 
-5.93969e-03  1.57315e-02        00000 
 3.56424e-03  1.27051e-02        00000 
 2.40402e-02  9.58670e-03        00000 
 2.93016e-02  1.03378e-02        00000 
 2.45316e-02  2.25793e-02        00000 
 1.43125e-02  2.17360e-02        00000 
-1.03725e-02  1.10925e-02        00000 
 3.19576e-03  3.18915e-03        00000 
 4.53497e-03 -1.63729e-02        00000 
-1.51179e-03 -8.97399e-03        00000 
-1.90394e-02 -4.35120e-03        00000 
-1.22594e-02 -4.55396e-03        00000 
-6.10559e-03 -2.53204e-03        00000 
-2.15925e-04  6.94675e-03        00000 
-1.38005e-02  2.68684e-03        00000 
-7.83506e-03  1.96340e-02        00000 
 7.03928e-03  1.39941e-02        00000 
-7.07609e-03  6.96890e-03        00000 
-1.34735e-03  1.46996e-03        00000 
 1.26743e-02  1.01372e-03        00000 
-4.85850e-03  1.03174e-02        00000 
 7.20332e-03  2.17597e-03        00000 
 2.42619e-02 -1.30048e-03        00000 
 2.13651e-04  1.55308e-02        00000 
-7.15503e-03  2.47463e-03        00000 
 3.49876e-03  1.25303e-02        00000 
 5.43266e-03  1.35125e-02        00000 
 9.91901e-06 -5.44019e-04        00000 
-1.93942e-03  1.82973e-02        00000 
 7.91671e-03  1.24344e-02        00000 
 1.11904e-02  1.95965e-02        00000 
-6.36514e-03  2.23446e-02        00000 
-1.74038e-02  1.46659e-02        00000 
 1.94815e-03  1.81458e-02        00000 
-1.46575e-03  3.33327e-02        00000 
-1.27350e-03  3.78336e-03        00000 
 2.34042e-18  6.79578e-19        00000 
-2.55899e-03  1.66319e-03        00000 
 2.11323e-02 -1.00609e-02        00000 
-7.62024e-18  4.68395e-19        00000 
 2.13874e-02  1.19637e-03        00000 
 1.78153e-02  6.12205e-03        00000 
 2.92735e-18 -4.87891e-19        00000 
 1.11720e-02 -3.98763e-03        00000 
 2.06357e-02 -3.41035e-03        00000 
 7.15536e-19  1.57567e-18        00000 
 8.28732e-03 -1.02996e-03        00000 
 2.15708e-02  1.29848e-02        00000 
 1.95156e-18 -4.87891e-19        00000 
 3.29844e-02 -7.93233e-03        00000 
 5.24859e-03 -2.03263e-03        00000 
-1.22720e-18 -8.04453e-19        00000 
 5.72022e-03  3.01088e-03        00000 
-5.15499e-04 -9.30400e-03        00000 
 1.21973e-19  9.75782e-19        00000 
-3.08548e-03  1.00011e-02        00000 
 2.07083e-03 -6.11762e-03        00000 
-4.87891e-19  2.43945e-18        00000 
 1.20497e-02 -2.37758e-03        00000 
 3.64130e-03  1.11093e-02        00000 
 4.37175e-20 -9.78642e-19        00000 
 7.91529e-04 -3.96911e-04        00000 
 1.50956e-02 -2.56755e-03        00000 
 4.25610e-04  1.18619e-02        00000 
 4.68148e-03  4.96139e-02        00000 
-5.11201e-03 -1.49347e-02        00000 
-1.47580e-03 -2.09057e-02        00000 
 5.32914e-03  7.67109e-03        00000 
-6.02854e-03 -2.49570e-02        00000 
 1.14730e-02 -2.25301e-02        00000 
 2.24114e-02  1.63518e-02        00000 
 1.48138e-02  1.97089e-03        00000 
 8.81091e-03 -8.31789e-03        00000 
 1.42732e-02 -7.26137e-03        00000 
-8.77831e-05 -1.15684e-03        00000 
 9.85754e-03 -1.59151e-02        00000 
 1.49095e-02 -4.07424e-03        00000 
 9.16236e-03  4.16183e-03        00000 
 7.14133e-03  3.60455e-03        00000 
 1.75394e-02  1.56696e-02        00000 
-4.60271e-03 -1.30385e-02        00000 
 5.60550e-03 -5.25094e-03        00000 
 2.05251e-02 -8.97980e-04        00000 
 1.63832e-02  2.11435e-02        00000 
 4.40919e-03  5.33341e-03        00000 
 1.57766e-02 -2.62756e-04        00000 
 3.11743e-04 -2.40113e-02        00000 
 1.04467e-02  5.45565e-03        00000 
 1.52885e-02  1.45959e-02        00000 
 1.30441e-03 -1.49232e-02        00000 
 1.09524e-02 -1.34995e-02        00000 
 3.08988e-02  2.36916e-02        00000 
 7.58090e-03 -1.58767e-02        00000 
 1.85813e-02 -2.54767e-02        00000 
-9.88251e-04  1.08400e-02        00000 
-4.39483e-04 -1.07520e-02        00000 
 1.60069e-03  7.96632e-03        00000 
-5.79374e-03  1.60071e-02        00000 
 1.62654e-03  9.50526e-03        00000 
 1.71414e-02  9.55545e-03        00000 
 7.48021e-03 -2.09943e-02        00000 
-5.68250e-03 -5.67131e-03        00000 
-9.72134e-03 -1.36117e-02        00000 
-2.26301e-02 -1.07767e-02        00000 
 4.19446e-03  5.30072e-03        00000 
-8.82485e-03 -1.63089e-02        00000 
-9.82333e-03 -1.58711e-02        00000 
 1.87585e-03  6.81218e-04        00000 
-4.49230e-03 -2.35233e-02        00000 
-1.90596e-03 -3.05819e-02        00000 
-1.89389e-02 -1.70337e-02        00000 
 4.48349e-03 -1.22922e-02        00000 
 4.82963e-03 -3.71187e-03        00000 
-7.38838e-03 -1.45570e-03        00000 
-4.79173e-03  1.61141e-02        00000 
 2.02675e-03  2.56793e-02        00000 
 6.04881e-03  3.03107e-03        00000 
 2.49907e-04  1.35599e-02        00000 
 1.85014e-03  3.41430e-02        00000 
 1.73997e-02 -1.51555e-02        00000 
-8.84887e-03 -7.55979e-03        00000 
 2.31111e-02  1.06037e-02        00000 
 2.67670e-02  2.08805e-02        00000 
-3.30303e-03 -3.73576e-03        00000 
 1.34868e-02  1.27268e-02        00000 
 6.58008e-03  1.10323e-03        00000 
-2.58220e-03  2.16982e-02        00000 
 1.99924e-02  1.12569e-02        00000 
 4.11446e-03  1.92052e-03        00000 
 2.88690e-03  7.09641e-03        00000 
 4.02881e-03  2.05001e-02        00000 
-4.11354e-03  1.38413e-02        00000 
-1.45195e-02  8.64151e-03        00000 
 3.61416e-03 -5.51037e-03        00000 
-2.18336e-02  7.36670e-03        00000 
-1.93638e-02  2.50963e-04        00000 
-1.77213e-03  7.12433e-04        00000 
-2.03218e-02  2.86999e-03        00000 
-2.36053e-02  1.72928e-03        00000 
-1.48617e-02  1.06819e-02        00000 
-6.44932e-03  5.71620e-03        00000 
-1.18712e-02 -8.78475e-04        00000 
 2.79772e-02 -1.52840e-02        00000 
 6.89085e-03  9.92257e-03        00000 
-2.31069e-02 -2.40052e-02        00000 
 1.25785e-02 -5.34590e-02        00000 
-1.69264e-02  5.23185e-02        00000 
 1.03701e-02  6.01206e-03        00000 
-5.55287e-03  1.05801e-02        00000 
-1.11405e-02  1.35457e-02        00000 
 5.73434e-03  6.33320e-03        00000 
-7.79042e-04 -1.12860e-02        00000 
-1.01919e-03 -8.06741e-03        00000 
-1.61570e-03  6.75350e-03        00000 
-3.82015e-03 -3.95928e-03        00000 
-2.24524e-02 -1.41779e-02        00000 
-1.99796e-02  8.22733e-03        00000 
 5.79200e-03 -4.59639e-03        00000 
-2.12957e-02 -6.12239e-03        00000 
-4.79936e-03  1.32816e-03        00000 
-1.98336e-03 -1.62537e-02        00000 
 3.36556e-02  4.96028e-03        00000 
-2.61048e-03  1.58628e-02        00000 
 1.56817e-02  2.32958e-03        00000 
 9.33675e-03  7.26413e-03        00000 
-1.52795e-02  9.49316e-04        00000 
-4.11538e-03 -1.51925e-02        00000 
-3.12889e-03  7.20072e-03        00000 
-9.53524e-03 -4.05281e-03        00000 
-1.02038e-02 -1.19257e-02        00000 
-4.38568e-03  1.98694e-02        00000 
-1.61660e-02 -2.01332e-02        00000 
-3.05550e-03 -4.27967e-02        00000 
 5.57415e-03  1.08624e-02        00000 
 1.95271e-05 -2.39506e-03        00000 
-5.79887e-04 -4.18158e-03        00000 
 1.13528e-03  4.45616e-03        00000 
 2.12438e-02  8.47575e-03        00000 
 1.36125e-03  1.13680e-03        00000 
 3.78895e-03 -5.98503e-03        00000 
 3.53670e-03  1.17026e-02        00000 
 2.38143e-03 -1.40272e-03        00000 
-9.78756e-03 -1.81854e-02        00000 
-3.07246e-03  2.69248e-02        00000 
 3.30049e-03  5.64545e-04        00000 
 1.29971e-03 -1.29016e-03        00000 
 5.74698e-03  8.42774e-03        00000 
 1.91381e-03 -4.25400e-05        00000 
-6.11717e-03  7.80151e-03        00000 
-1.09776e-03  1.16282e-02        00000 
-5.97398e-03  5.33287e-03        00000 
-2.63875e-03  1.03196e-02        00000 
-3.40755e-03  7.60033e-03        00000 
-1.93782e-02  1.03973e-02        00000 
-5.13201e-03 -7.96939e-03        00000 
-2.65504e-02  1.04323e-02        00000 
-8.47143e-03  5.71801e-03        00000 
-6.98438e-03 -1.91167e-02        00000 
-1.81399e-02  2.66387e-02        00000 
 6.59448e-03  1.16646e-02        00000 
-1.23522e-03  2.03926e-02        00000 
-2.34255e-02  2.05652e-02        00000 
 2.55147e-04 -1.31029e-02        00000 
 7.53748e-03  2.77072e-02        00000 
-4.81284e-03  5.94299e-03        00000 
-4.31902e-03  2.44598e-03        00000 
-1.52589e-02  7.54391e-03        00000 
-2.10749e-02 -2.43301e-02        00000 
-1.24837e-03  5.83487e-03        00000 
-1.34918e-02  7.61166e-03        00000 
-3.07732e-03 -1.21374e-02        00000 
-2.63325e-03  1.64363e-02        00000 
 2.47766e-03 -5.74302e-03        00000 
-4.39398e-03 -1.27318e-02        00000 
-8.01723e-03  3.36583e-02        00000 
-1.04991e-03 -2.48331e-03        00000 
-2.51928e-02  1.34427e-03        00000 
-1.16386e-02  3.25797e-02        00000 
-2.28210e-02  3.77430e-03        00000 
-2.10385e-02  9.80631e-03        00000 
-9.87518e-03  6.45269e-03        00000 
 1.70689e-02  7.19450e-03        00000 
-2.15395e-02 -7.27465e-03        00000 
-2.40181e-03  2.32683e-02        00000 
-3.32678e-04 -5.08672e-02        00000 
 3.32072e-03 -7.38797e-03        00000 
 3.74278e-03 -1.78762e-02        00000 
-1.26412e-02  1.30813e-02        00000 
 1.46409e-02  9.41548e-03        00000 
-1.35838e-03 -9.68987e-04        00000 
-1.28753e-02  1.44638e-02        00000 
 2.27740e-02  9.30319e-03        00000 
-2.46740e-02  4.84449e-03        00000 
-7.49867e-03  1.38654e-02        00000 
 7.53672e-03 -1.56086e-03        00000 
-5.74633e-03  1.93129e-02        00000 
-2.72955e-02  1.59512e-02        00000 
 7.63274e-03 -1.37935e-02        00000 
-8.13216e-03  6.76027e-03        00000 
-1.83779e-03  2.30941e-02        00000 
 6.36258e-04  1.56904e-03        00000 
-1.46950e-03  2.72860e-02        00000 
-1.23983e-02  1.67152e-03        00000 
 7.41251e-03  9.33282e-03        00000 
 4.37222e-03  2.75449e-02        00000 
 2.46920e-02  1.29527e-02        00000 
-1.10046e-02  4.07917e-03        00000 
-8.79903e-03  1.78448e-02        00000 
-1.62744e-02  1.92000e-02        00000 
-1.89563e-02  3.34290e-04        00000 
-1.57104e-03 -1.33173e-02        00000 
 1.62492e-03  3.20268e-02        00000 
-4.79727e-03  5.99714e-03        00000 
 1.72926e-02  2.16796e-02        00000 
 2.66098e-02 -2.16397e-02        00000 
-5.19552e-03 -5.28496e-03        00000 
 1.90035e-02  2.86184e-03        00000 
 3.75960e-02 -8.21221e-03        00000 
-6.40735e-03  6.90904e-03        00000 
 1.52492e-02  1.70820e-02        00000 
 1.26675e-02 -1.60293e-03        00000 
-8.21544e-03 -1.16345e-02        00000 
 1.98550e-03 -8.54801e-03        00000 
-2.27779e-04  1.90185e-04        00000 
-3.17354e-03 -6.20272e-03        00000 
-1.48218e-02 -4.52993e-03        00000 
 3.47134e-03  1.69287e-04        00000 
 1.19849e-02 -4.28680e-03        00000 
-1.26083e-02 -6.46019e-03        00000 
 1.38449e-03 -3.09855e-03        00000 
 6.54738e-03  7.33408e-03        00000 
-1.53539e-02  1.38339e-03        00000 
 1.87677e-02  2.05852e-02        00000 
-3.22492e-03  1.96806e-02        00000 
-8.50823e-03  1.27930e-02        00000 
 1.41303e-02  2.27230e-02        00000 
-3.66780e-03  6.46070e-03        00000 
-8.76908e-03  1.60607e-02        00000 
-3.95775e-03 -2.84762e-02        00000 
-1.54540e-02 -1.58003e-02        00000 
-8.68535e-03 -2.75718e-02        00000 
 1.62914e-02 -1.60174e-02        00000 
 6.51733e-03 -1.76492e-02        00000 
 1.17417e-02 -8.15101e-03        00000 
-1.41263e-03 -1.61263e-02        00000 
-1.57906e-02  1.25172e-03        00000 
-3.89253e-03 -3.01443e-03        00000 
 2.01163e-03  3.17862e-03        00000 
 8.88127e-04 -5.00449e-03        00000 
 6.52741e-03  1.05086e-02        00000 
 3.90449e-03 -1.76698e-03        00000 
 2.61007e-03 -9.38672e-03        00000 
 3.73530e-03  1.12555e-02        00000 
-5.78233e-03  3.45307e-03        00000 
 6.15062e-03  6.40624e-03        00000 
 1.35503e-02  9.87746e-03        00000 
 3.34375e-03 -3.24294e-03        00000 
-2.22904e-03  1.17053e-02        00000 
 1.73920e-02 -3.11288e-02        00000 
-3.30820e-03  3.74160e-02        00000 
 1.14731e-02 -1.71141e-02        00000 
-3.46546e-03  2.12895e-02        00000 
 9.88442e-03 -2.98448e-03        00000 
 1.80327e-03  3.21606e-02        00000 
 1.65629e-02  6.88409e-03        00000 
-1.39515e-03  3.70199e-02        00000 
 1.71885e-02  3.72118e-04        00000 
 7.02112e-03  2.59605e-02        00000 
-2.88266e-03 -8.65623e-04        00000 
 1.51263e-02  5.88456e-03        00000 
-1.56523e-02  1.03007e-02        00000 
 2.71939e-03  5.77504e-03        00000 
-2.18474e-02 -1.48939e-02        00000 
 7.67287e-03  2.12576e-02        00000 
 7.74358e-03 -3.29406e-02        00000 
 1.17706e-02  2.16761e-02        00000 
 6.24564e-03 -3.41499e-03        00000 
 1.46117e-02  7.91505e-03        00000 
-1.11234e-02  5.87369e-03        00000 
-3.85106e-02  9.81709e-03        00000 
-1.62984e-03 -8.27417e-03        00000 
-2.16512e-02  1.78372e-04        00000 
 9.35401e-03  3.63698e-03        00000 
-2.83849e-03  2.99573e-02        00000 
 8.19143e-03  1.32869e-02        00000 
 2.45621e-03 -3.41677e-03        00000 
 1.09601e-02  1.82108e-02        00000 
-6.41833e-03 -8.09088e-03        00000 
-5.26568e-03  3.56525e-03        00000 
 9.79158e-03  1.64603e-02        00000 
-4.59489e-03 -3.43168e-03        00000 
 3.73072e-02 -1.30394e-02        00000 
-4.12125e-03  4.57248e-02        00000 
 3.13358e-03  5.74389e-03        00000 
 1.86500e-03 -5.25849e-03        00000 
 1.47319e-02  1.62034e-02        00000 
 2.49795e-03  1.38233e-02        00000 
 1.86572e-02  1.83959e-02        00000 
-1.48391e-02  2.20388e-02        00000 
 1.20238e-03 -2.41758e-03        00000 
-1.23690e-02 -1.42882e-02        00000 
 4.96489e-03 -6.41181e-03        00000 
-1.02613e-03  1.63345e-02        00000 
 4.27065e-03  3.62172e-03        00000 
-1.08007e-02  1.40047e-02        00000 
 1.36848e-02 -2.19857e-02        00000 
-1.57414e-02  9.52621e-03        00000 
-1.06065e-02  1.82488e-02        00000 
-6.66875e-04 -1.53122e-02        00000 
 9.29526e-04 -1.76412e-03        00000 
-1.49549e-02 -8.57435e-04        00000 
 8.07610e-03  6.67118e-03        00000 