<?xml version="1.0" encoding="utf-8"?>
<VTKFile byte_order="LittleEndian" type="UnstructuredGrid" version="0.1">
   <UnstructuredGrid>
      <Piece NumberOfCells="1296" NumberOfPoints="685">
         <Points>
            <DataArray Name="Points" NumberOfComponents="3" format="ascii" type="Float32">
0.0000 0.0000 0.0000
0.0000 0.1111 0.0000
0.0000 0.2222 0.0000
0.0000 0.3333 0.0000
0.0000 0.4444 0.0000
0.0000 0.5556 0.0000
0.0000 0.6667 0.0000
0.0000 0.7778 0.0000
0.0000 0.8889 0.0000
0.0000 1.0000 0.0000
0.2222 0.0000 0.0000
0.2222 0.1111 0.0000
0.2222 0.2222 0.0000
0.2222 0.3333 0.0000
0.2222 0.4444 0.0000
0.2222 0.5556 0.0000
0.2222 0.6667 0.0000
0.2222 0.7778 0.0000
0.2222 0.8889 0.0000
0.2222 1.0000 0.0000
0.4444 0.0000 0.0000
0.4444 0.1111 0.0000
0.4444 0.2222 0.0000
0.4444 0.3333 0.0000
0.4444 0.4444 0.0000
0.4444 0.5556 0.0000
0.4444 0.6667 0.0000
0.4444 0.7778 0.0000
0.4444 0.8889 0.0000
0.4444 1.0000 0.0000
0.6667 0.0000 0.0000
0.6667 0.1111 0.0000
0.6667 0.2222 0.0000
0.6667 0.3333 0.0000
0.6667 0.4444 0.0000
0.6667 0.5556 0.0000
0.6667 0.6667 0.0000
0.6667 0.7778 0.0000
0.6667 0.8889 0.0000
0.6667 1.0000 0.0000
0.8889 0.0000 0.0000
0.8889 0.1111 0.0000
0.8889 0.2222 0.0000
0.8889 0.3333 0.0000
0.8889 0.4444 0.0000
0.8889 0.5556 0.0000
0.8889 0.6667 0.0000
0.8889 0.7778 0.0000
0.8889 0.8889 0.0000
0.8889 1.0000 0.0000
1.1111 0.0000 0.0000
1.1111 0.1111 0.0000
1.1111 0.2222 0.0000
1.1111 0.3333 0.0000
1.1111 0.4444 0.0000
1.1111 0.5556 0.0000
1.1111 0.6667 0.0000
1.1111 0.7778 0.0000
1.1111 0.8889 0.0000
1.1111 1.0000 0.0000
1.3333 0.0000 0.0000
1.3333 0.1111 0.0000
1.3333 0.2222 0.0000
1.3333 0.3333 0.0000
1.3333 0.4444 0.0000
1.3333 0.5556 0.0000
1.3333 0.6667 0.0000
1.3333 0.7778 0.0000
1.3333 0.8889 0.0000
1.3333 1.0000 0.0000
1.5556 0.0000 0.0000
1.5556 0.1111 0.0000
1.5556 0.2222 0.0000
1.5556 0.3333 0.0000
1.5556 0.4444 0.0000
1.5556 0.5556 0.0000
1.5556 0.6667 0.0000
1.5556 0.7778 0.0000
1.5556 0.8889 0.0000
1.5556 1.0000 0.0000
1.7778 0.0000 0.0000
1.7778 0.1111 0.0000
1.7778 0.2222 0.0000
1.7778 0.3333 0.0000
1.7778 0.4444 0.0000
1.7778 0.5556 0.0000
1.7778 0.6667 0.0000
1.7778 0.7778 0.0000
1.7778 0.8889 0.0000
1.7778 1.0000 0.0000
2.0000 0.0000 0.0000
2.0000 0.1111 0.0000
2.0000 0.2222 0.0000
2.0000 0.3333 0.0000
2.0000 0.4444 0.0000
2.0000 0.5556 0.0000
2.0000 0.6667 0.0000
2.0000 0.7778 0.0000
2.0000 0.8889 0.0000
2.0000 1.0000 0.0000
0.1111 0.0556 0.0000
0.1111 0.1667 0.0000
0.1111 0.2778 0.0000
0.1111 0.3889 0.0000
0.1111 0.5000 0.0000
0.1111 0.6111 0.0000
0.1111 0.7222 0.0000
0.1111 0.8333 0.0000
0.1111 0.9444 0.0000
0.3333 0.0556 0.0000
0.3333 0.1667 0.0000
0.3333 0.2778 0.0000
0.3333 0.3889 0.0000
0.3333 0.5000 0.0000
0.3333 0.6111 0.0000
0.3333 0.7222 0.0000
0.3333 0.8333 0.0000
0.3333 0.9444 0.0000
0.5556 0.0556 0.0000
0.5556 0.1667 0.0000
0.5556 0.2778 0.0000
0.5556 0.3889 0.0000
0.5556 0.5000 0.0000
0.5556 0.6111 0.0000
0.5556 0.7222 0.0000
0.5556 0.8333 0.0000
0.5556 0.9444 0.0000
0.7778 0.0556 0.0000
0.7778 0.1667 0.0000
0.7778 0.2778 0.0000
0.7778 0.3889 0.0000
0.7778 0.5000 0.0000
0.7778 0.6111 0.0000
0.7778 0.7222 0.0000
0.7778 0.8333 0.0000
0.7778 0.9444 0.0000
1.0000 0.0556 0.0000
1.0000 0.1667 0.0000
1.0000 0.2778 0.0000
1.0000 0.3889 0.0000
1.0000 0.5000 0.0000
1.0000 0.6111 0.0000
1.0000 0.7222 0.0000
1.0000 0.8333 0.0000
1.0000 0.9444 0.0000
1.2222 0.0556 0.0000
1.2222 0.1667 0.0000
1.2222 0.2778 0.0000
1.2222 0.3889 0.0000
1.2222 0.5000 0.0000
1.2222 0.6111 0.0000
1.2222 0.7222 0.0000
1.2222 0.8333 0.0000
1.2222 0.9444 0.0000
1.4444 0.0556 0.0000
1.4444 0.1667 0.0000
1.4444 0.2778 0.0000
1.4444 0.3889 0.0000
1.4444 0.5000 0.0000
1.4444 0.6111 0.0000
1.4444 0.7222 0.0000
1.4444 0.8333 0.0000
1.4444 0.9444 0.0000
1.6667 0.0556 0.0000
1.6667 0.1667 0.0000
1.6667 0.2778 0.0000
1.6667 0.3889 0.0000
1.6667 0.5000 0.0000
1.6667 0.6111 0.0000
1.6667 0.7222 0.0000
1.6667 0.8333 0.0000
1.6667 0.9444 0.0000
1.8889 0.0556 0.0000
1.8889 0.1667 0.0000
1.8889 0.2778 0.0000
1.8889 0.3889 0.0000
1.8889 0.5000 0.0000
1.8889 0.6111 0.0000
1.8889 0.7222 0.0000
1.8889 0.8333 0.0000
1.8889 0.9444 0.0000
0.0000 0.0556 0.0000
0.0556 0.0278 0.0000
0.0556 0.0833 0.0000
0.0000 0.1667 0.0000
0.0556 0.1389 0.0000
0.0556 0.1944 0.0000
0.0000 0.2778 0.0000
0.0556 0.2500 0.0000
0.0556 0.3056 0.0000
0.0000 0.3889 0.0000
0.0556 0.3611 0.0000
0.0556 0.4167 0.0000
0.0000 0.5000 0.0000
0.0556 0.4722 0.0000
0.0556 0.5278 0.0000
0.0000 0.6111 0.0000
0.0556 0.5833 0.0000
0.0556 0.6389 0.0000
0.0000 0.7222 0.0000
0.0556 0.6944 0.0000
0.0556 0.7500 0.0000
0.0000 0.8333 0.0000
0.0556 0.8056 0.0000
0.0556 0.8611 0.0000
0.0000 0.9444 0.0000
0.0556 0.9167 0.0000
0.0556 0.9722 0.0000
0.2222 0.0556 0.0000
0.2778 0.0278 0.0000
0.2778 0.0833 0.0000
0.2222 0.1667 0.0000
0.2778 0.1389 0.0000
0.2778 0.1944 0.0000
0.2222 0.2778 0.0000
0.2778 0.2500 0.0000
0.2778 0.3056 0.0000
0.2222 0.3889 0.0000
0.2778 0.3611 0.0000
0.2778 0.4167 0.0000
0.2222 0.5000 0.0000
0.2778 0.4722 0.0000
0.2778 0.5278 0.0000
0.2222 0.6111 0.0000
0.2778 0.5833 0.0000
0.2778 0.6389 0.0000
0.2222 0.7222 0.0000
0.2778 0.6944 0.0000
0.2778 0.7500 0.0000
0.2222 0.8333 0.0000
0.2778 0.8056 0.0000
0.2778 0.8611 0.0000
0.2222 0.9444 0.0000
0.2778 0.9167 0.0000
0.2778 0.9722 0.0000
0.4444 0.0556 0.0000
0.5000 0.0278 0.0000
0.5000 0.0833 0.0000
0.4444 0.1667 0.0000
0.5000 0.1389 0.0000
0.5000 0.1944 0.0000
0.4444 0.2778 0.0000
0.5000 0.2500 0.0000
0.5000 0.3056 0.0000
0.4444 0.3889 0.0000
0.5000 0.3611 0.0000
0.5000 0.4167 0.0000
0.4444 0.5000 0.0000
0.5000 0.4722 0.0000
0.5000 0.5278 0.0000
0.4444 0.6111 0.0000
0.5000 0.5833 0.0000
0.5000 0.6389 0.0000
0.4444 0.7222 0.0000
0.5000 0.6944 0.0000
0.5000 0.7500 0.0000
0.4444 0.8333 0.0000
0.5000 0.8056 0.0000
0.5000 0.8611 0.0000
0.4444 0.9444 0.0000
0.5000 0.9167 0.0000
0.5000 0.9722 0.0000
0.6667 0.0556 0.0000
0.7222 0.0278 0.0000
0.7222 0.0833 0.0000
0.6667 0.1667 0.0000
0.7222 0.1389 0.0000
0.7222 0.1944 0.0000
0.6667 0.2778 0.0000
0.7222 0.2500 0.0000
0.7222 0.3056 0.0000
0.6667 0.3889 0.0000
0.7222 0.3611 0.0000
0.7222 0.4167 0.0000
0.6667 0.5000 0.0000
0.7222 0.4722 0.0000
0.7222 0.5278 0.0000
0.6667 0.6111 0.0000
0.7222 0.5833 0.0000
0.7222 0.6389 0.0000
0.6667 0.7222 0.0000
0.7222 0.6944 0.0000
0.7222 0.7500 0.0000
0.6667 0.8333 0.0000
0.7222 0.8056 0.0000
0.7222 0.8611 0.0000
0.6667 0.9444 0.0000
0.7222 0.9167 0.0000
0.7222 0.9722 0.0000
0.8889 0.0556 0.0000
0.9444 0.0278 0.0000
0.9444 0.0833 0.0000
0.8889 0.1667 0.0000
0.9444 0.1389 0.0000
0.9444 0.1944 0.0000
0.8889 0.2778 0.0000
0.9444 0.2500 0.0000
0.9444 0.3056 0.0000
0.8889 0.3889 0.0000
0.9444 0.3611 0.0000
0.9444 0.4167 0.0000
0.8889 0.5000 0.0000
0.9444 0.4722 0.0000
0.9444 0.5278 0.0000
0.8889 0.6111 0.0000
0.9444 0.5833 0.0000
0.9444 0.6389 0.0000
0.8889 0.7222 0.0000
0.9444 0.6944 0.0000
0.9444 0.7500 0.0000
0.8889 0.8333 0.0000
0.9444 0.8056 0.0000
0.9444 0.8611 0.0000
0.8889 0.9444 0.0000
0.9444 0.9167 0.0000
0.9444 0.9722 0.0000
1.1111 0.0556 0.0000
1.1667 0.0278 0.0000
1.1667 0.0833 0.0000
1.1111 0.1667 0.0000
1.1667 0.1389 0.0000
1.1667 0.1944 0.0000
1.1111 0.2778 0.0000
1.1667 0.2500 0.0000
1.1667 0.3056 0.0000
1.1111 0.3889 0.0000
1.1667 0.3611 0.0000
1.1667 0.4167 0.0000
1.1111 0.5000 0.0000
1.1667 0.4722 0.0000
1.1667 0.5278 0.0000
1.1111 0.6111 0.0000
1.1667 0.5833 0.0000
1.1667 0.6389 0.0000
1.1111 0.7222 0.0000
1.1667 0.6944 0.0000
1.1667 0.7500 0.0000
1.1111 0.8333 0.0000
1.1667 0.8056 0.0000
1.1667 0.8611 0.0000
1.1111 0.9444 0.0000
1.1667 0.9167 0.0000
1.1667 0.9722 0.0000
1.3333 0.0556 0.0000
1.3889 0.0278 0.0000
1.3889 0.0833 0.0000
1.3333 0.1667 0.0000
1.3889 0.1389 0.0000
1.3889 0.1944 0.0000
1.3333 0.2778 0.0000
1.3889 0.2500 0.0000
1.3889 0.3056 0.0000
1.3333 0.3889 0.0000
1.3889 0.3611 0.0000
1.3889 0.4167 0.0000
1.3333 0.5000 0.0000
1.3889 0.4722 0.0000
1.3889 0.5278 0.0000
1.3333 0.6111 0.0000
1.3889 0.5833 0.0000
1.3889 0.6389 0.0000
1.3333 0.7222 0.0000
1.3889 0.6944 0.0000
1.3889 0.7500 0.0000
1.3333 0.8333 0.0000
1.3889 0.8056 0.0000
1.3889 0.8611 0.0000
1.3333 0.9444 0.0000
1.3889 0.9167 0.0000
1.3889 0.9722 0.0000
1.5556 0.0556 0.0000
1.6111 0.0278 0.0000
1.6111 0.0833 0.0000
1.5556 0.1667 0.0000
1.6111 0.1389 0.0000
1.6111 0.1944 0.0000
1.5556 0.2778 0.0000
1.6111 0.2500 0.0000
1.6111 0.3056 0.0000
1.5556 0.3889 0.0000
1.6111 0.3611 0.0000
1.6111 0.4167 0.0000
1.5556 0.5000 0.0000
1.6111 0.4722 0.0000
1.6111 0.5278 0.0000
1.5556 0.6111 0.0000
1.6111 0.5833 0.0000
1.6111 0.6389 0.0000
1.5556 0.7222 0.0000
1.6111 0.6944 0.0000
1.6111 0.7500 0.0000
1.5556 0.8333 0.0000
1.6111 0.8056 0.0000
1.6111 0.8611 0.0000
1.5556 0.9444 0.0000
1.6111 0.9167 0.0000
1.6111 0.9722 0.0000
1.7778 0.0556 0.0000
1.8333 0.0278 0.0000
1.8333 0.0833 0.0000
1.7778 0.1667 0.0000
1.8333 0.1389 0.0000
1.8333 0.1944 0.0000
1.7778 0.2778 0.0000
1.8333 0.2500 0.0000
1.8333 0.3056 0.0000
1.7778 0.3889 0.0000
1.8333 0.3611 0.0000
1.8333 0.4167 0.0000
1.7778 0.5000 0.0000
1.8333 0.4722 0.0000
1.8333 0.5278 0.0000
1.7778 0.6111 0.0000
1.8333 0.5833 0.0000
1.8333 0.6389 0.0000
1.7778 0.7222 0.0000
1.8333 0.6944 0.0000
1.8333 0.7500 0.0000
1.7778 0.8333 0.0000
1.8333 0.8056 0.0000
1.8333 0.8611 0.0000
1.7778 0.9444 0.0000
1.8333 0.9167 0.0000
1.8333 0.9722 0.0000
0.1111 0.1111 0.0000
0.1667 0.0833 0.0000
0.1111 0.2222 0.0000
0.1667 0.1944 0.0000
0.1111 0.3333 0.0000
0.1667 0.3056 0.0000
0.1111 0.4444 0.0000
0.1667 0.4167 0.0000
0.1111 0.5556 0.0000
0.1667 0.5278 0.0000
0.1111 0.6667 0.0000
0.1667 0.6389 0.0000
0.1111 0.7778 0.0000
0.1667 0.7500 0.0000
0.1111 0.8889 0.0000
0.1667 0.8611 0.0000
0.1111 1.0000 0.0000
0.1667 0.9722 0.0000
0.3333 0.1111 0.0000
0.3889 0.0833 0.0000
0.3333 0.2222 0.0000
0.3889 0.1944 0.0000
0.3333 0.3333 0.0000
0.3889 0.3056 0.0000
0.3333 0.4444 0.0000
0.3889 0.4167 0.0000
0.3333 0.5556 0.0000
0.3889 0.5278 0.0000
0.3333 0.6667 0.0000
0.3889 0.6389 0.0000
0.3333 0.7778 0.0000
0.3889 0.7500 0.0000
0.3333 0.8889 0.0000
0.3889 0.8611 0.0000
0.3333 1.0000 0.0000
0.3889 0.9722 0.0000
0.5556 0.1111 0.0000
[...]
         <PointData>
            <DataArray Name="fValues" NumberOfComponents="3" format="ascii" type="Float64">
 1.19508e-18 -1.79263e-18        00000 
-2.70815e-18 -1.28960e-18        00000 
-2.02792e-18 -1.57539e-18        00000 
 3.21077e-18 -2.05489e-18        00000 
-3.93850e-18  2.11934e-18        00000 
       00000  2.05489e-18        00000 
-8.56181e-18  3.86792e-19        00000 
 1.79640e-18 -1.15483e-18        00000 
       00000 -5.15962e-19        00000 
-2.98771e-19 -2.39017e-18        00000 
-4.93795e-03 -1.36419e-02        00000 
 1.05661e-03 -2.66307e-02        00000 
 4.31610e-03 -4.60293e-03        00000 
-4.62131e-02 -4.04241e-02        00000 
-3.41116e-02  6.93011e-03        00000 
-4.28196e-02  1.59234e-02        00000 
-4.17998e-02  1.01344e-02        00000 
-4.90447e-02  2.50225e-02        00000 
-1.65869e-02 -8.06470e-03        00000 
-1.27489e-02 -1.23414e-01        00000 
-8.30072e-03  7.09592e-02        00000 
-3.11883e-02  3.59024e-02        00000 
 1.83833e-02 -2.34021e-02        00000 
 2.08834e-02 -1.84550e-02        00000 
-6.93593e-02 -3.08241e-02        00000 
 5.51912e-02  5.34512e-02        00000 
 1.96795e-02  4.97708e-03        00000 
-1.96711e-02 -4.33822e-02        00000 
-4.18694e-03 -1.17035e-02        00000 
-1.39683e-02 -3.98451e-02        00000 
 4.83989e-03  1.05438e-01        00000 
 1.71799e-02  1.59814e-03        00000 
 2.09708e-02 -1.45812e-02        00000 
-2.10161e-02 -3.04859e-02        00000 
-4.56788e-02 -1.51102e-02        00000 
 5.32518e-02  7.09119e-02        00000 
-4.16654e-03  1.32463e-02        00000 
-6.21276e-02 -1.75541e-02        00000 
-9.78800e-03 -1.71968e-02        00000 
-3.57435e-03 -1.90133e-02        00000 
-1.92790e-02  1.12787e-01        00000 
-1.00312e-02  6.86888e-02        00000 
 1.78893e-02  8.56756e-03        00000 
-6.82048e-03 -1.07398e-02        00000 
-3.19613e-02 -6.46710e-03        00000 
 4.02794e-02  7.34093e-02        00000 
 3.28848e-02  7.02123e-02        00000 
-9.16156e-03  1.51532e-02        00000 
 2.84782e-02  6.24281e-02        00000 
 1.45661e-02 -1.07782e-01        00000 
 5.55076e-02  9.61113e-03        00000 
 8.85570e-03 -2.16247e-03        00000 
-5.60095e-03 -1.00246e-02        00000 
-2.54397e-02  1.40071e-02        00000 
-2.59756e-02 -3.99890e-02        00000 
 5.09959e-03 -1.01018e-02        00000 
 4.99613e-03 -6.42796e-02        00000 
 7.33022e-04 -1.29326e-02        00000 
-1.23432e-02 -3.79720e-02        00000 
 3.72791e-03 -1.36510e-02        00000 
-1.55849e-02 -7.25039e-02        00000 
-6.84022e-03 -1.45741e-02        00000 
 2.00658e-02 -1.18531e-02        00000 
-2.00705e-02  5.01918e-02        00000 
 1.22512e-02  5.12167e-02        00000 
-2.19559e-02  1.20975e-02        00000 
-4.25399e-02 -2.08911e-02        00000 
-4.57188e-04 -5.63034e-02        00000 
 3.05640e-02 -8.96637e-03        00000 
 4.57132e-02 -6.61572e-02        00000 
 9.07422e-03 -5.39242e-02        00000 
 9.07406e-03 -5.75128e-02        00000 
 1.86353e-02  7.52110e-03        00000 
 5.93820e-03  1.99917e-02        00000 
-1.62274e-02  1.07556e-02        00000 
-3.57465e-02 -3.01831e-02        00000 
-5.87845e-02 -3.66602e-02        00000 
 3.55234e-02 -2.06630e-02        00000 
 2.77667e-02 -2.37407e-02        00000 
 1.55977e-02  9.42762e-03        00000 
-3.28628e-02  6.56955e-02        00000 
-6.79093e-02  6.94662e-02        00000 
-4.44977e-02  9.26252e-03        00000 
-2.81693e-02 -3.55702e-03        00000 
-2.83320e-02 -5.50289e-02        00000 
-3.41953e-04 -4.41061e-02        00000 
 1.29487e-02  5.21929e-03        00000 
 2.34309e-02  3.91118e-02        00000 
 2.83762e-02  5.81142e-02        00000 
-4.93075e-02  6.56798e-02        00000 
-4.45739e-02  3.21885e-03        00000 
 6.65289e-03  1.95426e-02        00000 
 1.55145e-02 -1.53646e-02        00000 
-1.04660e-02  5.43672e-02        00000 
 9.45084e-03  4.87667e-02        00000 
 2.49477e-02  3.40483e-02        00000 
-2.93675e-02  4.63862e-02        00000 
 5.18264e-02  1.50874e-02        00000 
 3.43781e-02  1.50331e-02        00000 
 1.60939e-02 -2.20130e-02        00000 
 1.94924e-02  1.14649e-02        00000 
-5.70939e-02  2.00570e-02        00000 
-3.50900e-02  2.59969e-02        00000 
-2.37598e-02  1.59851e-02        00000 
 1.32148e-02 -1.55956e-02        00000 
 8.95716e-03  2.75759e-03        00000 
-7.88539e-04 -2.15080e-02        00000 
-3.11335e-02 -1.69921e-02        00000 
-1.11478e-02 -1.07657e-04        00000 
-9.30710e-03 -1.95033e-03        00000 
-3.10024e-02  2.89799e-02        00000 
 1.01401e-02  5.60119e-02        00000 
-7.80519e-03  6.19448e-02        00000 
 2.33504e-02  5.97732e-02        00000 
 3.27382e-02  1.82179e-02        00000 
 2.00847e-02  1.95932e-02        00000 
 3.15853e-02  2.15093e-03        00000 
-4.56275e-02  1.22651e-02        00000 
 3.12121e-02  1.97605e-02        00000 
 5.43275e-03  3.85882e-02        00000 
 1.58154e-02  3.27007e-02        00000 
 1.33495e-02  4.99310e-02        00000 
-1.02065e-02  1.15643e-02        00000 
 1.74458e-02  1.03525e-02        00000 
-3.18034e-03  2.74710e-02        00000 
-2.39856e-02  9.38536e-03        00000 
-1.23800e-02 -2.29929e-02        00000 
 2.24086e-02 -4.54023e-02        00000 
-5.22522e-02  1.44745e-02        00000 
-2.53176e-02  2.81788e-02        00000 
-7.78821e-02 -1.06707e-03        00000 
 2.52536e-02 -1.43517e-02        00000 
 2.10746e-02  2.11019e-02        00000 
-6.33049e-03  3.81221e-02        00000 
-3.90361e-02 -2.85911e-02        00000 
-7.64139e-02  3.19894e-03        00000 
-1.57552e-02 -3.18344e-02        00000 
-1.06960e-02 -5.36846e-02        00000 
-1.45766e-02 -2.23924e-02        00000 
-4.64527e-02  1.85612e-02        00000 
-1.58600e-02 -2.86185e-02        00000 
-1.27138e-03 -2.58497e-02        00000 
-1.77190e-02  4.73199e-03        00000 
-5.65390e-02 -5.66678e-02        00000 
 3.52430e-03  1.02060e-02        00000 
 9.96407e-03 -1.70146e-02        00000 
 1.28495e-02 -3.95105e-03        00000 
 3.78902e-02 -4.47182e-02        00000 
 1.68361e-02 -2.07878e-02        00000 
-1.79710e-02  1.04299e-02        00000 
-2.85612e-02 -2.10969e-03        00000 
 4.43023e-03  1.78954e-02        00000 
-8.66672e-03 -3.76771e-02        00000 
-3.62685e-02 -2.57566e-02        00000 
-5.98177e-03  2.48014e-02        00000 
-1.70838e-02  2.18154e-02        00000 
-1.77794e-02  2.29817e-02        00000 
 4.85824e-02  3.94310e-02        00000 
 1.01231e-02  9.33818e-02        00000 
 7.55014e-03  5.44480e-02        00000 
-2.60216e-03  4.62322e-03        00000 
-5.81709e-02  1.00639e-02        00000 
 5.66587e-03 -4.48600e-02        00000 
-2.97404e-02 -4.91658e-02        00000 
 9.83937e-03 -1.46365e-02        00000 
-5.41092e-03 -8.28999e-03        00000 
-4.27601e-02  6.74329e-03        00000 
-3.78604e-02  4.15152e-03        00000 
-1.64278e-02 -3.75003e-02        00000 
-3.61312e-02  1.87389e-02        00000 
-2.16780e-02  3.32012e-02        00000 
-1.25535e-02  2.55857e-02        00000 
 2.94884e-02  9.14308e-02        00000 
 3.74840e-02  6.74491e-02        00000 
 7.90335e-03  2.84157e-02        00000 
-4.05470e-03  2.85797e-02        00000 
 4.40680e-02 -1.54753e-02        00000 
 1.13632e-02  2.87596e-02        00000 
 1.18413e-02  2.25611e-02        00000 
 4.57217e-03 -1.23337e-04        00000 
-2.85021e-02 -1.43145e-02        00000 
 7.47184e-19  3.29198e-18        00000 
-2.59669e-02 -2.45884e-02        00000 
-3.84740e-02 -2.79707e-02        00000 
 5.21690e-18 -1.74998e-18        00000 
 1.93172e-02  7.85767e-04        00000 
-1.06809e-02  1.11570e-02        00000 
-1.95156e-18 -4.87891e-19        00000 
-4.20200e-02 -2.37113e-03        00000 
-2.19505e-04  5.11325e-04        00000 
-3.00277e-18  3.54990e-18        00000 
 2.73009e-03 -3.92681e-02        00000 
-2.83711e-02  2.47020e-02        00000 
-8.53809e-19 -5.85469e-18        00000 
-9.46724e-04 -1.82415e-02        00000 
-1.82289e-02 -3.48871e-02        00000 
 3.37853e-18  3.83866e-18        00000 
-4.64938e-02 -4.29941e-02        00000 
-4.00165e-02  5.25296e-03        00000 
       00000  4.87891e-19        00000 
-1.18509e-02 -1.11157e-02        00000 
 1.65789e-02  4.23729e-03        00000 
-3.90313e-18  4.87891e-19        00000 
 6.37786e-03 -1.29619e-02        00000 
-5.90396e-03 -3.66931e-03        00000 
 1.81540e-18  9.38112e-20        00000 
-6.40108e-03 -2.92960e-03        00000 
 1.27489e-02  3.78763e-03        00000 
 4.03022e-03 -9.32849e-03        00000 
-2.71938e-02 -5.17490e-02        00000 
-8.84976e-03 -6.48662e-03        00000 
-5.15968e-02 -3.89666e-02        00000 
-1.64891e-02 -1.10691e-02        00000 
-1.73624e-02 -1.03134e-04        00000 
 8.18098e-03  9.70115e-04        00000 
-4.11325e-04  1.30805e-02        00000 
 3.00503e-02  2.92743e-02        00000 
-1.88740e-02  7.04269e-02        00000 
 3.40106e-02  2.86746e-02        00000 
 2.02706e-02  5.70819e-02        00000 
-3.09231e-02  2.41408e-02        00000 
 5.18766e-03  1.41685e-02        00000 
-1.68335e-02  5.74433e-02        00000 
-5.94527e-02  2.30579e-03        00000 
-3.69384e-03  3.44457e-02        00000 
 1.07090e-03 -1.69785e-02        00000 
-3.32811e-02  2.22218e-03        00000 
-2.36717e-02  1.29114e-02        00000 
 3.07988e-04  7.27577e-03        00000 
-3.11650e-02 -1.24597e-02        00000 
-1.55927e-02  2.45821e-02        00000 
 3.11058e-02  2.01915e-03        00000 
-3.94763e-02  2.99468e-02        00000 
 3.65694e-02 -4.67223e-02        00000 
 8.74420e-03  1.13542e-01        00000 
-2.76523e-02  1.56657e-03        00000 
-2.76991e-02 -1.82295e-02        00000 
-3.63921e-02  1.16745e-02        00000 
-7.75486e-02 -2.80975e-02        00000 
-2.85000e-03  2.19201e-02        00000 
 1.49470e-02  2.27018e-02        00000 
-2.79069e-02  1.49029e-02        00000 
 5.12447e-03  8.50025e-03        00000 
-4.23150e-02 -6.47299e-02        00000 
-4.84838e-02  2.70040e-02        00000 
-1.23688e-02  4.19394e-03        00000 
-2.18459e-02 -2.98010e-02        00000 
-1.83825e-02 -1.53151e-02        00000 
 2.89770e-02  3.79998e-02        00000 
 4.45249e-02 -1.57946e-02        00000 
-6.23102e-03 -2.69510e-02        00000 
 2.84062e-02 -6.21498e-03        00000 
-1.50980e-02  5.85176e-03        00000 
 4.64864e-03 -3.72996e-02        00000 
-2.64738e-02 -1.96310e-02        00000 
-2.29929e-02  2.71367e-03        00000 
-1.92006e-02 -4.63633e-03        00000 
 3.45343e-02  3.74216e-02        00000 
 3.57388e-02 -2.04065e-03        00000 
 1.34311e-02  2.73674e-02        00000 
-5.76507e-03  8.11167e-03        00000 
-2.75808e-02  3.26987e-03        00000 
-9.24287e-03 -7.40071e-02        00000 
 2.50651e-02 -1.88505e-01        00000 
-2.47559e-02  1.16376e-02        00000 
-3.99295e-02 -4.52375e-02        00000 
 4.10485e-03 -1.03757e-02        00000 
 3.42518e-02  1.33338e-02        00000 
 5.76865e-02  3.55761e-02        00000 
 1.50056e-02 -1.36645e-02        00000 
 1.74953e-03 -2.35250e-02        00000 
-5.48292e-02  3.20384e-02        00000 
 3.59248e-03 -1.48209e-02        00000 
-1.26665e-02 -5.85611e-02        00000 
 1.02501e-02 -1.86617e-02        00000 
 1.25844e-02  4.99107e-02        00000 
 1.18374e-02  3.51811e-02        00000 
 2.45191e-02 -1.81885e-03        00000 
 2.83552e-02 -2.32607e-02        00000 
-1.28409e-02  1.82415e-02        00000 
-5.01980e-02  2.04651e-02        00000 
-1.64762e-02  3.38605e-02        00000 
-4.76657e-02 -2.27004e-04        00000 
-3.24011e-02 -1.39600e-02        00000 
 4.55828e-02  3.16994e-02        00000 
 4.82532e-02  3.75547e-03        00000 
-5.17176e-02  3.37121e-02        00000 
 5.40894e-04  6.65882e-04        00000 
-7.96952e-03  4.87713e-02        00000 
 3.44903e-02 -3.26461e-02        00000 
-9.89980e-03 -1.63847e-02        00000 
-7.92900e-03 -3.35211e-04        00000 
-1.06555e-03 -4.77376e-02        00000 
-6.91866e-03  8.84444e-03        00000 
-1.40862e-02  1.38223e-02        00000 
 4.14994e-02 -3.05602e-03        00000 
-2.34571e-02  1.01321e-02        00000 
-5.27240e-02 -4.41135e-02        00000 
-1.42706e-02  1.96760e-02        00000 
-1.96887e-02  3.97871e-02        00000 
-2.94546e-02 -1.80060e-02        00000 
-2.10820e-02 -1.70126e-02        00000 
-4.70356e-03  3.38472e-02        00000 
-3.16425e-02  3.31157e-02        00000 
-2.62179e-03 -3.15226e-02        00000 
-1.34123e-02 -8.07109e-03        00000 
-3.36246e-03  4.39663e-02        00000 
-2.32289e-02 -2.05274e-02        00000 
 1.58986e-02 -2.93056e-02        00000 
-1.04676e-02 -5.75817e-03        00000 
-8.49576e-03 -8.05490e-02        00000 
 1.79588e-02  1.17410e-02        00000 
 2.83461e-02  8.64610e-04        00000 
-1.31423e-02 -3.17989e-03        00000 
-3.18889e-02 -7.70449e-02        00000 
-5.26755e-02  8.45897e-02        00000 
 8.43417e-03 -1.78163e-02        00000 
 2.29428e-02 -8.57108e-03        00000 
-2.03898e-02 -2.53117e-02        00000 
-5.69907e-02 -1.04208e-02        00000 
 5.74372e-02  1.21434e-02        00000 
 3.15059e-02  4.32345e-02        00000 
-5.88586e-03  8.33642e-03        00000 
-6.59538e-04 -2.34007e-02        00000 
-4.09647e-02  3.81907e-02        00000 
 2.19458e-02  2.47240e-02        00000 
 2.71218e-02  4.84995e-02        00000 
-7.97463e-03 -1.61581e-02        00000 
-8.83627e-03 -1.04735e-02        00000 
 3.99628e-02  6.54483e-02        00000 
-1.05734e-02  1.14359e-02        00000 
-8.80434e-03 -1.67363e-02        00000 
 2.45553e-02 -2.02128e-02        00000 
 6.47626e-03  2.81176e-03        00000 
 7.69521e-04 -1.15369e-02        00000 
 4.25523e-02 -4.93888e-02        00000 
 6.69603e-02  1.37344e-02        00000 
-3.98612e-02 -7.41100e-03        00000 
 6.22969e-02 -2.95014e-02        00000 
 1.70413e-02  1.85352e-02        00000 
 7.13701e-03  4.55839e-02        00000 
 5.75998e-02  3.01773e-02        00000 
 6.59304e-02 -2.42263e-02        00000 
 2.49023e-02  3.50675e-02        00000 
 3.22585e-02  1.00567e-01        00000 
 1.30516e-02 -3.06986e-03        00000 
 4.27166e-02  4.37899e-02        00000 
 2.98683e-02  3.07669e-02        00000 
 1.53896e-02  1.59900e-02        00000 
-3.84053e-03 -2.52949e-03        00000 
 1.57314e-02  2.11129e-02        00000 
 2.77453e-02  1.39335e-02        00000 
 2.52020e-02 -3.52122e-02        00000 
 9.38709e-03 -7.88069e-03        00000 
 7.66097e-03  9.48310e-03        00000 
 1.32992e-02 -5.35128e-02        00000 
 2.57884e-03 -1.54943e-02        00000 
 4.62285e-03 -2.02848e-02        00000 
-1.34704e-02  2.28696e-02        00000 
-3.92887e-02 -3.92265e-02        00000 
-4.65172e-02 -5.10321e-03        00000 
 1.58475e-03  2.81712e-02        00000 
 2.12296e-03 -3.23590e-02        00000 
-5.95862e-04 -1.66574e-02        00000 
 4.36292e-02  4.90127e-02        00000 
 3.04020e-02  1.19941e-02        00000 
 1.10310e-03 -2.88436e-05        00000 
 6.09815e-02  2.84758e-02        00000 
-1.05905e-02 -4.06180e-02        00000 
 8.51085e-03  5.14867e-02        00000 
 2.50310e-02  2.03820e-02        00000 
 2.14228e-02 -2.04558e-02        00000 
-2.76230e-02  7.01823e-03        00000 
 2.42581e-02  4.01407e-02        00000 
 1.06379e-02 -2.25853e-02        00000 
 1.68400e-02 -2.72606e-03        00000 
-6.06108e-03 -2.64990e-02        00000 
-6.97826e-04  5.15810e-03        00000 
 6.54827e-04  3.64747e-02        00000 
-2.28307e-02 -3.33115e-03        00000 
-5.35470e-02  2.04953e-03        00000 
-1.44011e-02 -7.77160e-03        00000 
-5.09402e-02  5.12286e-02        00000 
 3.93635e-02  5.49524e-02        00000 
 6.65651e-02  3.16761e-02        00000 
-4.08953e-03  5.83301e-02        00000 
 4.82297e-02 -1.71681e-03        00000 
 5.47821e-02 -1.88892e-02        00000 
-1.24992e-02  1.33777e-02        00000 
 8.36177e-02  2.74029e-02        00000 
 2.22050e-02  1.35102e-02        00000 
 4.69306e-02  4.37134e-02        00000 
 2.52954e-02 -3.52297e-02        00000 
 1.71722e-02 -2.31700e-03        00000 
 8.83813e-03  2.26718e-02        00000 
 2.55825e-02 -2.70496e-02        00000 
 2.63686e-02  2.47772e-02        00000 
-1.16240e-02 -1.90157e-02        00000 
-4.43871e-02  6.30230e-02        00000 
 3.13444e-02 -8.47497e-03        00000 
-2.43268e-02 -4.71524e-02        00000 
-4.09061e-02  2.60153e-02        00000 
-8.94824e-03  1.56504e-02        00000 
-1.56664e-02 -6.26071e-02        00000 
-1.10188e-02  1.73856e-03        00000 
 7.45911e-03  5.57437e-03        00000 
-1.59269e-02 -2.17881e-02        00000 
-1.62814e-02 -1.24512e-02        00000 
-3.35871e-02  4.09591e-02        00000 
-2.69459e-02  2.56931e-02        00000 
 1.16801e-02 -1.75162e-02        00000 
-2.66645e-03 -1.14630e-02        00000 
 2.79395e-02  8.85612e-03        00000 
 6.01637e-03 -1.42549e-02        00000 
 7.62807e-03 -1.35200e-02        00000 
-6.38398e-04  1.22950e-03        00000 
-2.03422e-02 -6.16336e-03        00000 
-1.15070e-02  1.04152e-02        00000 
 4.43650e-02 -4.06587e-02        00000 
 6.91638e-03  2.08839e-02        00000 
 1.69060e-03  1.88974e-02        00000 
-1.12618e-02 -1.93182e-02        00000 
-3.70610e-02  5.24802e-03        00000 
-5.05807e-02 -3.83296e-02        00000 
-6.01578e-02  1.87255e-02        00000 
-1.71846e-02 -5.24906e-03        00000 
-4.71430e-02 -2.53419e-02        00000 
-3.16748e-02 -1.00111e-02        00000 
-1.64444e-02  3.05620e-03        00000 
 1.58639e-02  1.16910e-02        00000 
 2.14868e-02 -1.53008e-02        00000 
 6.01572e-03  2.20590e-02        00000 
-8.97133e-03 -2.01569e-02        00000 
-1.44676e-03  2.31127e-02        00000 
-3.10980e-02  3.32516e-02        00000 
 2.85083e-03 -1.10368e-02        00000 
 2.15758e-03 -2.29243e-02        00000 
-8.82309e-03 -1.64611e-02        00000 
-3.91407e-02  7.31842e-03        00000 
-1.50931e-02  2.23769e-02        00000 
 1.37766e-03 -2.20768e-02        00000 
-4.96070e-02  5.25844e-02        00000 
-1.94453e-02 -2.20660e-02        00000 
-2.57441e-02  3.30292e-02        00000 
-9.50233e-03 -1.06306e-02        00000 
 1.42084e-02 -9.72312e-03        00000 
 1.30511e-02 -2.37902e-03        00000 
 9.35318e-03 -2.64122e-02        00000 
-9.07572e-03 -1.27152e-02        00000 
 6.39142e-03 -4.35722e-02        00000 
 4.44098e-02  2.25701e-02        00000 
-1.29083e-02 -5.50664e-03        00000 
-1.43572e-02  5.22508e-03        00000 
-1.86494e-02 -7.54264e-02        00000 
 8.24007e-03 -5.44726e-02        00000 
-3.32092e-02 -3.56993e-02        00000 
-1.28669e-02 -8.16928e-03        00000 
-6.39588e-03 -1.31785e-03        00000 
-8.64918e-03 -7.49534e-02        00000 
-2.32046e-02  3.48223e-02        00000 
-2.38066e-02  1.45053e-02        00000 
-2.67924e-02 -5.37592e-02        00000 
-1.57320e-02 -1.92015e-02        00000 
-7.74740e-03 -2.96132e-02        00000 
-2.71299e-02  9.57395e-04        00000 
 4.69041e-03 -1.76336e-02        00000 
-2.69819e-02 -4.15754e-03        00000 
-2.63795e-02 -3.50892e-02        00000 
-2.94832e-02 -4.04161e-02        00000 
-4.11026e-02 -3.07259e-02        00000 
-2.95613e-02  1.14462e-02        00000 
 1.47911e-02 -3.52767e-03        00000 
-4.07567e-02 -8.64646e-03        00000 
-6.57654e-02 -3.52733e-02        00000 
-3.04984e-02  2.30562e-02        00000 
 1.74025e-02 -3.75692e-02        00000 
-6.22713e-03  2.01579e-02        00000 
 2.61135e-02 -4.91869e-02        00000 
-1.78004e-02 -8.93497e-03        00000 
-4.86331e-02  3.69087e-02        00000 
-4.58297e-02 -3.88825e-02        00000 
-6.54179e-02  3.30932e-03        00000 
-4.16665e-02  5.63995e-02        00000 
-1.03456e-02  1.73858e-02        00000 
-1.94848e-03 -6.46971e-03        00000 
-1.77956e-02 -1.29156e-02        00000 
 6.69703e-03  3.51712e-02        00000 
-5.42108e-02  1.19995e-02        00000 
-8.63847e-03  5.94725e-02        00000 
 1.80758e-02 -2.40480e-02        00000 
-1.66654e-02  1.39124e-03        00000 
-4.58341e-02 -1.66647e-02        00000 
-6.48795e-03  1.55554e-02        00000 
 2.15319e-02  3.15598e-02        00000 
-1.66748e-02 -1.03595e-01        00000 
 5.02464e-02  8.57580e-02        00000 
 1.59636e-03  1.20387e-02        00000 