<?xml version="1.0" encoding="utf-8"?>
<VTKFile byte_order="LittleEndian" type="UnstructuredGrid" version="0.1">
   <UnstructuredGrid>
      <Piece NumberOfCells="1296" NumberOfPoints="685">
         <Points>
            <DataArray Name="Points" NumberOfComponents="3" format="ascii" type="Float32">
0.0000 0.0000 0.0000
0.0000 0.1111 0.0000
0.0000 0.2222 0.0000
0.0000 0.3333 0.0000
0.0000 0.4444 0.0000
0.0000 0.5556 0.0000
0.0000 0.6667 0.0000
0.0000 0.7778 0.0000
0.0000 0.8889 0.0000
0.0000 1.0000 0.0000
0.2222 0.0000 0.0000
0.2222 0.1111 0.0000
0.2222 0.2222 0.0000
0.2222 0.3333 0.0000
0.2222 0.4444 0.0000
0.2222 0.5556 0.0000
0.2222 0.6667 0.0000
0.2222 0.7778 0.0000
0.2222 0.8889 0.0000
0.2222 1.0000 0.0000
0.4444 0.0000 0.0000
0.4444 0.1111 0.0000
0.4444 0.2222 0.0000
0.4444 0.3333 0.0000
0.4444 0.4444 0.0000
0.4444 0.5556 0.0000
0.4444 0.6667 0.0000
0.4444 0.7778 0.0000
0.4444 0.8889 0.0000
0.4444 1.0000 0.0000
0.6667 0.0000 0.0000
0.6667 0.1111 0.0000
0.6667 0.2222 0.0000
0.6667 0.3333 0.0000
0.6667 0.4444 0.0000
0.6667 0.5556 0.0000
0.6667 0.6667 0.0000
0.6667 0.7778 0.0000
0.6667 0.8889 0.0000
0.6667 1.0000 0.0000
0.8889 0.0000 0.0000
0.8889 0.1111 0.0000
0.8889 0.2222 0.0000
0.8889 0.3333 0.0000
0.8889 0.4444 0.0000
0.8889 0.5556 0.0000
0.8889 0.6667 0.0000
0.8889 0.7778 0.0000
0.8889 0.8889 0.0000
0.8889 1.0000 0.0000
1.1111 0.0000 0.0000
1.1111 0.1111 0.0000
1.1111 0.2222 0.0000
1.1111 0.3333 0.0000
1.1111 0.4444 0.0000
1.1111 0.5556 0.0000
1.1111 0.6667 0.0000
1.1111 0.7778 0.0000
1.1111 0.8889 0.0000
1.1111 1.0000 0.0000
1.3333 0.0000 0.0000
1.3333 0.1111 0.0000
1.3333 0.2222 0.0000
1.3333 0.3333 0.0000
1.3333 0.4444 0.0000
1.3333 0.5556 0.0000
1.3333 0.6667 0.0000
1.3333 0.7778 0.0000
1.3333 0.8889 0.0000
1.3333 1.0000 0.0000
1.5556 0.0000 0.0000
1.5556 0.1111 0.0000
1.5556 0.2222 0.0000
1.5556 0.3333 0.0000
1.5556 0.4444 0.0000
1.5556 0.5556 0.0000
1.5556 0.6667 0.0000
1.5556 0.7778 0.0000
1.5556 0.8889 0.0000
1.5556 1.0000 0.0000
1.7778 0.0000 0.0000
1.7778 0.1111 0.0000
1.7778 0.2222 0.0000
1.7778 0.3333 0.0000
1.7778 0.4444 0.0000
1.7778 0.5556 0.0000
1.7778 0.6667 0.0000
1.7778 0.7778 0.0000
1.7778 0.8889 0.0000
1.7778 1.0000 0.0000
2.0000 0.0000 0.0000
2.0000 0.1111 0.0000
2.0000 0.2222 0.0000
2.0000 0.3333 0.0000
2.0000 0.4444 0.0000
2.0000 0.5556 0.0000
2.0000 0.6667 0.0000
2.0000 0.7778 0.0000
2.0000 0.8889 0.0000
2.0000 1.0000 0.0000
0.1111 0.0556 0.0000
0.1111 0.1667 0.0000
0.1111 0.2778 0.0000
0.1111 0.3889 0.0000
0.1111 0.5000 0.0000
0.1111 0.6111 0.0000
0.1111 0.7222 0.0000
0.1111 0.8333 0.0000
0.1111 0.9444 0.0000
0.3333 0.0556 0.0000
0.3333 0.1667 0.0000
0.3333 0.2778 0.0000
0.3333 0.3889 0.0000
0.3333 0.5000 0.0000
0.3333 0.6111 0.0000
0.3333 0.7222 0.0000
0.3333 0.8333 0.0000
0.3333 0.9444 0.0000
0.5556 0.0556 0.0000
0.5556 0.1667 0.0000
0.5556 0.2778 0.0000
0.5556 0.3889 0.0000
0.5556 0.5000 0.0000
0.5556 0.6111 0.0000
0.5556 0.7222 0.0000
0.5556 0.8333 0.0000
0.5556 0.9444 0.0000
0.7778 0.0556 0.0000
0.7778 0.1667 0.0000
0.7778 0.2778 0.0000
0.7778 0.3889 0.0000
0.7778 0.5000 0.0000
0.7778 0.6111 0.0000
0.7778 0.7222 0.0000
0.7778 0.8333 0.0000
0.7778 0.9444 0.0000
1.0000 0.0556 0.0000
1.0000 0.1667 0.0000
1.0000 0.2778 0.0000
1.0000 0.3889 0.0000
1.0000 0.5000 0.0000
1.0000 0.6111 0.0000
1.0000 0.7222 0.0000
1.0000 0.8333 0.0000
1.0000 0.9444 0.0000
1.2222 0.0556 0.0000
1.2222 0.1667 0.0000
1.2222 0.2778 0.0000
1.2222 0.3889 0.0000
1.2222 0.5000 0.0000
1.2222 0.6111 0.0000
1.2222 0.7222 0.0000
1.2222 0.8333 0.0000
1.2222 0.9444 0.0000
1.4444 0.0556 0.0000
1.4444 0.1667 0.0000
1.4444 0.2778 0.0000
1.4444 0.3889 0.0000
1.4444 0.5000 0.0000
1.4444 0.6111 0.0000
1.4444 0.7222 0.0000
1.4444 0.8333 0.0000
1.4444 0.9444 0.0000
1.6667 0.0556 0.0000
1.6667 0.1667 0.0000
1.6667 0.2778 0.0000
1.6667 0.3889 0.0000
1.6667 0.5000 0.0000
1.6667 0.6111 0.0000
1.6667 0.7222 0.0000
1.6667 0.8333 0.0000
1.6667 0.9444 0.0000
1.8889 0.0556 0.0000
1.8889 0.1667 0.0000
1.8889 0.2778 0.0000
1.8889 0.3889 0.0000
1.8889 0.5000 0.0000
1.8889 0.6111 0.0000
1.8889 0.7222 0.0000
1.8889 0.8333 0.0000
1.8889 0.9444 0.0000
0.0000 0.0556 0.0000
0.0556 0.0278 0.0000
0.0556 0.0833 0.0000
0.0000 0.1667 0.0000
0.0556 0.1389 0.0000
0.0556 0.1944 0.0000
0.0000 0.2778 0.0000
0.0556 0.2500 0.0000
0.0556 0.3056 0.0000
0.0000 0.3889 0.0000
0.0556 0.3611 0.0000
0.0556 0.4167 0.0000
0.0000 0.5000 0.0000
0.0556 0.4722 0.0000
0.0556 0.5278 0.0000
0.0000 0.6111 0.0000
0.0556 0.5833 0.0000
0.0556 0.6389 0.0000
0.0000 0.7222 0.0000
0.0556 0.6944 0.0000
0.0556 0.7500 0.0000
0.0000 0.8333 0.0000
0.0556 0.8056 0.0000
0.0556 0.8611 0.0000
0.0000 0.9444 0.0000
0.0556 0.9167 0.0000
0.0556 0.9722 0.0000
0.2222 0.0556 0.0000
0.2778 0.0278 0.0000
0.2778 0.0833 0.0000
0.2222 0.1667 0.0000
0.2778 0.1389 0.0000
0.2778 0.1944 0.0000
0.2222 0.2778 0.0000
0.2778 0.2500 0.0000
0.2778 0.3056 0.0000
0.2222 0.3889 0.0000
0.2778 0.3611 0.0000
0.2778 0.4167 0.0000
0.2222 0.5000 0.0000
0.2778 0.4722 0.0000
0.2778 0.5278 0.0000
0.2222 0.6111 0.0000
0.2778 0.5833 0.0000
0.2778 0.6389 0.0000
0.2222 0.7222 0.0000
0.2778 0.6944 0.0000
0.2778 0.7500 0.0000
0.2222 0.8333 0.0000
0.2778 0.8056 0.0000
0.2778 0.8611 0.0000
0.2222 0.9444 0.0000
0.2778 0.9167 0.0000
0.2778 0.9722 0.0000
0.4444 0.0556 0.0000
0.5000 0.0278 0.0000
0.5000 0.0833 0.0000
0.4444 0.1667 0.0000
0.5000 0.1389 0.0000
0.5000 0.1944 0.0000
0.4444 0.2778 0.0000
0.5000 0.2500 0.0000
0.5000 0.3056 0.0000
0.4444 0.3889 0.0000
0.5000 0.3611 0.0000
0.5000 0.4167 0.0000
0.4444 0.5000 0.0000
0.5000 0.4722 0.0000
0.5000 0.5278 0.0000
0.4444 0.6111 0.0000
0.5000 0.5833 0.0000
0.5000 0.6389 0.0000
0.4444 0.7222 0.0000
0.5000 0.6944 0.0000
0.5000 0.7500 0.0000
0.4444 0.8333 0.0000
0.5000 0.8056 0.0000
0.5000 0.8611 0.0000
0.4444 0.9444 0.0000
0.5000 0.9167 0.0000
0.5000 0.9722 0.0000
0.6667 0.0556 0.0000
0.7222 0.0278 0.0000
0.7222 0.0833 0.0000
0.6667 0.1667 0.0000
0.7222 0.1389 0.0000
0.7222 0.1944 0.0000
0.6667 0.2778 0.0000
0.7222 0.2500 0.0000
0.7222 0.3056 0.0000
0.6667 0.3889 0.0000
0.7222 0.3611 0.0000
0.7222 0.4167 0.0000
0.6667 0.5000 0.0000
0.7222 0.4722 0.0000
0.7222 0.5278 0.0000
0.6667 0.6111 0.0000
0.7222 0.5833 0.0000
0.7222 0.6389 0.0000
0.6667 0.7222 0.0000
0.7222 0.6944 0.0000
0.7222 0.7500 0.0000
0.6667 0.8333 0.0000
0.7222 0.8056 0.0000
0.7222 0.8611 0.0000
0.6667 0.9444 0.0000
0.7222 0.9167 0.0000
0.7222 0.9722 0.0000
0.8889 0.0556 0.0000
0.9444 0.0278 0.0000
0.9444 0.0833 0.0000
0.8889 0.1667 0.0000
0.9444 0.1389 0.0000
0.9444 0.1944 0.0000
0.8889 0.2778 0.0000
0.9444 0.2500 0.0000
0.9444 0.3056 0.0000
0.8889 0.3889 0.0000
0.9444 0.3611 0.0000
0.9444 0.4167 0.0000
0.8889 0.5000 0.0000
0.9444 0.4722 0.0000
0.9444 0.5278 0.0000
0.8889 0.6111 0.0000
0.9444 0.5833 0.0000
0.9444 0.6389 0.0000
0.8889 0.7222 0.0000
0.9444 0.6944 0.0000
0.9444 0.7500 0.0000
0.8889 0.8333 0.0000
0.9444 0.8056 0.0000
0.9444 0.8611 0.0000
0.8889 0.9444 0.0000
0.9444 0.9167 0.0000
0.9444 0.9722 0.0000
1.1111 0.0556 0.0000
1.1667 0.0278 0.0000
1.1667 0.0833 0.0000
1.1111 0.1667 0.0000
1.1667 0.1389 0.0000
1.1667 0.1944 0.0000
1.1111 0.2778 0.0000
1.1667 0.2500 0.0000
1.1667 0.3056 0.0000
1.1111 0.3889 0.0000
1.1667 0.3611 0.0000
1.1667 0.4167 0.0000
1.1111 0.5000 0.0000
1.1667 0.4722 0.0000
1.1667 0.5278 0.0000
1.1111 0.6111 0.0000
1.1667 0.5833 0.0000
1.1667 0.6389 0.0000
1.1111 0.7222 0.0000
1.1667 0.6944 0.0000
1.1667 0.7500 0.0000
1.1111 0.8333 0.0000
1.1667 0.8056 0.0000
1.1667 0.8611 0.0000
1.1111 0.9444 0.0000
1.1667 0.9167 0.0000
1.1667 0.9722 0.0000
1.3333 0.0556 0.0000
1.3889 0.0278 0.0000
1.3889 0.0833 0.0000
1.3333 0.1667 0.0000
1.3889 0.1389 0.0000
1.3889 0.1944 0.0000
1.3333 0.2778 0.0000
1.3889 0.2500 0.0000
1.3889 0.3056 0.0000
1.3333 0.3889 0.0000
1.3889 0.3611 0.0000
1.3889 0.4167 0.0000
1.3333 0.5000 0.0000
1.3889 0.4722 0.0000
1.3889 0.5278 0.0000
1.3333 0.6111 0.0000
1.3889 0.5833 0.0000
1.3889 0.6389 0.0000
1.3333 0.7222 0.0000
1.3889 0.6944 0.0000
1.3889 0.7500 0.0000
1.3333 0.8333 0.0000
1.3889 0.8056 0.0000
1.3889 0.8611 0.0000
1.3333 0.9444 0.0000
1.3889 0.9167 0.0000
1.3889 0.9722 0.0000
1.5556 0.0556 0.0000
1.6111 0.0278 0.0000
1.6111 0.0833 0.0000
1.5556 0.1667 0.0000
1.6111 0.1389 0.0000
1.6111 0.1944 0.0000
1.5556 0.2778 0.0000
1.6111 0.2500 0.0000
1.6111 0.3056 0.0000
1.5556 0.3889 0.0000
1.6111 0.3611 0.0000
1.6111 0.4167 0.0000
1.5556 0.5000 0.0000
1.6111 0.4722 0.0000
1.6111 0.5278 0.0000
1.5556 0.6111 0.0000
1.6111 0.5833 0.0000
1.6111 0.6389 0.0000
1.5556 0.7222 0.0000
1.6111 0.6944 0.0000
1.6111 0.7500 0.0000
1.5556 0.8333 0.0000
1.6111 0.8056 0.0000
1.6111 0.8611 0.0000
1.5556 0.9444 0.0000
1.6111 0.9167 0.0000
1.6111 0.9722 0.0000
1.7778 0.0556 0.0000
1.8333 0.0278 0.0000
1.8333 0.0833 0.0000
1.7778 0.1667 0.0000
1.8333 0.1389 0.0000
1.8333 0.1944 0.0000
1.7778 0.2778 0.0000
1.8333 0.2500 0.0000
1.8333 0.3056 0.0000
1.7778 0.3889 0.0000
1.8333 0.3611 0.0000
1.8333 0.4167 0.0000
1.7778 0.5000 0.0000
1.8333 0.4722 0.0000
1.8333 0.5278 0.0000
1.7778 0.6111 0.0000
1.8333 0.5833 0.0000
1.8333 0.6389 0.0000
1.7778 0.7222 0.0000
1.8333 0.6944 0.0000
1.8333 0.7500 0.0000
1.7778 0.8333 0.0000
1.8333 0.8056 0.0000
1.8333 0.8611 0.0000
1.7778 0.9444 0.0000
1.8333 0.9167 0.0000
1.8333 0.9722 0.0000
0.1111 0.1111 0.0000
0.1667 0.0833 0.0000
0.1111 0.2222 0.0000
0.1667 0.1944 0.0000
0.1111 0.3333 0.0000
0.1667 0.3056 0.0000
0.1111 0.4444 0.0000
0.1667 0.4167 0.0000
0.1111 0.5556 0.0000
0.1667 0.5278 0.0000
0.1111 0.6667 0.0000
0.1667 0.6389 0.0000
0.1111 0.7778 0.0000
0.1667 0.7500 0.0000
0.1111 0.8889 0.0000
0.1667 0.8611 0.0000
0.1111 1.0000 0.0000
0.1667 0.9722 0.0000
0.3333 0.1111 0.0000
0.3889 0.0833 0.0000
0.3333 0.2222 0.0000
0.3889 0.1944 0.0000
0.3333 0.3333 0.0000
0.3889 0.3056 0.0000
0.3333 0.4444 0.0000
0.3889 0.4167 0.0000
0.3333 0.5556 0.0000
0.3889 0.5278 0.0000
0.3333 0.6667 0.0000
0.3889 0.6389 0.0000
0.3333 0.7778 0.0000
0.3889 0.7500 0.0000
0.3333 0.8889 0.0000
0.3889 0.8611 0.0000
0.3333 1.0000 0.0000
0.3889 0.9722 0.0000
0.5556 0.1111 0.0000
[...]
         <PointData>
            <DataArray Name="fValues" NumberOfComponents="3" format="ascii" type="Float64">
 2.22602e-27  3.56163e-26        00000 
 2.69031e-26  1.96008e-25        00000 
-2.84914e-25  2.81582e-26        00000 
 6.12405e-26 -2.44962e-25        00000 
 2.42933e-26  2.00261e-25        00000 
 6.69818e-26 -3.06203e-26        00000 
 6.19593e-26 -4.85108e-26        00000 
-7.64814e-26  7.64814e-26        00000 
 9.22611e-26 -3.07537e-26        00000 
 1.06849e-25  1.78081e-25        00000 
-1.21375e-09  2.79400e-10        00000 
 6.73888e-10  1.80989e-09        00000 
 1.24948e-09 -5.01874e-10        00000 
-9.36931e-10 -7.40661e-11        00000 
 1.51079e-10 -1.03755e-09        00000 
-1.18997e-10  5.38096e-10        00000 
-1.49118e-10 -4.73204e-11        00000 
 6.38052e-10  6.85962e-10        00000 
-4.48274e-10 -1.12505e-10        00000 
-2.17534e-10  8.19739e-10        00000 
 2.51490e-10  2.87450e-10        00000 
 1.67206e-09  2.68336e-10        00000 
 1.24876e-09 -1.23244e-09        00000 
-1.33031e-09 -2.23485e-09        00000 
 1.26454e-09 -9.32001e-10        00000 
 1.81853e-09  7.39476e-10        00000 
 1.71028e-09  1.17304e-09        00000 
 6.52925e-10 -1.82598e-09        00000 
 4.76561e-10 -5.89960e-10        00000 
 2.33115e-10 -1.05917e-09        00000 
 9.26718e-10  6.84324e-10        00000 
 3.41657e-10  1.57228e-09        00000 
 7.20441e-10  4.96645e-10        00000 
-1.83956e-09 -5.48170e-10        00000 
 5.70843e-10 -6.07614e-10        00000 
 2.47196e-09  5.17012e-10        00000 
 3.17762e-10  1.38798e-09        00000 
-4.99170e-10  6.32312e-11        00000 
-2.95444e-10 -3.61585e-10        00000 
-1.48767e-09  4.73379e-09        00000 
-1.40841e-09  2.49656e-10        00000 
-1.09637e-10  2.79576e-09        00000 
-3.73944e-10 -1.39677e-09        00000 
 3.69170e-10  6.29260e-10        00000 
-1.23237e-10  1.08362e-09        00000 
-1.20059e-09 -3.68853e-10        00000 
-3.60956e-12  2.11415e-09        00000 
 1.09591e-09  3.20348e-10        00000 
-1.50186e-09 -8.99398e-10        00000 
-1.00655e-09  5.21823e-10        00000 
 1.00614e-09 -3.51244e-09        00000 
-4.90246e-10 -4.07418e-10        00000 
-4.73662e-10  1.87298e-09        00000 
-4.83126e-10  5.84315e-10        00000 
-6.84253e-10 -3.05697e-10        00000 
 9.09736e-10  9.74225e-10        00000 
 8.80888e-10  3.00763e-09        00000 
-3.50965e-10  2.86967e-10        00000 
-2.15282e-09 -1.59886e-09        00000 
-2.79395e-09  2.27374e-10        00000 
 3.63400e-10 -7.84382e-10        00000 
 3.88184e-10  2.63825e-10        00000 
-8.75389e-11 -3.59833e-10        00000 
 1.01122e-09  2.09280e-09        00000 
 1.92415e-11 -2.30429e-10        00000 
 1.07738e-09 -2.88168e-10        00000 
 6.11465e-10  5.40652e-11        00000 
 1.78261e-10 -1.95477e-10        00000 
-1.41981e-09  8.26951e-10        00000 
 4.53554e-10  1.18558e-09        00000 
-7.02798e-11 -3.75564e-10        00000 
 3.54419e-11  5.95065e-10        00000 
 2.37171e-09  2.05034e-10        00000 
 1.98347e-09  1.53669e-09        00000 
 4.85500e-10  1.11238e-09        00000 
-3.59648e-10 -1.02445e-09        00000 
 9.42862e-10 -9.65201e-10        00000 
-5.77728e-10  1.90784e-09        00000 
 4.28145e-10 -1.27656e-09        00000 
-4.34319e-10 -1.96127e-09        00000 
 1.66220e-09 -3.80555e-09        00000 
 8.62826e-10 -1.07035e-09        00000 
 5.69969e-10  1.85452e-11        00000 
 8.65327e-10 -6.20872e-11        00000 
 1.63914e-09  3.48479e-10        00000 
 1.25721e-09  4.54492e-10        00000 
 5.87704e-10  1.93626e-09        00000 
 5.36545e-10  8.37787e-10        00000 
-2.27021e-09  1.33095e-09        00000 
-2.27523e-10  6.52426e-09        00000 
 2.00797e-09 -4.24507e-10        00000 
 1.88993e-09  2.12097e-10        00000 
 5.49676e-10 -5.79803e-11        00000 
 9.82311e-10  1.32871e-11        00000 
 3.08796e-09 -1.06847e-09        00000 
 1.31632e-09 -1.37533e-10        00000 
 5.44446e-10  1.71298e-09        00000 
 3.34012e-10  1.68524e-09        00000 
 5.07725e-10  9.16856e-10        00000 
 1.80407e-10  1.44269e-10        00000 
-5.77635e-10  6.10026e-10        00000 
 1.33584e-09  2.78141e-10        00000 
 1.26454e-09 -4.72276e-10        00000 
-1.31653e-10  9.48149e-10        00000 
-8.49026e-10  4.87719e-10        00000 
-5.08190e-10 -2.69151e-10        00000 
-1.75605e-10  2.69043e-10        00000 
-2.32656e-10  1.97401e-10        00000 
-8.96407e-10 -3.99692e-10        00000 
-2.55320e-10 -5.80144e-10        00000 
 1.87930e-09  9.42205e-10        00000 
 2.30619e-09 -3.10258e-11        00000 
 1.08766e-10 -6.89136e-10        00000 
-7.23769e-10 -2.98124e-10        00000 
 2.19920e-10  1.57472e-09        00000 
-7.69660e-11  1.26321e-09        00000 
 5.07551e-10  8.58691e-12        00000 
 8.68734e-10 -9.81206e-11        00000 
 1.16030e-09  3.79430e-11        00000 
 4.78465e-10 -6.78906e-10        00000 
 1.05729e-10 -9.64427e-10        00000 
 7.28804e-11  7.86429e-11        00000 
-6.49152e-11 -1.09593e-09        00000 
 1.40162e-09  1.24405e-09        00000 
 1.56106e-10  5.74314e-10        00000 
 1.21699e-09  4.39726e-10        00000 
 2.05424e-09 -6.83400e-10        00000 
-6.77376e-10 -9.84102e-10        00000 
-4.92363e-10  3.61865e-10        00000 
-1.09588e-09  2.23281e-10        00000 
 1.35684e-09  1.10603e-10        00000 
-3.26850e-12 -1.50840e-09        00000 
-4.31299e-11 -5.62270e-10        00000 
 5.30832e-10 -1.62537e-09        00000 
-5.73081e-10 -8.13049e-10        00000 
-1.68887e-09 -9.13936e-10        00000 
-2.48538e-10  1.18814e-09        00000 
 7.97371e-10  1.59600e-09        00000 
-3.98643e-10  1.21724e-09        00000 
 2.75762e-10 -1.43381e-09        00000 
 3.01128e-10 -9.48283e-10        00000 
-6.84253e-11 -1.17113e-09        00000 
-2.04695e-09 -5.20927e-10        00000 
-1.05675e-09  2.24368e-10        00000 
 3.69155e-10  4.30283e-10        00000 
-1.36436e-09  4.17344e-10        00000 
-1.16191e-09 -1.07100e-10        00000 
-1.19573e-09 -6.10711e-10        00000 
 1.07255e-09 -1.06705e-09        00000 
 1.08562e-09 -1.10390e-10        00000 
 1.11982e-11 -6.92069e-12        00000 
-3.19204e-10  9.38563e-10        00000 
 7.73241e-10 -6.88303e-11        00000 
-1.77653e-09 -5.27223e-10        00000 
-1.21788e-10  8.87098e-10        00000 
 3.28754e-10  2.47027e-10        00000 
-1.56109e-09  6.26216e-10        00000 
 8.21217e-10 -3.82272e-10        00000 
-2.35030e-09 -1.39438e-09        00000 
-2.04727e-09 -1.78687e-09        00000 
-1.99975e-10 -2.13760e-10        00000 
-9.94874e-10  9.90951e-10        00000 
-1.23788e-09  1.45138e-09        00000 
 8.26644e-10  3.15492e-09        00000 
 5.52234e-10  3.68587e-10        00000 
 6.14421e-10 -5.03405e-10        00000 
 2.95415e-10 -1.13158e-09        00000 
 4.01599e-10 -3.59080e-10        00000 
 1.51056e-09  1.59122e-09        00000 
 2.42795e-09  8.61803e-10        00000 
 2.13407e-09 -6.01943e-10        00000 
 6.89681e-10  4.10949e-10        00000 
-5.59107e-10  4.71459e-10        00000 
 3.29180e-10  1.28794e-09        00000 
-3.39185e-10  2.24816e-11        00000 
 1.20662e-09  6.54694e-11        00000 
 1.21099e-09  1.27703e-09        00000 
-2.13447e-10  1.67741e-09        00000 
-3.93356e-11  1.72668e-09        00000 
 7.47320e-10  3.02168e-09        00000 
-1.85423e-10 -7.56614e-10        00000 
 2.45330e-26 -2.17880e-25        00000 
-1.06366e-10  3.35099e-10        00000 
 8.13330e-10 -1.51845e-09        00000 
-3.97560e-26  2.43875e-26        00000 
-4.05865e-10 -5.86062e-10        00000 
 3.31224e-10 -3.93054e-10        00000 
-3.48967e-25 -2.03564e-25        00000 
-1.83404e-09 -3.97033e-10        00000 
 2.54858e-10 -1.29003e-09        00000 
 1.70435e-25 -3.33768e-26        00000 
-1.14505e-09 -1.14103e-09        00000 
 1.34530e-09 -3.45954e-10        00000 
 1.74483e-25  7.27014e-26        00000 
 4.58384e-10  3.86794e-10        00000 
 7.41480e-10 -1.48399e-11        00000 
-6.84877e-26  8.08513e-27        00000 
-3.13789e-11 -7.68550e-10        00000 
-4.52032e-10 -9.95698e-10        00000 
       00000  1.16322e-25        00000 
-4.11358e-10  1.21901e-09        00000 
 3.90922e-10 -8.35450e-10        00000 
       00000 -1.45403e-26        00000 
-8.88842e-10  6.28720e-10        00000 
-8.67426e-10 -1.71180e-10        00000 
 2.87857e-26  5.59158e-27        00000 
-7.50182e-10  4.28204e-10        00000 
-6.13847e-10 -1.00173e-09        00000 
-1.42713e-09  6.43086e-11        00000 
-8.05237e-10 -3.46319e-10        00000 
 5.46883e-10  1.27840e-09        00000 
-1.32770e-10 -5.13487e-10        00000 
 3.15062e-10  1.95873e-09        00000 
-1.81733e-09 -3.87318e-10        00000 
-1.33764e-09 -1.69193e-09        00000 
-7.64704e-10  8.75462e-10        00000 
-1.41505e-11 -1.33300e-09        00000 
-7.00005e-10  6.27054e-13        00000 
 1.07752e-09 -5.34143e-10        00000 
-1.55226e-09 -1.51684e-09        00000 
-1.93031e-09 -5.55351e-10        00000 
-5.59190e-10  9.12789e-10        00000 
-1.03017e-09  1.86036e-09        00000 
-7.10116e-10 -1.41671e-09        00000 
 7.74882e-11  3.38146e-10        00000 
-8.63313e-10  7.42171e-10        00000 
-3.12129e-10 -2.98316e-09        00000 
-8.81084e-10  1.02849e-09        00000 
-1.15880e-09  4.82452e-10        00000 
-9.93071e-10  8.20791e-10        00000 
 3.21247e-10  1.65689e-10        00000 
-1.07858e-09 -2.49868e-10        00000 
-1.06071e-09  1.54986e-09        00000 
-5.20188e-10 -2.21517e-10        00000 
-1.15902e-09  1.92946e-09        00000 
 7.37625e-10 -1.09461e-09        00000 
 1.78428e-09 -1.85813e-09        00000 
 4.72518e-10 -1.38382e-10        00000 
 7.74552e-10 -1.18960e-09        00000 
 4.75865e-10 -5.32495e-10        00000 
-8.87994e-10 -1.26491e-09        00000 
-9.48525e-10 -1.06183e-09        00000 
 3.49992e-10  1.35557e-10        00000 
 7.21968e-10 -3.29457e-10        00000 
 1.37935e-09  2.09832e-10        00000 
 2.74412e-11 -3.88336e-10        00000 
-7.05072e-11 -1.31506e-09        00000 
 2.36287e-09  4.62974e-10        00000 
-2.33846e-09  1.45160e-10        00000 
 2.24333e-10 -6.01489e-10        00000 
 1.21173e-09  7.10658e-10        00000 
-6.81723e-10  1.70241e-10        00000 
-2.17280e-09  3.10340e-10        00000 
 1.62345e-10 -1.38862e-09        00000 
-1.59493e-09 -2.15823e-09        00000 
-1.80092e-09  1.02542e-09        00000 
 7.02652e-10 -1.23602e-09        00000 
-1.53269e-09 -2.46452e-11        00000 
-3.18984e-10 -2.52733e-10        00000 
 8.67217e-12  2.59908e-09        00000 
 1.51417e-09 -1.08989e-09        00000 
 9.57847e-10 -1.52292e-09        00000 
-5.07711e-10  2.68230e-10        00000 
 1.08867e-09 -1.53165e-10        00000 
 4.49973e-10  8.43126e-10        00000 
 5.50862e-10 -1.08734e-09        00000 
-4.79133e-10  9.79920e-10        00000 
-9.31493e-10 -1.21567e-09        00000 
-8.74245e-10 -6.87038e-10        00000 
 2.94008e-10  5.48368e-10        00000 
 7.16412e-10  8.02295e-10        00000 
-1.42919e-09  4.53078e-11        00000 
 2.91749e-10 -1.42759e-09        00000 
 4.17700e-10 -1.08248e-09        00000 
-1.42870e-09 -1.06117e-09        00000 
-5.43494e-10  5.72829e-10        00000 
 1.90155e-10 -3.40915e-10        00000 
-6.25917e-10 -7.26743e-10        00000 
-2.77495e-10 -1.40719e-09        00000 
-3.61865e-10 -5.79625e-10        00000 
-2.12536e-09 -2.37318e-09        00000 
-5.22178e-10 -1.50624e-10        00000 
-3.15571e-09 -1.19537e-09        00000 
-5.35984e-10 -5.78737e-10        00000 
-1.03232e-09  1.29426e-09        00000 
 9.05658e-11 -3.68352e-10        00000 
-2.12960e-09  6.38646e-10        00000 
 2.41344e-09  2.97782e-09        00000 
 4.23015e-10 -2.58845e-09        00000 
-9.10589e-10  1.92820e-10        00000 
 2.46388e-10  1.16330e-09        00000 
-7.10614e-10  4.50505e-10        00000 
 2.52281e-09  1.27550e-09        00000 
 8.29743e-10  1.56257e-09        00000 
-1.36328e-09 -6.39034e-10        00000 
 5.22675e-11  4.67104e-10        00000 
-4.58073e-10  1.77300e-09        00000 
-5.44091e-10  1.67277e-09        00000 
 1.22516e-09  1.74569e-09        00000 
 7.88916e-10 -1.18932e-09        00000 
-1.21126e-09 -6.50246e-10        00000 
-1.14014e-09  2.14964e-10        00000 
-9.99890e-10 -6.18030e-10        00000 
-5.30306e-10 -9.22135e-10        00000 
-1.41704e-09 -3.85306e-10        00000 
-1.79384e-10 -9.92905e-10        00000 
-5.29383e-10 -9.46123e-10        00000 
-6.10186e-10  1.41306e-10        00000 
-3.60046e-10 -1.43039e-10        00000 
-2.34266e-10  1.43992e-09        00000 
-3.22154e-09  7.44297e-10        00000 
 7.26345e-10 -5.95264e-10        00000 
-2.83933e-11 -7.92134e-10        00000 
-1.21668e-09  1.02175e-09        00000 
 2.22970e-09 -5.29852e-11        00000 
 5.63418e-10  3.13719e-10        00000 
-7.01263e-10  4.54961e-10        00000 
 7.96661e-11  3.93794e-09        00000 
 2.75833e-10 -1.05450e-09        00000 
 4.66812e-10 -1.33305e-09        00000 
-6.31218e-10  2.25712e-09        00000 
 8.32756e-12 -3.49765e-10        00000 
 5.49846e-10  1.19834e-09        00000 
-8.17352e-10  1.43915e-09        00000 
-3.00133e-10  4.80256e-11        00000 
 4.32891e-10  1.13294e-09        00000 
 5.12728e-10 -2.29797e-10        00000 
-4.04782e-10  2.53699e-10        00000 
 1.48404e-10  1.87435e-09        00000 
-8.75758e-10  3.48805e-11        00000 
-1.79114e-09 -6.63981e-10        00000 
 4.72340e-10  1.21442e-09        00000 
 5.09800e-10 -1.42682e-09        00000 
-5.18781e-10  2.01204e-10        00000 
 6.28958e-10  2.15311e-09        00000 
 4.47926e-11  4.43805e-11        00000 
-1.10344e-09 -4.27768e-10        00000 
-1.67250e-09  1.40189e-09        00000 
-1.20457e-09  8.90736e-11        00000 
 8.81471e-10 -9.13467e-10        00000 
-2.73168e-09  1.26953e-10        00000 
-1.23305e-09  2.86278e-11        00000 
-7.25777e-10 -2.38720e-09        00000 
-1.02810e-09  3.81668e-10        00000 
 1.98042e-10  9.86006e-10        00000 
-1.58244e-09  1.20926e-09        00000 
-3.29493e-10  2.61864e-09        00000 
-1.13346e-10 -1.22425e-09        00000 
 5.33475e-11  1.01424e-09        00000 
-1.81024e-09  2.02714e-09        00000 
 1.67176e-10  2.39368e-10        00000 
-6.68393e-10  1.14824e-11        00000 
-6.91472e-10  2.62332e-11        00000 
-4.39599e-10 -6.95934e-10        00000 
-1.31195e-09  3.17499e-10        00000 
-8.69221e-10  1.27469e-09        00000 
 1.25326e-09 -7.53772e-10        00000 
-2.16724e-09 -2.96012e-10        00000 
-2.75207e-10  7.12944e-10        00000 
-1.85105e-09  5.78041e-10        00000 
-7.31575e-11  2.78632e-10        00000 
-7.17648e-11  3.20604e-10        00000 
-7.93676e-10  1.52454e-09        00000 
-1.89888e-09 -9.48432e-11        00000 
-2.55724e-09  2.96716e-10        00000 
-1.53477e-10  1.33222e-09        00000 
-6.67313e-10  1.83482e-09        00000 
-1.64508e-09 -4.64638e-10        00000 
 1.07653e-09  2.11770e-09        00000 
 4.97664e-11  2.35332e-11        00000 
 2.53010e-10  9.63468e-10        00000 
-4.67480e-10  3.00906e-09        00000 
 8.08001e-10  1.35026e-09        00000 
 8.08882e-10  1.37382e-09        00000 
 6.94399e-10  1.89404e-09        00000 
-7.74520e-10  2.43006e-12        00000 
 2.29457e-09  1.68855e-09        00000 
 2.29221e-10  2.42565e-10        00000 
 8.39862e-10 -3.20227e-10        00000 
 1.39363e-09  1.39217e-09        00000 
 2.45166e-10  1.12577e-09        00000 
-4.01613e-09 -2.75193e-10        00000 
-1.81444e-10 -2.84714e-10        00000 
-1.25695e-09  1.37068e-09        00000 
-2.01263e-09  1.11437e-09        00000 
 6.07258e-10 -4.74898e-10        00000 
-1.23663e-09  1.23609e-09        00000 
-1.29430e-09 -6.49123e-10        00000 
 8.36735e-10 -5.62039e-10        00000 
-2.27374e-11  1.69226e-09        00000 
-8.58364e-10  3.35220e-10        00000 
-6.12744e-10 -2.44995e-10        00000 
 1.10447e-10  1.71539e-10        00000 
-1.67540e-09  1.32678e-09        00000 
 1.76098e-09  1.23050e-09        00000 
 2.00401e-10  6.10825e-10        00000 
 2.19131e-10  3.76656e-09        00000 
 1.53250e-10  2.60826e-10        00000 
 1.39227e-09  2.79863e-09        00000 
 6.84167e-10 -1.56459e-09        00000 
 3.84830e-11  7.01306e-11        00000 
-2.26521e-10  2.65132e-10        00000 
 2.80579e-10 -8.88519e-10        00000 
 9.74637e-10  1.61320e-09        00000 
 4.68106e-10  2.63596e-09        00000 
-1.29785e-09  4.12626e-10        00000 
-4.55543e-10  2.61636e-10        00000 
-1.06201e-09  1.80449e-09        00000 
-1.33525e-10  9.37902e-10        00000 
 6.49095e-10  1.61870e-09        00000 
 3.40094e-10  1.63418e-09        00000 
-8.89770e-10  9.82553e-10        00000 
-4.18083e-10 -1.05396e-09        00000 
 2.55739e-10  5.51196e-10        00000 
-1.35913e-10  4.23654e-10        00000 
 2.48917e-10  1.23379e-10        00000 
-1.61879e-09 -2.55113e-10        00000 
 8.60098e-10  9.33440e-10        00000 
-1.40744e-10  8.98922e-10        00000 
-3.66356e-10  1.04851e-09        00000 
 1.30427e-09 -2.54347e-09        00000 
 1.12180e-09 -1.08213e-09        00000 
-8.99206e-10  4.19145e-09        00000 
 9.00457e-10 -6.97742e-09        00000 
-7.55254e-10  1.40316e-10        00000 
-8.57062e-10 -1.73205e-09        00000 
 1.46252e-09 -1.64089e-09        00000 
 1.44500e-09  1.28503e-09        00000 
-1.12681e-10 -2.64993e-10        00000 
 7.30170e-11  2.58426e-10        00000 
 4.02869e-11 -1.26900e-09        00000 
-3.54732e-10 -1.01456e-09        00000 
-1.39126e-10  2.17637e-11        00000 
-6.55726e-10  6.37447e-10        00000 
-3.08958e-10  1.37069e-09        00000 
-2.18682e-10  6.23031e-10        00000 
 1.22605e-09 -5.90914e-10        00000 
-9.80477e-10 -5.49466e-10        00000 
-6.81078e-10  6.49285e-11        00000 
 1.44216e-09  7.82688e-10        00000 
-1.10840e-09  1.12158e-09        00000 
-1.16278e-10  1.14171e-09        00000 
 1.15320e-09 -6.57646e-10        00000 
 1.30232e-09 -1.46568e-09        00000 
 1.15064e-09  2.44835e-11        00000 
 1.26892e-09 -7.54774e-10        00000 
-1.56515e-10  3.86013e-10        00000 
-2.82247e-10 -3.32626e-10        00000 
-5.41053e-10  1.49555e-10        00000 
 3.54963e-10 -1.61670e-10        00000 
-7.25031e-10  1.08311e-09        00000 
-1.34357e-10  6.94044e-10        00000 
-1.17026e-09  3.14738e-10        00000 
-6.72477e-10  1.59723e-10        00000 
-2.74262e-10  5.86832e-10        00000 
-6.75796e-10 -9.02105e-11        00000 
-8.74270e-10 -1.69551e-09        00000 
 4.36873e-10  5.47544e-11        00000 
-1.69397e-10 -2.03688e-09        00000 
 1.82707e-09  2.36780e-09        00000 
-2.25583e-10  7.35906e-10        00000 
 1.37032e-10 -4.47073e-10        00000 
 8.19171e-10 -2.70493e-10        00000 
-1.16968e-10  1.14184e-09        00000 
-3.99275e-10  9.61780e-10        00000 
 1.94288e-09  9.01423e-10        00000 
-4.02387e-10 -3.12035e-10        00000 
 8.39835e-10 -1.21929e-09        00000 
-5.76037e-10  1.46077e-10        00000 
 1.35459e-09  9.58110e-10        00000 
-5.04286e-10  7.09292e-10        00000 
 4.87727e-10  1.33186e-09        00000 
 3.61375e-10  8.33154e-10        00000 
-5.12563e-11  1.01389e-09        00000 
 1.01842e-09  8.26866e-10        00000 
 5.95578e-10 -6.31076e-10        00000 
 4.07397e-10  1.15219e-09        00000 
 4.77889e-11 -7.19979e-10        00000 
-2.08018e-10  3.27224e-09        00000 
 1.22639e-10 -7.18160e-10        00000 
 3.60330e-10  1.28615e-09        00000 
-1.00396e-09  2.45802e-09        00000 
-1.35803e-09  9.77675e-10        00000 
-6.71661e-10  9.39366e-10        00000 
 4.07681e-10 -5.11740e-10        00000 
 2.32619e-10  6.75300e-11        00000 
 1.14220e-09 -2.64517e-10        00000 
 6.42170e-10  1.42967e-09        00000 
 2.36568e-10  1.44021e-09        00000 
-2.72766e-09  1.46105e-09        00000 
-1.23663e-10 -5.65272e-10        00000 
 1.95626e-11  8.73200e-10        00000 
-1.02558e-09  1.48449e-09        00000 
-1.91393e-10 -2.63782e-10        00000 
 9.92344e-11  2.97013e-09        00000 
-8.86148e-10 -2.20152e-09        00000 
-7.96234e-10  1.69933e-09        00000 