<?xml version="1.0" encoding="utf-8"?>
<VTKFile byte_order="LittleEndian" type="UnstructuredGrid" version="0.1">
   <UnstructuredGrid>
      <Piece NumberOfCells="1296" NumberOfPoints="685">
         <Points>
            <DataArray Name="Points" NumberOfComponents="3" format="ascii" type="Float32">
0.0000 0.0000 0.0000
0.0000 0.1111 0.0000
0.0000 0.2222 0.0000
0.0000 0.3333 0.0000
0.0000 0.4444 0.0000
0.0000 0.5556 0.0000
0.0000 0.6667 0.0000
0.0000 0.7778 0.0000
0.0000 0.8889 0.0000
0.0000 1.0000 0.0000
0.2222 0.0000 0.0000
0.2222 0.1111 0.0000
0.2222 0.2222 0.0000
0.2222 0.3333 0.0000
0.2222 0.4444 0.0000
0.2222 0.5556 0.0000
0.2222 0.6667 0.0000
0.2222 0.7778 0.0000
0.2222 0.8889 0.0000
0.2222 1.0000 0.0000
0.4444 0.0000 0.0000
0.4444 0.1111 0.0000
0.4444 0.2222 0.0000
0.4444 0.3333 0.0000
0.4444 0.4444 0.0000
0.4444 0.5556 0.0000
0.4444 0.6667 0.0000
0.4444 0.7778 0.0000
0.4444 0.8889 0.0000
0.4444 1.0000 0.0000
0.6667 0.0000 0.0000
0.6667 0.1111 0.0000
0.6667 0.2222 0.0000
0.6667 0.3333 0.0000
0.6667 0.4444 0.0000
0.6667 0.5556 0.0000
0.6667 0.6667 0.0000
0.6667 0.7778 0.0000
0.6667 0.8889 0.0000
0.6667 1.0000 0.0000
0.8889 0.0000 0.0000
0.8889 0.1111 0.0000
0.8889 0.2222 0.0000
0.8889 0.3333 0.0000
0.8889 0.4444 0.0000
0.8889 0.5556 0.0000
0.8889 0.6667 0.0000
0.8889 0.7778 0.0000
0.8889 0.8889 0.0000
0.8889 1.0000 0.0000
1.1111 0.0000 0.0000
1.1111 0.1111 0.0000
1.1111 0.2222 0.0000
1.1111 0.3333 0.0000
1.1111 0.4444 0.0000
1.1111 0.5556 0.0000
1.1111 0.6667 0.0000
1.1111 0.7778 0.0000
1.1111 0.8889 0.0000
1.1111 1.0000 0.0000
1.3333 0.0000 0.0000
1.3333 0.1111 0.0000
1.3333 0.2222 0.0000
1.3333 0.3333 0.0000
1.3333 0.4444 0.0000
1.3333 0.5556 0.0000
1.3333 0.6667 0.0000
1.3333 0.7778 0.0000
1.3333 0.8889 0.0000
1.3333 1.0000 0.0000
1.5556 0.0000 0.0000
1.5556 0.1111 0.0000
1.5556 0.2222 0.0000
1.5556 0.3333 0.0000
1.5556 0.4444 0.0000
1.5556 0.5556 0.0000
1.5556 0.6667 0.0000
1.5556 0.7778 0.0000
1.5556 0.8889 0.0000
1.5556 1.0000 0.0000
1.7778 0.0000 0.0000
1.7778 0.1111 0.0000
1.7778 0.2222 0.0000
1.7778 0.3333 0.0000
1.7778 0.4444 0.0000
1.7778 0.5556 0.0000
1.7778 0.6667 0.0000
1.7778 0.7778 0.0000
1.7778 0.8889 0.0000
1.7778 1.0000 0.0000
2.0000 0.0000 0.0000
2.0000 0.1111 0.0000
2.0000 0.2222 0.0000
2.0000 0.3333 0.0000
2.0000 0.4444 0.0000
2.0000 0.5556 0.0000
2.0000 0.6667 0.0000
2.0000 0.7778 0.0000
2.0000 0.8889 0.0000
2.0000 1.0000 0.0000
0.1111 0.0556 0.0000
0.1111 0.1667 0.0000
0.1111 0.2778 0.0000
0.1111 0.3889 0.0000
0.1111 0.5000 0.0000
0.1111 0.6111 0.0000
0.1111 0.7222 0.0000
0.1111 0.8333 0.0000
0.1111 0.9444 0.0000
0.3333 0.0556 0.0000
0.3333 0.1667 0.0000
0.3333 0.2778 0.0000
0.3333 0.3889 0.0000
0.3333 0.5000 0.0000
0.3333 0.6111 0.0000
0.3333 0.7222 0.0000
0.3333 0.8333 0.0000
0.3333 0.9444 0.0000
0.5556 0.0556 0.0000
0.5556 0.1667 0.0000
0.5556 0.2778 0.0000
0.5556 0.3889 0.0000
0.5556 0.5000 0.0000
0.5556 0.6111 0.0000
0.5556 0.7222 0.0000
0.5556 0.8333 0.0000
0.5556 0.9444 0.0000
0.7778 0.0556 0.0000
0.7778 0.1667 0.0000
0.7778 0.2778 0.0000
0.7778 0.3889 0.0000
0.7778 0.5000 0.0000
0.7778 0.6111 0.0000
0.7778 0.7222 0.0000
0.7778 0.8333 0.0000
0.7778 0.9444 0.0000
1.0000 0.0556 0.0000
1.0000 0.1667 0.0000
1.0000 0.2778 0.0000
1.0000 0.3889 0.0000
1.0000 0.5000 0.0000
1.0000 0.6111 0.0000
1.0000 0.7222 0.0000
1.0000 0.8333 0.0000
1.0000 0.9444 0.0000
1.2222 0.0556 0.0000
1.2222 0.1667 0.0000
1.2222 0.2778 0.0000
1.2222 0.3889 0.0000
1.2222 0.5000 0.0000
1.2222 0.6111 0.0000
1.2222 0.7222 0.0000
1.2222 0.8333 0.0000
1.2222 0.9444 0.0000
1.4444 0.0556 0.0000
1.4444 0.1667 0.0000
1.4444 0.2778 0.0000
1.4444 0.3889 0.0000
1.4444 0.5000 0.0000
1.4444 0.6111 0.0000
1.4444 0.7222 0.0000
1.4444 0.8333 0.0000
1.4444 0.9444 0.0000
1.6667 0.0556 0.0000
1.6667 0.1667 0.0000
1.6667 0.2778 0.0000
1.6667 0.3889 0.0000
1.6667 0.5000 0.0000
1.6667 0.6111 0.0000
1.6667 0.7222 0.0000
1.6667 0.8333 0.0000
1.6667 0.9444 0.0000
1.8889 0.0556 0.0000
1.8889 0.1667 0.0000
1.8889 0.2778 0.0000
1.8889 0.3889 0.0000
1.8889 0.5000 0.0000
1.8889 0.6111 0.0000
1.8889 0.7222 0.0000
1.8889 0.8333 0.0000
1.8889 0.9444 0.0000
0.0000 0.0556 0.0000
0.0556 0.0278 0.0000
0.0556 0.0833 0.0000
0.0000 0.1667 0.0000
0.0556 0.1389 0.0000
0.0556 0.1944 0.0000
0.0000 0.2778 0.0000
0.0556 0.2500 0.0000
0.0556 0.3056 0.0000
0.0000 0.3889 0.0000
0.0556 0.3611 0.0000
0.0556 0.4167 0.0000
0.0000 0.5000 0.0000
0.0556 0.4722 0.0000
0.0556 0.5278 0.0000
0.0000 0.6111 0.0000
0.0556 0.5833 0.0000
0.0556 0.6389 0.0000
0.0000 0.7222 0.0000
0.0556 0.6944 0.0000
0.0556 0.7500 0.0000
0.0000 0.8333 0.0000
0.0556 0.8056 0.0000
0.0556 0.8611 0.0000
0.0000 0.9444 0.0000
0.0556 0.9167 0.0000
0.0556 0.9722 0.0000
0.2222 0.0556 0.0000
0.2778 0.0278 0.0000
0.2778 0.0833 0.0000
0.2222 0.1667 0.0000
0.2778 0.1389 0.0000
0.2778 0.1944 0.0000
0.2222 0.2778 0.0000
0.2778 0.2500 0.0000
0.2778 0.3056 0.0000
0.2222 0.3889 0.0000
0.2778 0.3611 0.0000
0.2778 0.4167 0.0000
0.2222 0.5000 0.0000
0.2778 0.4722 0.0000
0.2778 0.5278 0.0000
0.2222 0.6111 0.0000
0.2778 0.5833 0.0000
0.2778 0.6389 0.0000
0.2222 0.7222 0.0000
0.2778 0.6944 0.0000
0.2778 0.7500 0.0000
0.2222 0.8333 0.0000
0.2778 0.8056 0.0000
0.2778 0.8611 0.0000
0.2222 0.9444 0.0000
0.2778 0.9167 0.0000
0.2778 0.9722 0.0000
0.4444 0.0556 0.0000
0.5000 0.0278 0.0000
0.5000 0.0833 0.0000
0.4444 0.1667 0.0000
0.5000 0.1389 0.0000
0.5000 0.1944 0.0000
0.4444 0.2778 0.0000
0.5000 0.2500 0.0000
0.5000 0.3056 0.0000
0.4444 0.3889 0.0000
0.5000 0.3611 0.0000
0.5000 0.4167 0.0000
0.4444 0.5000 0.0000
0.5000 0.4722 0.0000
0.5000 0.5278 0.0000
0.4444 0.6111 0.0000
0.5000 0.5833 0.0000
0.5000 0.6389 0.0000
0.4444 0.7222 0.0000
0.5000 0.6944 0.0000
0.5000 0.7500 0.0000
0.4444 0.8333 0.0000
0.5000 0.8056 0.0000
0.5000 0.8611 0.0000
0.4444 0.9444 0.0000
0.5000 0.9167 0.0000
0.5000 0.9722 0.0000
0.6667 0.0556 0.0000
0.7222 0.0278 0.0000
0.7222 0.0833 0.0000
0.6667 0.1667 0.0000
0.7222 0.1389 0.0000
0.7222 0.1944 0.0000
0.6667 0.2778 0.0000
0.7222 0.2500 0.0000
0.7222 0.3056 0.0000
0.6667 0.3889 0.0000
0.7222 0.3611 0.0000
0.7222 0.4167 0.0000
0.6667 0.5000 0.0000
0.7222 0.4722 0.0000
0.7222 0.5278 0.0000
0.6667 0.6111 0.0000
0.7222 0.5833 0.0000
0.7222 0.6389 0.0000
0.6667 0.7222 0.0000
0.7222 0.6944 0.0000
0.7222 0.7500 0.0000
0.6667 0.8333 0.0000
0.7222 0.8056 0.0000
0.7222 0.8611 0.0000
0.6667 0.9444 0.0000
0.7222 0.9167 0.0000
0.7222 0.9722 0.0000
0.8889 0.0556 0.0000
0.9444 0.0278 0.0000
0.9444 0.0833 0.0000
0.8889 0.1667 0.0000
0.9444 0.1389 0.0000
0.9444 0.1944 0.0000
0.8889 0.2778 0.0000
0.9444 0.2500 0.0000
0.9444 0.3056 0.0000
0.8889 0.3889 0.0000
0.9444 0.3611 0.0000
0.9444 0.4167 0.0000
0.8889 0.5000 0.0000
0.9444 0.4722 0.0000
0.9444 0.5278 0.0000
0.8889 0.6111 0.0000
0.9444 0.5833 0.0000
0.9444 0.6389 0.0000
0.8889 0.7222 0.0000
0.9444 0.6944 0.0000
0.9444 0.7500 0.0000
0.8889 0.8333 0.0000
0.9444 0.8056 0.0000
0.9444 0.8611 0.0000
0.8889 0.9444 0.0000
0.9444 0.9167 0.0000
0.9444 0.9722 0.0000
1.1111 0.0556 0.0000
1.1667 0.0278 0.0000
1.1667 0.0833 0.0000
1.1111 0.1667 0.0000
1.1667 0.1389 0.0000
1.1667 0.1944 0.0000
1.1111 0.2778 0.0000
1.1667 0.2500 0.0000
1.1667 0.3056 0.0000
1.1111 0.3889 0.0000
1.1667 0.3611 0.0000
1.1667 0.4167 0.0000
1.1111 0.5000 0.0000
1.1667 0.4722 0.0000
1.1667 0.5278 0.0000
1.1111 0.6111 0.0000
1.1667 0.5833 0.0000
1.1667 0.6389 0.0000
1.1111 0.7222 0.0000
1.1667 0.6944 0.0000
1.1667 0.7500 0.0000
1.1111 0.8333 0.0000
1.1667 0.8056 0.0000
1.1667 0.8611 0.0000
1.1111 0.9444 0.0000
1.1667 0.9167 0.0000
1.1667 0.9722 0.0000
1.3333 0.0556 0.0000
1.3889 0.0278 0.0000
1.3889 0.0833 0.0000
1.3333 0.1667 0.0000
1.3889 0.1389 0.0000
1.3889 0.1944 0.0000
1.3333 0.2778 0.0000
1.3889 0.2500 0.0000
1.3889 0.3056 0.0000
1.3333 0.3889 0.0000
1.3889 0.3611 0.0000
1.3889 0.4167 0.0000
1.3333 0.5000 0.0000
1.3889 0.4722 0.0000
1.3889 0.5278 0.0000
1.3333 0.6111 0.0000
1.3889 0.5833 0.0000
1.3889 0.6389 0.0000
1.3333 0.7222 0.0000
1.3889 0.6944 0.0000
1.3889 0.7500 0.0000
1.3333 0.8333 0.0000
1.3889 0.8056 0.0000
1.3889 0.8611 0.0000
1.3333 0.9444 0.0000
1.3889 0.9167 0.0000
1.3889 0.9722 0.0000
1.5556 0.0556 0.0000
1.6111 0.0278 0.0000
1.6111 0.0833 0.0000
1.5556 0.1667 0.0000
1.6111 0.1389 0.0000
1.6111 0.1944 0.0000
1.5556 0.2778 0.0000
1.6111 0.2500 0.0000
1.6111 0.3056 0.0000
1.5556 0.3889 0.0000
1.6111 0.3611 0.0000
1.6111 0.4167 0.0000
1.5556 0.5000 0.0000
1.6111 0.4722 0.0000
1.6111 0.5278 0.0000
1.5556 0.6111 0.0000
1.6111 0.5833 0.0000
1.6111 0.6389 0.0000
1.5556 0.7222 0.0000
1.6111 0.6944 0.0000
1.6111 0.7500 0.0000
1.5556 0.8333 0.0000
1.6111 0.8056 0.0000
1.6111 0.8611 0.0000
1.5556 0.9444 0.0000
1.6111 0.9167 0.0000
1.6111 0.9722 0.0000
1.7778 0.0556 0.0000
1.8333 0.0278 0.0000
1.8333 0.0833 0.0000
1.7778 0.1667 0.0000
1.8333 0.1389 0.0000
1.8333 0.1944 0.0000
1.7778 0.2778 0.0000
1.8333 0.2500 0.0000
1.8333 0.3056 0.0000
1.7778 0.3889 0.0000
1.8333 0.3611 0.0000
1.8333 0.4167 0.0000
1.7778 0.5000 0.0000
1.8333 0.4722 0.0000
1.8333 0.5278 0.0000
1.7778 0.6111 0.0000
1.8333 0.5833 0.0000
1.8333 0.6389 0.0000
1.7778 0.7222 0.0000
1.8333 0.6944 0.0000
1.8333 0.7500 0.0000
1.7778 0.8333 0.0000
1.8333 0.8056 0.0000
1.8333 0.8611 0.0000
1.7778 0.9444 0.0000
1.8333 0.9167 0.0000
1.8333 0.9722 0.0000
0.1111 0.1111 0.0000
0.1667 0.0833 0.0000
0.1111 0.2222 0.0000
0.1667 0.1944 0.0000
0.1111 0.3333 0.0000
0.1667 0.3056 0.0000
0.1111 0.4444 0.0000
0.1667 0.4167 0.0000
0.1111 0.5556 0.0000
0.1667 0.5278 0.0000
0.1111 0.6667 0.0000
0.1667 0.6389 0.0000
0.1111 0.7778 0.0000
0.1667 0.7500 0.0000
0.1111 0.8889 0.0000
0.1667 0.8611 0.0000
0.1111 1.0000 0.0000
0.1667 0.9722 0.0000
0.3333 0.1111 0.0000
0.3889 0.0833 0.0000
0.3333 0.2222 0.0000
0.3889 0.1944 0.0000
0.3333 0.3333 0.0000
0.3889 0.3056 0.0000
0.3333 0.4444 0.0000
0.3889 0.4167 0.0000
0.3333 0.5556 0.0000
0.3889 0.5278 0.0000
0.3333 0.6667 0.0000
0.3889 0.6389 0.0000
0.3333 0.7778 0.0000
0.3889 0.7500 0.0000
0.3333 0.8889 0.0000
0.3889 0.8611 0.0000
0.3333 1.0000 0.0000
0.3889 0.9722 0.0000
0.5556 0.1111 0.0000
[...]
         <PointData>
            <DataArray Name="fValues" NumberOfComponents="3" format="ascii" type="Float64">
-3.20546e-25  5.69860e-25        00000 
-2.15224e-25 -9.22391e-25        00000 
-4.18711e-24  6.86604e-25        00000 
 4.89924e-25 -2.44962e-24        00000 
 2.40454e-24  5.97029e-25        00000 
 8.80333e-25  2.44962e-25        00000 
 3.98653e-25 -5.59075e-25        00000 
-7.95407e-25  4.89481e-25        00000 
-4.92059e-25 -9.22611e-26        00000 
       00000        00000        00000 
-7.63835e-09 -8.00687e-09        00000 
 4.00727e-09  1.31991e-08        00000 
 9.52117e-09 -5.53880e-09        00000 
-2.72281e-09  1.54974e-09        00000 
 3.80207e-09 -4.39184e-09        00000 
 8.58978e-10  5.20072e-09        00000 
-1.01816e-09  3.09164e-09        00000 
 4.65006e-09  2.90473e-09        00000 
-3.11895e-09 -1.17372e-09        00000 
 6.28450e-10  7.76168e-09        00000 
 5.94900e-09  3.10695e-09        00000 
 9.41350e-09  2.71635e-09        00000 
 9.09750e-09 -9.21376e-09        00000 
-9.26753e-09 -1.44741e-08        00000 
 1.16159e-08 -7.43261e-09        00000 
 1.39258e-08  7.04765e-09        00000 
 9.53411e-09  1.02181e-08        00000 
 5.85727e-09 -1.35200e-08        00000 
 4.33534e-09 -5.84419e-09        00000 
 2.49680e-09 -8.67519e-09        00000 
 3.66780e-09  8.63663e-09        00000 
 6.66120e-10  1.21020e-08        00000 
 4.60877e-09  1.50346e-09        00000 
-1.42187e-08 -2.14999e-09        00000 
 6.28162e-09 -1.53427e-09        00000 
 1.67514e-08  3.64436e-09        00000 
 3.54152e-09  9.53159e-09        00000 
-2.85548e-09 -1.56500e-09        00000 
 3.36797e-12 -4.14841e-09        00000 
-8.01292e-09  3.07721e-08        00000 
-1.04935e-08  5.88167e-09        00000 
-1.68092e-09  1.54005e-08        00000 
-4.95665e-09 -9.57100e-09        00000 
 1.68880e-09  5.15338e-09        00000 
-2.18935e-09  4.66500e-09        00000 
-7.97422e-09 -4.75176e-09        00000 
-9.45363e-10  1.55467e-08        00000 
 8.25450e-09  1.17070e-09        00000 
-7.91714e-09 -8.00214e-09        00000 
-7.45133e-09  5.30238e-09        00000 
 4.54300e-09 -3.04239e-08        00000 
-3.73574e-09 -4.36004e-09        00000 
-3.22298e-09  1.19471e-08        00000 
-3.02585e-09  4.94689e-09        00000 
-1.34771e-09 -1.03813e-09        00000 
 5.30794e-09  6.51208e-09        00000 
 3.91670e-09  2.06102e-08        00000 
-4.74441e-09  4.44125e-10        00000 
-1.63535e-08 -9.61253e-09        00000 
-1.76456e-08  2.81193e-09        00000 
 3.02962e-09 -1.53419e-08        00000 
 1.04066e-09 -3.58045e-09        00000 
 5.08550e-10 -7.63886e-09        00000 
 7.89581e-09  1.33818e-08        00000 
 1.63908e-09 -1.78439e-09        00000 
 7.60485e-09 -3.43619e-09        00000 
 4.25138e-09 -1.00450e-09        00000 
 2.02422e-09  1.02825e-09        00000 
-1.13041e-08  4.61058e-09        00000 
 3.73327e-09  6.87487e-09        00000 
-6.56232e-10  3.64480e-10        00000 
 1.65039e-09  5.43089e-09        00000 
 1.37094e-08  1.49606e-09        00000 
 1.42347e-08  1.11474e-08        00000 
 2.69517e-09  6.84120e-09        00000 
 1.89127e-09 -6.35123e-09        00000 
 1.01772e-08 -7.01939e-09        00000 
-1.89141e-09  1.08848e-08        00000 
 4.38550e-09 -7.64622e-09        00000 
 2.09259e-09 -1.35039e-08        00000 
 1.11962e-08 -2.15697e-08        00000 
 5.24869e-09 -5.94935e-09        00000 
 2.62452e-09  2.09216e-09        00000 
 4.04964e-09 -2.56549e-10        00000 
 1.08251e-08  4.18893e-09        00000 
 1.03305e-08  1.05145e-09        00000 
 5.49954e-09  1.17782e-08        00000 
 7.13089e-09  6.80851e-09        00000 
-1.18448e-08  9.98844e-09        00000 
-4.75062e-10  4.55181e-08        00000 
 1.37667e-08 -2.07120e-09        00000 
 1.23732e-08  2.25926e-09        00000 
 3.52503e-09  1.89132e-09        00000 
 6.48078e-09  3.27624e-09        00000 
 2.03900e-08 -4.15859e-09        00000 
 1.04606e-08  4.84349e-10        00000 
 5.12495e-09  1.00992e-08        00000 
 5.88130e-09  1.09809e-08        00000 
 7.33934e-09  4.58115e-09        00000 
 3.87472e-09  3.17272e-09        00000 
-3.05609e-09  5.93909e-09        00000 
 1.10680e-08  3.83045e-09        00000 
 9.71817e-09 -3.80541e-09        00000 
-1.74840e-09  6.06022e-09        00000 
-4.13603e-09  3.39262e-09        00000 
-3.52849e-09 -1.09285e-09        00000 
-7.59523e-10  4.16892e-09        00000 
-2.18494e-09  2.37468e-09        00000 
-6.49427e-09 -2.76760e-09        00000 
-5.15205e-09 -2.58586e-09        00000 
 1.68116e-08  4.72738e-09        00000 
 1.68764e-08 -1.38875e-09        00000 
 1.58315e-09 -7.77407e-09        00000 
-2.49519e-09 -3.99464e-09        00000 
 2.87325e-09  1.26693e-08        00000 
-4.32756e-10  1.06760e-08        00000 
 3.67615e-09 -3.45889e-10        00000 
 8.23017e-09 -1.75323e-09        00000 
 6.84853e-09  1.27582e-09        00000 
 1.33686e-09 -6.82910e-09        00000 
-2.65753e-09 -6.90823e-09        00000 
-8.47677e-10 -1.27176e-09        00000 
-1.95328e-09 -1.01475e-08        00000 
 9.81417e-09  7.54117e-09        00000 
 2.17084e-09  2.59823e-09        00000 
 8.13779e-09  1.19665e-09        00000 
 1.77458e-08 -5.22598e-09        00000 
-7.22137e-09 -9.32957e-09        00000 
-6.14025e-09  1.93645e-09        00000 
-9.76708e-09  3.35596e-10        00000 
 5.45958e-09 -2.78809e-09        00000 
-4.42844e-09 -1.35149e-08        00000 
-8.53447e-10 -5.22919e-09        00000 
 5.33005e-09 -1.04467e-08        00000 
-1.12550e-10 -5.09224e-09        00000 
-1.25610e-08 -8.82687e-09        00000 
-2.18906e-09  4.64104e-09        00000 
 2.71517e-09  1.11493e-08        00000 
-4.33813e-09  8.55665e-09        00000 
 1.16388e-09 -1.01853e-08        00000 
 2.61311e-09 -7.22028e-09        00000 
 6.56271e-10 -7.34222e-09        00000 
-1.21825e-08 -1.27059e-09        00000 
-2.58713e-09  8.62705e-10        00000 
 6.66643e-09  3.50560e-09        00000 
-1.12741e-08  4.42157e-09        00000 
-7.50299e-09 -2.00487e-10        00000 
-7.61298e-09 -4.92733e-09        00000 
 8.09766e-09 -7.85771e-09        00000 
 9.71593e-09 -3.43790e-09        00000 
 4.02508e-09  3.72722e-10        00000 
-1.45334e-09  3.52949e-09        00000 
 9.17666e-09  4.31797e-11        00000 
-6.56524e-09 -4.31140e-09        00000 
-3.36052e-09  6.25948e-09        00000 
 9.76570e-11  2.17791e-09        00000 
-1.20906e-08  2.17516e-09        00000 
 7.68551e-09 -3.09367e-09        00000 
-1.31764e-08 -1.02254e-08        00000 
-1.19674e-08 -1.41815e-08        00000 
 2.15258e-09 -1.53079e-09        00000 
-3.15188e-09  7.83709e-09        00000 
-6.46313e-09  1.21962e-08        00000 
 5.86226e-09  2.10356e-08        00000 
 3.79794e-09  3.48298e-09        00000 
-1.32559e-10 -6.05084e-10        00000 
 4.16406e-09 -7.68496e-09        00000 
 3.59870e-09 -7.81569e-10        00000 
 7.52112e-09  8.96677e-09        00000 
 1.45110e-08  7.12696e-09        00000 
 1.52913e-08 -3.83396e-09        00000 
 1.13478e-08  2.44684e-09        00000 
-6.32834e-09  2.40334e-09        00000 
-4.87944e-10  1.06168e-08        00000 
-4.92258e-09  3.31099e-10        00000 
 6.67188e-09  3.48433e-09        00000 
 7.06166e-09  1.07784e-08        00000 
-1.28017e-09  1.44425e-08        00000 
 4.69015e-10  1.35878e-08        00000 
 4.96726e-09  2.17145e-08        00000 
 5.10283e-10 -5.68426e-09        00000 
 1.13258e-24 -3.18271e-25        00000 
-3.57383e-09  8.64331e-09        00000 
 7.43381e-09 -1.24732e-08        00000 
 2.90724e-25  1.18210e-25        00000 
 2.67934e-10 -3.80611e-09        00000 
 3.86085e-09 -2.14175e-09        00000 
-9.30578e-25 -6.97934e-25        00000 
-1.41130e-08 -5.05502e-09        00000 
 4.36566e-09 -7.86217e-09        00000 
-4.00756e-25 -1.03008e-24        00000 
-3.92695e-09 -9.99818e-09        00000 
 9.44417e-09 -5.27753e-09        00000 
 9.30578e-25  6.97934e-25        00000 
 3.91531e-09  4.10392e-09        00000 
 3.96134e-09 -1.03598e-09        00000 
-6.62594e-25 -1.30269e-24        00000 
 1.45577e-10 -3.20050e-09        00000 
-2.33618e-09 -7.73166e-09        00000 
 9.30578e-25  4.65289e-25        00000 
-3.61262e-09  8.64226e-09        00000 
 2.02522e-09 -5.70424e-09        00000 
-1.86116e-24  2.90806e-26        00000 
-7.45508e-09  3.86210e-09        00000 
-6.86241e-09  4.84711e-10        00000 
 2.87180e-26 -4.69204e-25        00000 
-2.91803e-09  4.49364e-09        00000 
-2.35258e-09 -9.18358e-09        00000 
-1.39418e-08  5.53407e-09        00000 
-7.19706e-09  6.34580e-09        00000 
 2.66333e-09  6.67714e-09        00000 
-1.31710e-09 -2.96383e-09        00000 
 3.58657e-09  1.40448e-08        00000 
-1.37333e-08 -3.61814e-09        00000 
-7.04848e-09 -1.46429e-08        00000 
-2.71259e-09  8.85380e-09        00000 
-1.08891e-09 -8.12865e-09        00000 
-4.26150e-09 -8.96223e-10        00000 
 8.62220e-09 -3.40585e-09        00000 
-1.01827e-08 -1.10239e-08        00000 
-1.32499e-08 -6.07882e-09        00000 
-1.11334e-09  6.77597e-09        00000 
-6.83492e-09  1.53572e-08        00000 
-5.43356e-09 -1.07332e-08        00000 
 1.76380e-09  3.38929e-09        00000 
-5.59397e-09  6.21027e-09        00000 
-4.80519e-09 -2.04570e-08        00000 
-4.46666e-09  8.72798e-09        00000 
-7.19252e-09  3.81685e-09        00000 
-7.61738e-09  5.75039e-09        00000 
 6.04683e-09  1.91379e-09        00000 
-6.41622e-09 -2.77273e-09        00000 
-6.91730e-09  1.28157e-08        00000 
 1.00024e-09 -3.81860e-10        00000 
-4.93715e-09  9.77349e-09        00000 
 2.39120e-09 -1.11433e-08        00000 
 1.32038e-08 -1.67829e-08        00000 
 2.81879e-10  2.69825e-09        00000 
 3.42797e-09 -1.09096e-08        00000 
 4.43158e-10 -3.04200e-09        00000 
-9.93671e-09 -9.59866e-09        00000 
-3.27686e-09 -9.04108e-09        00000 
-2.53713e-09  4.22677e-09        00000 
 2.62244e-09 -2.63773e-09        00000 
 1.36879e-08  2.73710e-09        00000 
-1.06759e-09 -2.27208e-09        00000 
-7.77447e-10 -8.95239e-09        00000 
 1.92488e-08  6.00428e-09        00000 
-1.43051e-08 -1.05155e-10        00000 
 1.35740e-09 -4.79916e-09        00000 
 8.30437e-09  5.31108e-09        00000 
-3.69586e-09  5.40830e-11        00000 
-1.51882e-08  2.74586e-09        00000 
 1.50160e-09 -9.19831e-09        00000 
-1.14763e-08 -1.69317e-08        00000 
-1.11343e-08  6.17990e-09        00000 
 6.93941e-09 -7.92206e-09        00000 
-7.40914e-09 -3.77387e-09        00000 
-3.83217e-10 -1.32555e-09        00000 
-2.56868e-10  1.66034e-08        00000 
 1.39193e-08 -8.60994e-09        00000 
 1.08522e-08 -1.03989e-08        00000 
-6.45662e-09 -1.29973e-09        00000 
 3.25470e-09 -5.53115e-09        00000 
 4.32561e-09  6.27292e-09        00000 
 1.29840e-09 -8.17342e-09        00000 
-3.57461e-09  7.32198e-09        00000 
-5.22536e-09 -7.29390e-09        00000 
-8.46070e-09 -4.87086e-09        00000 
 1.77369e-09  2.99964e-09        00000 
 4.49599e-09  6.86011e-09        00000 
-1.18181e-08 -9.38471e-10        00000 
 2.93633e-09 -1.04268e-08        00000 
 2.36135e-09 -7.46815e-09        00000 
-9.08940e-09 -5.04666e-09        00000 
-2.13514e-09  5.32910e-09        00000 
-8.07177e-12 -4.83460e-09        00000 
-3.87298e-09 -4.81963e-09        00000 
-3.38711e-09 -1.39758e-08        00000 
-4.31461e-09 -4.12004e-09        00000 
-1.54107e-08 -1.66992e-08        00000 
-2.73258e-09 -1.28935e-09        00000 
-2.19313e-08 -9.49560e-09        00000 
-2.17937e-09 -6.07127e-09        00000 
-6.41036e-09  1.00758e-08        00000 
-2.24304e-10 -3.44570e-09        00000 
-1.28843e-08  6.03701e-09        00000 
 1.99333e-08  2.04186e-08        00000 
 3.44929e-09 -1.80979e-08        00000 
-9.48688e-09 -3.02452e-09        00000 
 2.79854e-10  2.48315e-09        00000 
-6.94979e-09  4.78813e-09        00000 
 1.59110e-08  1.15257e-08        00000 
 3.51879e-09  1.13144e-08        00000 
-1.09651e-08 -6.65450e-09        00000 
-2.83329e-09  2.19066e-09        00000 
-6.71994e-09  9.80942e-09        00000 
-5.70058e-09  9.21982e-09        00000 
 3.59303e-09  1.26688e-08        00000 
 1.60742e-09 -1.02050e-08        00000 
-1.16271e-08 -4.54759e-09        00000 
-9.21180e-09  6.08576e-10        00000 
-7.61209e-09 -5.61667e-09        00000 
-7.15052e-09 -7.19886e-09        00000 
-9.98341e-09 -6.41254e-09        00000 
-2.09407e-09 -7.06708e-09        00000 
-1.52413e-09 -6.79637e-09        00000 
-2.91649e-09 -4.43772e-09        00000 
-3.46769e-09  1.60085e-11        00000 
-2.18097e-09  9.83054e-09        00000 
-2.10403e-08  7.35067e-10        00000 
 4.47949e-09 -4.34309e-09        00000 
 2.17133e-09 -3.84873e-09        00000 
-7.99812e-09  5.66535e-09        00000 
 1.96521e-08  3.43483e-10        00000 
 5.23153e-09  1.04569e-09        00000 
-5.22273e-09 -3.65745e-10        00000 
-4.01289e-09  3.31450e-08        00000 
-2.06168e-09 -1.10769e-08        00000 
 7.22963e-10 -1.02060e-08        00000 
-4.71900e-09  1.56509e-08        00000 
-2.20382e-09 -2.55049e-09        00000 
 3.52526e-09  5.91032e-09        00000 
-5.92658e-09  1.14751e-08        00000 
-4.77331e-09 -4.20428e-10        00000 
 2.79205e-09  4.56897e-09        00000 
 1.78900e-09 -1.88567e-09        00000 
-4.91661e-09  1.04486e-09        00000 
 2.55331e-09  1.31395e-08        00000 
-3.73066e-09  2.45244e-10        00000 
-1.39090e-08 -5.63581e-09        00000 
 6.96170e-09  8.20306e-09        00000 
 2.83174e-09 -1.01090e-08        00000 
-6.54774e-09 -2.56685e-09        00000 
 4.13634e-09  1.46938e-08        00000 
-1.26832e-09  9.16032e-10        00000 
-9.51007e-09 -4.41923e-09        00000 
-1.09103e-08  7.06550e-09        00000 
-8.33057e-09 -1.84602e-09        00000 
 7.01880e-09 -6.56144e-09        00000 
-1.71543e-08 -1.50990e-09        00000 
-7.23028e-09 -3.59535e-10        00000 
-3.27691e-09 -2.25058e-08        00000 
-9.45448e-09  4.67567e-09        00000 
 2.39112e-09  1.08191e-08        00000 
-1.33430e-08  7.19965e-09        00000 
-5.04204e-09  1.92894e-08        00000 
-5.42011e-09 -9.36204e-09        00000 
-2.93815e-09  8.81431e-09        00000 
-1.22734e-08  1.34402e-08        00000 
 1.06525e-10  2.58601e-09        00000 
-8.12662e-09  1.07804e-09        00000 
-6.57170e-09 -3.25674e-09        00000 
-1.29694e-09 -3.64065e-09        00000 
-1.19391e-08  2.16720e-09        00000 
-4.32686e-09  7.71175e-09        00000 
 8.47371e-09 -3.34411e-09        00000 
-1.72599e-08 -5.41662e-09        00000 
 4.91752e-10  6.03252e-09        00000 
-1.11365e-08  5.39846e-09        00000 
-1.94467e-09 -1.18806e-09        00000 
 2.91692e-10  5.90078e-09        00000 
-9.02418e-10  1.21296e-08        00000 
-1.14459e-08  4.47855e-10        00000 
-1.58015e-08  3.11665e-09        00000 
-1.39869e-09  1.29361e-08        00000 
 2.23565e-10  1.27177e-08        00000 
-1.17190e-08 -3.09544e-09        00000 
 9.93424e-09  1.57454e-08        00000 
 4.43407e-09 -2.55966e-09        00000 
-1.01531e-09  9.59905e-09        00000 
-3.59790e-09  1.72716e-08        00000 
 3.06252e-09  1.35749e-08        00000 
 3.75900e-09  1.11222e-08        00000 
 4.23623e-09  1.35936e-08        00000 
-6.20426e-09  6.03691e-10        00000 
 1.33833e-08  1.19762e-08        00000 
-1.98838e-09  5.13549e-09        00000 
 2.17199e-09 -4.56311e-11        00000 
 9.93958e-09  1.06765e-08        00000 
-1.82121e-09  5.26265e-09        00000 
-2.82701e-08  1.38884e-09        00000 
 8.38895e-10 -3.81867e-09        00000 
-1.11741e-08  9.60178e-09        00000 
-1.31903e-08  1.12915e-08        00000 
 6.77099e-09 -4.68827e-09        00000 
-8.56940e-09  9.20447e-09        00000 
-8.42124e-09 -2.67814e-09        00000 
 9.71821e-09 -5.69878e-09        00000 
 1.91250e-10  1.36022e-08        00000 
-3.83011e-09  3.78418e-09        00000 
-1.17103e-09  3.06784e-10        00000 
 1.72307e-09  3.05269e-09        00000 
-1.03983e-08  1.14547e-08        00000 
 1.39843e-08  1.15246e-08        00000 
 2.96563e-09  5.49863e-09        00000 
 2.90041e-09  2.59676e-08        00000 
 2.31853e-09  4.40650e-09        00000 
 9.24229e-09  1.98070e-08        00000 
 4.88529e-09 -1.15398e-08        00000 
-1.66204e-09  2.38806e-09        00000 
-9.38201e-10  4.91895e-09        00000 
 1.01528e-09 -5.25404e-09        00000 
 3.19528e-09  1.12965e-08        00000 
 7.83757e-10  2.01440e-08        00000 
-1.01142e-08  4.27035e-09        00000 
-5.72891e-09  3.48685e-09        00000 
-7.52198e-09  1.30116e-08        00000 
-2.54158e-09  8.05939e-09        00000 
 4.14843e-09  1.26739e-08        00000 
 2.21144e-09  1.14284e-08        00000 
-6.49618e-09  8.03244e-09        00000 
-1.42677e-09 -5.17781e-09        00000 
 2.31324e-09  6.52948e-09        00000 
-2.23810e-09  4.85595e-09        00000 
 4.10796e-09  3.43017e-09        00000 
-1.19049e-08  1.93609e-09        00000 
 6.33520e-09  8.44069e-09        00000 
 1.52880e-09  5.03373e-09        00000 
-1.59150e-09  1.09430e-08        00000 
 9.26264e-09 -1.47803e-08        00000 
 9.53179e-09 -5.36861e-09        00000 
-3.35598e-09  2.95926e-08        00000 
 1.00636e-08 -5.02185e-08        00000 
-5.55573e-09  3.50756e-09        00000 
-5.72495e-09 -1.64649e-08        00000 
 1.11071e-08 -1.13881e-08        00000 
 1.15400e-08  1.08909e-08        00000 
-8.83063e-11 -2.04590e-09        00000 
-2.93610e-10  2.47692e-09        00000 
 8.97436e-10 -9.50407e-09        00000 
-8.73644e-10 -6.58817e-09        00000 
-6.24019e-10  4.09162e-09        00000 
-2.38920e-09  3.89286e-09        00000 
-1.07771e-09  1.10052e-08        00000 
-1.12071e-09  5.77299e-09        00000 
 9.72527e-09 -2.91146e-09        00000 
-5.56978e-09 -1.70783e-09        00000 
-6.03715e-09  2.78578e-09        00000 
 1.04340e-08  5.18983e-09        00000 
-4.39876e-09  9.00231e-09        00000 
 1.54393e-09  6.92081e-09        00000 
 1.03059e-08 -3.05788e-09        00000 
 7.56694e-09 -1.60488e-08        00000 
 8.81316e-09  3.00921e-09        00000 
 8.10433e-09 -5.91969e-09        00000 
-3.45335e-09  5.97652e-09        00000 
-9.71780e-10 -3.10821e-09        00000 
-2.07150e-09  4.38262e-09        00000 
 1.76999e-09  2.99224e-10        00000 
-3.47799e-09  1.12857e-08        00000 
 2.08304e-09  8.78014e-09        00000 
-8.19330e-09  6.58150e-09        00000 
-6.09981e-09  3.25537e-09        00000 
-8.02316e-10  6.02825e-09        00000 
-5.27246e-09 -1.00130e-10        00000 
-4.31195e-09 -9.65810e-09        00000 
 4.33641e-09 -3.13051e-10        00000 
 1.99800e-09 -1.46966e-08        00000 
 1.47756e-08  1.79465e-08        00000 
-2.57279e-09  9.77542e-09        00000 
 4.13982e-10  1.10322e-09        00000 
 4.06334e-09  1.27881e-09        00000 
 2.03575e-09  1.16573e-08        00000 
-3.37033e-09  1.02789e-08        00000 
 1.24815e-08  9.54689e-09        00000 
-4.60112e-09  6.23750e-10        00000 
 6.55394e-09 -4.13974e-09        00000 
-4.24394e-09  6.71955e-09        00000 
 1.35276e-08  1.24406e-08        00000 
-1.88879e-09  8.66037e-09        00000 
 3.71154e-09  1.32221e-08        00000 
 3.83246e-09  7.73150e-09        00000 
-8.80087e-11  9.91059e-09        00000 
 7.93314e-09  5.04992e-09        00000 
 6.42634e-09 -4.63331e-09        00000 
 6.84712e-09  6.75917e-09        00000 
-4.12847e-10 -4.98648e-09        00000 
 1.07028e-09  2.40928e-08        00000 
 1.02378e-09 -2.35897e-09        00000 
 3.18909e-09  1.12966e-08        00000 
-9.84690e-09  1.93244e-08        00000 
-8.63528e-09  8.58398e-09        00000 
-7.39617e-09  6.16581e-09        00000 
 1.25584e-09 -5.94383e-09        00000 
-1.28759e-09 -1.15651e-09        00000 
 8.69821e-09 -1.08728e-09        00000 
 3.75680e-09  1.05109e-08        00000 
 6.33349e-10  8.94682e-09        00000 
-2.09378e-08  9.89681e-09        00000 
 2.10635e-09 -2.74910e-09        00000 
-6.12053e-11  5.28453e-09        00000 
-3.79714e-10  1.25858e-08        00000 
-5.61865e-10 -4.48671e-09        00000 
 2.60239e-09  1.92308e-08        00000 
-4.06831e-09 -1.59144e-08        00000 
-3.84280e-09  9.30950e-09        00000 