<?xml version="1.0" encoding="utf-8"?>
<VTKFile byte_order="LittleEndian" type="UnstructuredGrid" version="0.1">
   <UnstructuredGrid>
      <Piece NumberOfCells="1296" NumberOfPoints="685">
         <Points>
            <DataArray Name="Points" NumberOfComponents="3" format="ascii" type="Float32">
0.0000 0.0000 0.0000
0.0000 0.1111 0.0000
0.0000 0.2222 0.0000
0.0000 0.3333 0.0000
0.0000 0.4444 0.0000
0.0000 0.5556 0.0000
0.0000 0.6667 0.0000
0.0000 0.7778 0.0000
0.0000 0.8889 0.0000
0.0000 1.0000 0.0000
0.2222 0.0000 0.0000
0.2222 0.1111 0.0000
0.2222 0.2222 0.0000
0.2222 0.3333 0.0000
0.2222 0.4444 0.0000
0.2222 0.5556 0.0000
0.2222 0.6667 0.0000
0.2222 0.7778 0.0000
0.2222 0.8889 0.0000
0.2222 1.0000 0.0000
0.4444 0.0000 0.0000
0.4444 0.1111 0.0000
0.4444 0.2222 0.0000
0.4444 0.3333 0.0000
0.4444 0.4444 0.0000
0.4444 0.5556 0.0000
0.4444 0.6667 0.0000
0.4444 0.7778 0.0000
0.4444 0.8889 0.0000
0.4444 1.0000 0.0000
0.6667 0.0000 0.0000
0.6667 0.1111 0.0000
0.6667 0.2222 0.0000
0.6667 0.3333 0.0000
0.6667 0.4444 0.0000
0.6667 0.5556 0.0000
0.6667 0.6667 0.0000
0.6667 0.7778 0.0000
0.6667 0.8889 0.0000
0.6667 1.0000 0.0000
0.8889 0.0000 0.0000
0.8889 0.1111 0.0000
0.8889 0.2222 0.0000
0.8889 0.3333 0.0000
0.8889 0.4444 0.0000
0.8889 0.5556 0.0000
0.8889 0.6667 0.0000
0.8889 0.7778 0.0000
0.8889 0.8889 0.0000
0.8889 1.0000 0.0000
1.1111 0.0000 0.0000
1.1111 0.1111 0.0000
1.1111 0.2222 0.0000
1.1111 0.3333 0.0000
1.1111 0.4444 0.0000
1.1111 0.5556 0.0000
1.1111 0.6667 0.0000
1.1111 0.7778 0.0000
1.1111 0.8889 0.0000
1.1111 1.0000 0.0000
1.3333 0.0000 0.0000
1.3333 0.1111 0.0000
1.3333 0.2222 0.0000
1.3333 0.3333 0.0000
1.3333 0.4444 0.0000
1.3333 0.5556 0.0000
1.3333 0.6667 0.0000
1.3333 0.7778 0.0000
1.3333 0.8889 0.0000
1.3333 1.0000 0.0000
1.5556 0.0000 0.0000
1.5556 0.1111 0.0000
1.5556 0.2222 0.0000
1.5556 0.3333 0.0000
1.5556 0.4444 0.0000
1.5556 0.5556 0.0000
1.5556 0.6667 0.0000
1.5556 0.7778 0.0000
1.5556 0.8889 0.0000
1.5556 1.0000 0.0000
1.7778 0.0000 0.0000
1.7778 0.1111 0.0000
1.7778 0.2222 0.0000
1.7778 0.3333 0.0000
1.7778 0.4444 0.0000
1.7778 0.5556 0.0000
1.7778 0.6667 0.0000
1.7778 0.7778 0.0000
1.7778 0.8889 0.0000
1.7778 1.0000 0.0000
2.0000 0.0000 0.0000
2.0000 0.1111 0.0000
2.0000 0.2222 0.0000
2.0000 0.3333 0.0000
2.0000 0.4444 0.0000
2.0000 0.5556 0.0000
2.0000 0.6667 0.0000
2.0000 0.7778 0.0000
2.0000 0.8889 0.0000
2.0000 1.0000 0.0000
0.1111 0.0556 0.0000
0.1111 0.1667 0.0000
0.1111 0.2778 0.0000
0.1111 0.3889 0.0000
0.1111 0.5000 0.0000
0.1111 0.6111 0.0000
0.1111 0.7222 0.0000
0.1111 0.8333 0.0000
0.1111 0.9444 0.0000
0.3333 0.0556 0.0000
0.3333 0.1667 0.0000
0.3333 0.2778 0.0000
0.3333 0.3889 0.0000
0.3333 0.5000 0.0000
0.3333 0.6111 0.0000
0.3333 0.7222 0.0000
0.3333 0.8333 0.0000
0.3333 0.9444 0.0000
0.5556 0.0556 0.0000
0.5556 0.1667 0.0000
0.5556 0.2778 0.0000
0.5556 0.3889 0.0000
0.5556 0.5000 0.0000
0.5556 0.6111 0.0000
0.5556 0.7222 0.0000
0.5556 0.8333 0.0000
0.5556 0.9444 0.0000
0.7778 0.0556 0.0000
0.7778 0.1667 0.0000
0.7778 0.2778 0.0000
0.7778 0.3889 0.0000
0.7778 0.5000 0.0000
0.7778 0.6111 0.0000
0.7778 0.7222 0.0000
0.7778 0.8333 0.0000
0.7778 0.9444 0.0000
1.0000 0.0556 0.0000
1.0000 0.1667 0.0000
1.0000 0.2778 0.0000
1.0000 0.3889 0.0000
1.0000 0.5000 0.0000
1.0000 0.6111 0.0000
1.0000 0.7222 0.0000
1.0000 0.8333 0.0000
1.0000 0.9444 0.0000
1.2222 0.0556 0.0000
1.2222 0.1667 0.0000
1.2222 0.2778 0.0000
1.2222 0.3889 0.0000
1.2222 0.5000 0.0000
1.2222 0.6111 0.0000
1.2222 0.7222 0.0000
1.2222 0.8333 0.0000
1.2222 0.9444 0.0000
1.4444 0.0556 0.0000
1.4444 0.1667 0.0000
1.4444 0.2778 0.0000
1.4444 0.3889 0.0000
1.4444 0.5000 0.0000
1.4444 0.6111 0.0000
1.4444 0.7222 0.0000
1.4444 0.8333 0.0000
1.4444 0.9444 0.0000
1.6667 0.0556 0.0000
1.6667 0.1667 0.0000
1.6667 0.2778 0.0000
1.6667 0.3889 0.0000
1.6667 0.5000 0.0000
1.6667 0.6111 0.0000
1.6667 0.7222 0.0000
1.6667 0.8333 0.0000
1.6667 0.9444 0.0000
1.8889 0.0556 0.0000
1.8889 0.1667 0.0000
1.8889 0.2778 0.0000
1.8889 0.3889 0.0000
1.8889 0.5000 0.0000
1.8889 0.6111 0.0000
1.8889 0.7222 0.0000
1.8889 0.8333 0.0000
1.8889 0.9444 0.0000
0.0000 0.0556 0.0000
0.0556 0.0278 0.0000
0.0556 0.0833 0.0000
0.0000 0.1667 0.0000
0.0556 0.1389 0.0000
0.0556 0.1944 0.0000
0.0000 0.2778 0.0000
0.0556 0.2500 0.0000
0.0556 0.3056 0.0000
0.0000 0.3889 0.0000
0.0556 0.3611 0.0000
0.0556 0.4167 0.0000
0.0000 0.5000 0.0000
0.0556 0.4722 0.0000
0.0556 0.5278 0.0000
0.0000 0.6111 0.0000
0.0556 0.5833 0.0000
0.0556 0.6389 0.0000
0.0000 0.7222 0.0000
0.0556 0.6944 0.0000
0.0556 0.7500 0.0000
0.0000 0.8333 0.0000
0.0556 0.8056 0.0000
0.0556 0.8611 0.0000
0.0000 0.9444 0.0000
0.0556 0.9167 0.0000
0.0556 0.9722 0.0000
0.2222 0.0556 0.0000
0.2778 0.0278 0.0000
0.2778 0.0833 0.0000
0.2222 0.1667 0.0000
0.2778 0.1389 0.0000
0.2778 0.1944 0.0000
0.2222 0.2778 0.0000
0.2778 0.2500 0.0000
0.2778 0.3056 0.0000
0.2222 0.3889 0.0000
0.2778 0.3611 0.0000
0.2778 0.4167 0.0000
0.2222 0.5000 0.0000
0.2778 0.4722 0.0000
0.2778 0.5278 0.0000
0.2222 0.6111 0.0000
0.2778 0.5833 0.0000
0.2778 0.6389 0.0000
0.2222 0.7222 0.0000
0.2778 0.6944 0.0000
0.2778 0.7500 0.0000
0.2222 0.8333 0.0000
0.2778 0.8056 0.0000
0.2778 0.8611 0.0000
0.2222 0.9444 0.0000
0.2778 0.9167 0.0000
0.2778 0.9722 0.0000
0.4444 0.0556 0.0000
0.5000 0.0278 0.0000
0.5000 0.0833 0.0000
0.4444 0.1667 0.0000
0.5000 0.1389 0.0000
0.5000 0.1944 0.0000
0.4444 0.2778 0.0000
0.5000 0.2500 0.0000
0.5000 0.3056 0.0000
0.4444 0.3889 0.0000
0.5000 0.3611 0.0000
0.5000 0.4167 0.0000
0.4444 0.5000 0.0000
0.5000 0.4722 0.0000
0.5000 0.5278 0.0000
0.4444 0.6111 0.0000
0.5000 0.5833 0.0000
0.5000 0.6389 0.0000
0.4444 0.7222 0.0000
0.5000 0.6944 0.0000
0.5000 0.7500 0.0000
0.4444 0.8333 0.0000
0.5000 0.8056 0.0000
0.5000 0.8611 0.0000
0.4444 0.9444 0.0000
0.5000 0.9167 0.0000
0.5000 0.9722 0.0000
0.6667 0.0556 0.0000
0.7222 0.0278 0.0000
0.7222 0.0833 0.0000
0.6667 0.1667 0.0000
0.7222 0.1389 0.0000
0.7222 0.1944 0.0000
0.6667 0.2778 0.0000
0.7222 0.2500 0.0000
0.7222 0.3056 0.0000
0.6667 0.3889 0.0000
0.7222 0.3611 0.0000
0.7222 0.4167 0.0000
0.6667 0.5000 0.0000
0.7222 0.4722 0.0000
0.7222 0.5278 0.0000
0.6667 0.6111 0.0000
0.7222 0.5833 0.0000
0.7222 0.6389 0.0000
0.6667 0.7222 0.0000
0.7222 0.6944 0.0000
0.7222 0.7500 0.0000
0.6667 0.8333 0.0000
0.7222 0.8056 0.0000
0.7222 0.8611 0.0000
0.6667 0.9444 0.0000
0.7222 0.9167 0.0000
0.7222 0.9722 0.0000
0.8889 0.0556 0.0000
0.9444 0.0278 0.0000
0.9444 0.0833 0.0000
0.8889 0.1667 0.0000
0.9444 0.1389 0.0000
0.9444 0.1944 0.0000
0.8889 0.2778 0.0000
0.9444 0.2500 0.0000
0.9444 0.3056 0.0000
0.8889 0.3889 0.0000
0.9444 0.3611 0.0000
0.9444 0.4167 0.0000
0.8889 0.5000 0.0000
0.9444 0.4722 0.0000
0.9444 0.5278 0.0000
0.8889 0.6111 0.0000
0.9444 0.5833 0.0000
0.9444 0.6389 0.0000
0.8889 0.7222 0.0000
0.9444 0.6944 0.0000
0.9444 0.7500 0.0000
0.8889 0.8333 0.0000
0.9444 0.8056 0.0000
0.9444 0.8611 0.0000
0.8889 0.9444 0.0000
0.9444 0.9167 0.0000
0.9444 0.9722 0.0000
1.1111 0.0556 0.0000
1.1667 0.0278 0.0000
1.1667 0.0833 0.0000
1.1111 0.1667 0.0000
1.1667 0.1389 0.0000
1.1667 0.1944 0.0000
1.1111 0.2778 0.0000
1.1667 0.2500 0.0000
1.1667 0.3056 0.0000
1.1111 0.3889 0.0000
1.1667 0.3611 0.0000
1.1667 0.4167 0.0000
1.1111 0.5000 0.0000
1.1667 0.4722 0.0000
1.1667 0.5278 0.0000
1.1111 0.6111 0.0000
1.1667 0.5833 0.0000
1.1667 0.6389 0.0000
1.1111 0.7222 0.0000
1.1667 0.6944 0.0000
1.1667 0.7500 0.0000
1.1111 0.8333 0.0000
1.1667 0.8056 0.0000
1.1667 0.8611 0.0000
1.1111 0.9444 0.0000
1.1667 0.9167 0.0000
1.1667 0.9722 0.0000
1.3333 0.0556 0.0000
1.3889 0.0278 0.0000
1.3889 0.0833 0.0000
1.3333 0.1667 0.0000
1.3889 0.1389 0.0000
1.3889 0.1944 0.0000
1.3333 0.2778 0.0000
1.3889 0.2500 0.0000
1.3889 0.3056 0.0000
1.3333 0.3889 0.0000
1.3889 0.3611 0.0000
1.3889 0.4167 0.0000
1.3333 0.5000 0.0000
1.3889 0.4722 0.0000
1.3889 0.5278 0.0000
1.3333 0.6111 0.0000
1.3889 0.5833 0.0000
1.3889 0.6389 0.0000
1.3333 0.7222 0.0000
1.3889 0.6944 0.0000
1.3889 0.7500 0.0000
1.3333 0.8333 0.0000
1.3889 0.8056 0.0000
1.3889 0.8611 0.0000
1.3333 0.9444 0.0000
1.3889 0.9167 0.0000
1.3889 0.9722 0.0000
1.5556 0.0556 0.0000
1.6111 0.0278 0.0000
1.6111 0.0833 0.0000
1.5556 0.1667 0.0000
1.6111 0.1389 0.0000
1.6111 0.1944 0.0000
1.5556 0.2778 0.0000
1.6111 0.2500 0.0000
1.6111 0.3056 0.0000
1.5556 0.3889 0.0000
1.6111 0.3611 0.0000
1.6111 0.4167 0.0000
1.5556 0.5000 0.0000
1.6111 0.4722 0.0000
1.6111 0.5278 0.0000
1.5556 0.6111 0.0000
1.6111 0.5833 0.0000
1.6111 0.6389 0.0000
1.5556 0.7222 0.0000
1.6111 0.6944 0.0000
1.6111 0.7500 0.0000
1.5556 0.8333 0.0000
1.6111 0.8056 0.0000
1.6111 0.8611 0.0000
1.5556 0.9444 0.0000
1.6111 0.9167 0.0000
1.6111 0.9722 0.0000
1.7778 0.0556 0.0000
1.8333 0.0278 0.0000
1.8333 0.0833 0.0000
1.7778 0.1667 0.0000
1.8333 0.1389 0.0000
1.8333 0.1944 0.0000
1.7778 0.2778 0.0000
1.8333 0.2500 0.0000
1.8333 0.3056 0.0000
1.7778 0.3889 0.0000
1.8333 0.3611 0.0000
1.8333 0.4167 0.0000
1.7778 0.5000 0.0000
1.8333 0.4722 0.0000
1.8333 0.5278 0.0000
1.7778 0.6111 0.0000
1.8333 0.5833 0.0000
1.8333 0.6389 0.0000
1.7778 0.7222 0.0000
1.8333 0.6944 0.0000
1.8333 0.7500 0.0000
1.7778 0.8333 0.0000
1.8333 0.8056 0.0000
1.8333 0.8611 0.0000
1.7778 0.9444 0.0000
1.8333 0.9167 0.0000
1.8333 0.9722 0.0000
0.1111 0.1111 0.0000
0.1667 0.0833 0.0000
0.1111 0.2222 0.0000
0.1667 0.1944 0.0000
0.1111 0.3333 0.0000
0.1667 0.3056 0.0000
0.1111 0.4444 0.0000
0.1667 0.4167 0.0000
0.1111 0.5556 0.0000
0.1667 0.5278 0.0000
0.1111 0.6667 0.0000
0.1667 0.6389 0.0000
0.1111 0.7778 0.0000
0.1667 0.7500 0.0000
0.1111 0.8889 0.0000
0.1667 0.8611 0.0000
0.1111 1.0000 0.0000
0.1667 0.9722 0.0000
0.3333 0.1111 0.0000
0.3889 0.0833 0.0000
0.3333 0.2222 0.0000
0.3889 0.1944 0.0000
0.3333 0.3333 0.0000
0.3889 0.3056 0.0000
0.3333 0.4444 0.0000
0.3889 0.4167 0.0000
0.3333 0.5556 0.0000
0.3889 0.5278 0.0000
0.3333 0.6667 0.0000
0.3889 0.6389 0.0000
0.3333 0.7778 0.0000
0.3889 0.7500 0.0000
0.3333 0.8889 0.0000
0.3889 0.8611 0.0000
0.3333 1.0000 0.0000
0.3889 0.9722 0.0000
0.5556 0.1111 0.0000
[...]
         <PointData>
            <DataArray Name="fValues" NumberOfComponents="3" format="ascii" type="Float64">
-8.02363e-22 -1.64120e-22        00000 
-7.24138e-22 -1.57421e-22        00000 
 4.21751e-23 -4.65279e-22        00000 
 5.64393e-22  1.25421e-22        00000 
 7.54975e-23 -2.49671e-22        00000 
-2.50841e-22 -2.50841e-22        00000 
 1.92798e-22 -8.01686e-23        00000 
 3.81795e-22        00000        00000 
       00000        00000        00000 
 1.09413e-22 -8.75306e-22        00000 
 2.21256e-07  6.59649e-06        00000 
 6.37742e-09  1.20375e-06        00000 
 5.28380e-07  2.53028e-06        00000 
-7.01471e-06 -4.26143e-06        00000 
-3.46699e-06 -8.47123e-07        00000 
-3.25065e-06  1.62228e-06        00000 
-1.85424e-06  5.77501e-07        00000 
-4.94596e-06  4.87884e-06        00000 
-2.23183e-06  6.93834e-07        00000 
-3.36475e-06 -1.91914e-05        00000 
 5.39789e-07  8.45609e-06        00000 
-2.21581e-06  4.26708e-06        00000 
 1.54937e-06 -3.80203e-06        00000 
 1.07172e-06 -5.28321e-06        00000 
-9.85541e-06 -6.10104e-06        00000 
 7.30751e-06  3.49961e-06        00000 
 1.72607e-06 -5.66336e-07        00000 
-2.56615e-06 -6.68909e-06        00000 
-7.99179e-08 -2.21085e-06        00000 
 9.37605e-08 -3.69098e-06        00000 
 1.23486e-06  1.22601e-05        00000 
 9.75764e-07  3.75040e-06        00000 
 2.19700e-06  1.32055e-06        00000 
-4.09954e-06 -1.50425e-06        00000 
-3.58162e-06 -4.38521e-07        00000 
 3.62993e-06  4.82130e-06        00000 
-1.94352e-06  5.05946e-07        00000 
-6.59279e-06 -3.92443e-06        00000 
-4.16636e-06 -2.58489e-06        00000 
-2.58619e-06 -4.10299e-07        00000 
 9.82333e-07  9.57262e-06        00000 
-5.21047e-07  4.91253e-06        00000 
 1.19383e-06 -9.56951e-07        00000 
-1.57097e-06 -2.05146e-06        00000 
-7.93068e-06 -3.92043e-06        00000 
 1.55303e-06  4.45386e-06        00000 
 1.02535e-06  5.16094e-06        00000 
-1.00639e-06  6.79325e-07        00000 
 1.86817e-06  5.55717e-06        00000 
-2.41249e-06 -1.39693e-05        00000 
 7.34857e-06  2.56252e-06        00000 
 2.54839e-06  7.73878e-07        00000 
 1.97781e-06  2.85356e-06        00000 
-1.47812e-06  6.52340e-06        00000 
-1.53305e-06  2.98757e-08        00000 
 9.92172e-07  1.52680e-06        00000 
 1.86546e-06 -3.38366e-06        00000 
-8.38912e-07  1.48151e-06        00000 
-3.05276e-06 -4.78948e-07        00000 
-1.76156e-06 -4.53247e-06        00000 
-1.88507e-07 -4.61420e-06        00000 
 1.65763e-06 -3.43063e-06        00000 
 5.42946e-06 -1.96468e-06        00000 
-1.48280e-06  4.12057e-06        00000 
 1.32915e-06  3.64499e-06        00000 
-2.38294e-06  9.42638e-07        00000 
-6.46566e-06 -2.87751e-06        00000 
-4.67046e-06 -7.03540e-06        00000 
 1.76715e-06 -2.24677e-07        00000 
 5.30138e-06 -3.43665e-06        00000 
 1.77685e-07 -6.11702e-06        00000 
 2.20243e-06 -4.28866e-06        00000 
 3.12871e-06  1.30616e-06        00000 
 2.90395e-06  2.22561e-06        00000 
 6.29015e-07  1.20419e-06        00000 
-3.78893e-07 -2.32709e-06        00000 
-3.03958e-06 -5.59181e-07        00000 
 5.56602e-06 -1.15325e-06        00000 
 4.56009e-06 -2.51815e-06        00000 
 2.01648e-06 -7.18551e-06        00000 
-4.05824e-06  7.17327e-06        00000 
-7.07229e-06  9.01744e-06        00000 
-5.02781e-06  8.35455e-07        00000 
-5.27868e-06 -1.49989e-06        00000 
-6.16005e-06 -6.02742e-06        00000 
-2.55982e-06 -3.62329e-06        00000 
-8.85686e-08  1.55603e-06        00000 
-2.20550e-06  4.38178e-06        00000 
 6.43096e-07  3.50397e-06        00000 
-4.75650e-06  9.09659e-06        00000 
-2.62338e-06  1.94499e-06        00000 
 3.03174e-06  1.54656e-06        00000 
 2.33197e-06 -1.89771e-06        00000 
-5.83608e-07  1.18647e-06        00000 
-2.90094e-06  3.21952e-06        00000 
 3.19383e-06  9.68670e-07        00000 
-4.59833e-06  3.73980e-06        00000 
 4.86279e-06  1.21958e-07        00000 
-5.96809e-07  1.32701e-06        00000 
-1.39844e-06 -1.14907e-06        00000 
 3.82262e-06  2.76717e-06        00000 
-8.04159e-07  6.66855e-06        00000 
-1.31793e-06  6.09477e-06        00000 
 2.16918e-06  3.71082e-06        00000 
 6.24540e-06 -1.15638e-06        00000 
 3.97175e-06  3.28516e-06        00000 
 9.55456e-07 -1.80927e-06        00000 
-2.52762e-06 -3.11044e-06        00000 
-2.01654e-06  1.22246e-07        00000 
-1.49278e-07  2.12900e-06        00000 
-6.69536e-06  3.49583e-06        00000 
-9.26923e-07  4.90565e-06        00000 
-3.97425e-06  5.07018e-06        00000 
-6.32258e-07  4.69320e-06        00000 
 3.32893e-07 -2.54229e-07        00000 
-6.53937e-07  1.71033e-07        00000 
 1.01481e-06  1.49506e-06        00000 
-5.47503e-06  5.13357e-06        00000 
 3.98257e-06  3.24866e-08        00000 
 1.46666e-06  5.04935e-06        00000 
 3.00347e-06  5.43724e-06        00000 
 3.00249e-06  6.67763e-06        00000 
 1.62059e-06  1.71294e-06        00000 
 3.64305e-06  3.63053e-06        00000 
 1.18180e-06  5.68155e-06        00000 
-4.79410e-06  1.95426e-06        00000 
-3.11583e-07 -1.64515e-06        00000 
 2.16748e-06 -4.39566e-06        00000 
-5.09910e-06 -6.17546e-07        00000 
-2.42572e-06 -3.48415e-07        00000 
-9.65208e-06 -5.62785e-06        00000 
 1.60127e-06 -8.53127e-07        00000 
-1.21437e-06  1.85488e-06        00000 
 7.18232e-07  2.32204e-06        00000 
-7.30110e-06 -5.75336e-06        00000 
-6.12307e-06 -5.52926e-06        00000 
-2.30415e-07 -2.49043e-06        00000 
-1.61270e-06 -5.60697e-06        00000 
 2.52071e-06 -4.56014e-06        00000 
-4.27881e-06 -1.25686e-06        00000 
-1.62324e-06 -5.47309e-06        00000 
 1.21060e-06 -4.73656e-06        00000 
 1.01071e-07 -8.73222e-07        00000 
-3.57894e-06 -5.14469e-06        00000 
 2.60321e-07  2.96267e-06        00000 
 1.40541e-06  1.62721e-06        00000 
 6.64646e-06  2.29096e-06        00000 
 7.18470e-06 -9.75628e-07        00000 
 5.95989e-06  2.31259e-06        00000 
 3.72059e-06  3.52699e-06        00000 
-4.80970e-07  2.02740e-06        00000 
 6.49075e-06  4.26655e-06        00000 
-1.43521e-06 -3.52841e-06        00000 
-8.28494e-07 -1.18773e-06        00000 
 1.04635e-06  7.53164e-08        00000 
-3.95299e-06  4.18273e-06        00000 
-2.41315e-06  3.54151e-06        00000 
 3.61914e-06  6.77052e-06        00000 
 1.83339e-06  9.38492e-06        00000 
 1.26554e-06  7.42901e-06        00000 
-1.53017e-06  3.10432e-06        00000 
-4.51512e-06  3.71485e-06        00000 
-1.96741e-06 -3.29106e-07        00000 
-4.46378e-06 -4.01312e-06        00000 
 1.44920e-06  1.75700e-06        00000 
 8.14132e-07 -9.63387e-07        00000 
-2.82743e-06  7.21582e-07        00000 
-3.38430e-06  4.83924e-08        00000 
-8.64420e-07 -3.80478e-06        00000 
-6.47040e-06  9.90525e-07        00000 
-4.22360e-06  3.94959e-06        00000 
-2.81662e-06  4.61148e-06        00000 
 3.98228e-06  9.23349e-06        00000 
 3.82584e-06  3.89917e-06        00000 
-2.34295e-06  3.28101e-06        00000 
-1.03163e-06  3.75430e-07        00000 
 4.19502e-07 -3.11597e-06        00000 
-2.09409e-06 -2.36964e-06        00000 
-3.51795e-06 -1.97835e-07        00000 
 6.73898e-07 -3.68882e-06        00000 
-4.40358e-06 -7.47603e-06        00000 
 3.18277e-22  1.84135e-22        00000 
-4.81629e-06 -6.71124e-06        00000 
-5.05205e-06 -2.04681e-07        00000 
-6.65862e-23 -1.53237e-22        00000 
 1.55001e-06 -2.16792e-08        00000 
 4.07629e-07  2.04041e-06        00000 
 8.33798e-22  4.24344e-22        00000 
-1.76848e-06  1.05399e-07        00000 
 2.76572e-06  1.76216e-06        00000 
-6.08153e-22  2.79840e-22        00000 
 1.38261e-06 -3.38000e-06        00000 
-3.69884e-06  2.97046e-06        00000 
-2.38228e-22 -5.95570e-22        00000 
-8.71458e-07 -2.54792e-06        00000 
-2.19481e-06 -3.15055e-06        00000 
-3.89475e-22  1.32475e-22        00000 
-1.73887e-06 -2.53999e-06        00000 
-4.15826e-06 -6.91892e-07        00000 
-2.97785e-23 -1.19114e-22        00000 
-1.02870e-07  1.71066e-06        00000 
 2.47136e-06  1.62810e-07        00000 
-9.52912e-22 -1.19114e-22        00000 
 1.95587e-06  1.31524e-06        00000 
-1.92984e-06 -1.64199e-06        00000 
 5.59847e-22        00000        00000 
-2.26234e-06 -1.76153e-06        00000 
-7.90470e-07 -7.56815e-07        00000 
-3.84164e-08 -2.32441e-06        00000 
-4.74606e-06 -7.54402e-06        00000 
-1.82488e-06  8.96402e-07        00000 
-6.36061e-06 -5.92069e-06        00000 
-3.21441e-06  1.49287e-06        00000 
-1.13299e-06  1.24026e-06        00000 
 7.04789e-07  3.19728e-06        00000 
-3.69566e-07  2.78048e-06        00000 
 1.10218e-06  3.12910e-06        00000 
-2.03746e-06  7.97249e-06        00000 
 2.23947e-06  2.58037e-06        00000 
-1.78235e-06  2.14425e-06        00000 
-3.57771e-06  2.67639e-06        00000 
 1.76372e-06  1.07751e-06        00000 
-3.49003e-06  2.51196e-06        00000 
-5.71239e-06 -5.30129e-07        00000 
-3.33610e-07  2.88945e-06        00000 
-2.40290e-07 -2.12515e-06        00000 
-2.46592e-06  7.23666e-07        00000 
-1.46021e-06  2.62649e-06        00000 
-3.00765e-06 -2.94367e-06        00000 
-3.98387e-06 -2.71085e-06        00000 
-1.52646e-06  4.87432e-06        00000 
 2.20965e-06  1.65496e-06        00000 
-6.00725e-06  6.20643e-06        00000 
 2.01269e-06 -5.04853e-06        00000 
-1.49462e-06  1.78893e-05        00000 
-3.00394e-06 -1.70951e-06        00000 
-4.41454e-06 -3.33470e-06        00000 
-3.02001e-06  2.47770e-06        00000 
-1.04853e-05 -4.36592e-06        00000 
 3.94334e-07  2.81795e-06        00000 
 5.60318e-06  3.07781e-06        00000 
-2.83809e-06  2.38210e-07        00000 
-1.13874e-06  2.27218e-06        00000 
-2.97568e-06 -6.62418e-06        00000 
-6.86967e-06  1.65395e-06        00000 
-6.86112e-07  6.07709e-07        00000 
-4.07685e-06 -3.12288e-06        00000 
-2.63009e-06 -3.29877e-06        00000 
 4.62320e-06  4.03162e-06        00000 
 4.33777e-06 -1.14306e-06        00000 
-9.15072e-07 -3.31741e-06        00000 
 3.50247e-06 -1.48370e-06        00000 
-2.37875e-06  4.40427e-07        00000 
-6.31672e-08 -4.58317e-06        00000 
-4.84093e-06 -1.52910e-06        00000 
-4.37313e-06  2.16743e-06        00000 
-2.29513e-06 -5.26539e-07        00000 
 2.30827e-06  5.24345e-06        00000 
 1.95784e-07 -3.88774e-07        00000 
 7.82473e-07  1.27000e-06        00000 
-1.71548e-06  1.36962e-06        00000 
-4.03081e-06 -2.37263e-06        00000 
-3.48940e-06 -5.33181e-06        00000 
 2.16449e-06 -1.44821e-05        00000 
-4.77990e-06  3.31681e-06        00000 
-1.76389e-06 -3.00176e-06        00000 
 1.71656e-06  1.87808e-06        00000 
 2.38026e-06  3.41009e-06        00000 
 4.05205e-06  2.77961e-06        00000 
-1.50828e-06  7.58940e-08        00000 
-1.09792e-06 -3.57986e-06        00000 
-7.09979e-06 -5.31001e-07        00000 
 8.83351e-07 -2.62023e-06        00000 
-7.08745e-07 -4.39859e-06        00000 
 2.76094e-06 -5.21958e-06        00000 
-7.26177e-07  4.85555e-06        00000 
 5.78089e-08  5.03506e-06        00000 
 1.94862e-06 -2.97933e-06        00000 
-6.57842e-07 -2.35945e-06        00000 
-1.75041e-06  2.60275e-06        00000 
-3.04665e-06  1.10531e-06        00000 
-5.52806e-06  5.18688e-06        00000 
-8.23454e-06  1.74501e-06        00000 
-4.42100e-06 -2.20996e-06        00000 
-7.95461e-08  5.06545e-06        00000 
 1.97202e-06 -2.92031e-07        00000 
-4.27305e-06  3.56826e-06        00000 
-1.89272e-06  4.40819e-06        00000 
-1.90423e-06 -3.09812e-06        00000 
 4.34495e-06 -4.62343e-06        00000 
-1.04527e-06 -3.75204e-06        00000 
-1.74014e-06 -6.67068e-07        00000 
-1.69010e-06 -5.97799e-06        00000 
-1.36696e-06  1.79699e-06        00000 
 4.47075e-07  3.68507e-06        00000 
 3.93994e-06  1.14132e-07        00000 
-4.83666e-06 -3.81543e-06        00000 
-5.80112e-06 -2.50779e-06        00000 
-3.68901e-06 -1.23723e-06        00000 
-4.22020e-06  1.18411e-06        00000 
-2.10995e-06  1.53863e-07        00000 
-4.12921e-06 -2.47069e-06        00000 
-4.30099e-06  3.56160e-06        00000 
-5.38511e-06  4.93963e-06        00000 
-1.17010e-06 -3.04366e-06        00000 
-5.02849e-06 -3.17534e-06        00000 
-2.21680e-06  7.02365e-06        00000 
-1.51405e-06  1.01935e-06        00000 
-1.26819e-06 -2.09701e-06        00000 
-7.89607e-07  2.15611e-06        00000 
-7.66954e-07 -3.68561e-06        00000 
 3.56781e-06  3.71601e-06        00000 
 3.55450e-06  4.45591e-06        00000 
-2.78719e-06  3.59835e-06        00000 
-3.01872e-06 -7.91899e-06        00000 
-6.67108e-06  1.54142e-05        00000 
 1.59405e-06 -1.29632e-06        00000 
 1.89168e-06 -7.70806e-07        00000 
-5.77369e-07 -2.26951e-06        00000 
-3.34872e-06 -1.69084e-06        00000 
 8.60843e-06  2.11349e-06        00000 
 6.20609e-06  4.41491e-06        00000 
-2.47754e-06 -2.66201e-06        00000 
-2.98178e-06 -3.40808e-06        00000 
-4.74357e-06  8.01177e-06        00000 
 2.44238e-06  1.10373e-06        00000 
-2.51542e-07  4.78404e-06        00000 
-1.28990e-07  2.68789e-06        00000 
-7.28514e-07 -3.69345e-06        00000 
 1.60910e-06  6.05384e-06        00000 
 7.23670e-07  4.87691e-06        00000 
 9.60246e-07 -3.03780e-06        00000 
-5.97523e-07 -3.87524e-06        00000 
-1.45989e-06  1.27359e-07        00000 
 1.09570e-06 -3.19331e-06        00000 
-2.93513e-07 -7.02309e-06        00000 
 5.69041e-06  1.22446e-06        00000 
-7.46404e-06 -8.21280e-07        00000 
 6.68089e-06 -3.17263e-06        00000 
 3.47534e-06  4.80581e-06        00000 
 2.51141e-06  6.52881e-06        00000 
 3.76208e-06  6.04776e-08        00000 
 7.93583e-06  2.56557e-06        00000 
 4.94530e-06  1.86964e-07        00000 
 7.89377e-06  8.67221e-06        00000 
 4.99510e-06  6.43490e-07        00000 
 3.61251e-06  1.49945e-06        00000 
 2.56315e-06  2.00300e-06        00000 
 1.63491e-06  1.81654e-06        00000 
 2.42684e-06 -6.18791e-07        00000 
 1.63512e-06  4.59311e-06        00000 
 3.32562e-06  1.43053e-06        00000 
 2.11282e-06 -3.62273e-06        00000 
 2.50274e-06  5.81014e-07        00000 
 2.04595e-06  1.86232e-06        00000 
 1.17195e-06 -4.26502e-06        00000 
 2.04430e-06  2.56669e-07        00000 
 1.44046e-06  4.73243e-07        00000 
-7.36494e-07  3.37669e-06        00000 
-1.37652e-06 -2.90960e-06        00000 
-4.10154e-06 -4.18836e-06        00000 
-3.85313e-06  2.52288e-06        00000 
 8.60205e-07 -3.47977e-06        00000 
 2.76001e-06 -1.92024e-06        00000 
 3.27866e-06  6.54830e-06        00000 
 5.25668e-06  2.02708e-06        00000 
 1.45790e-06  6.38455e-07        00000 
 4.71180e-06  2.13337e-06        00000 
-1.64795e-06 -4.86282e-06        00000 
 4.33730e-06  1.10587e-05        00000 
 3.16174e-06  5.50231e-06        00000 
 4.44303e-06  8.59469e-07        00000 
 2.28930e-06 -3.36670e-07        00000 
 2.88770e-06  4.71236e-06        00000 
 1.70513e-06 -9.69465e-07        00000 
 3.82669e-06  1.24351e-06        00000 
 1.34778e-06 -1.17346e-06        00000 
 3.16238e-06 -3.68086e-07        00000 
 8.25222e-07  3.43970e-06        00000 
-9.50168e-07 -2.35174e-06        00000 
-2.22409e-06 -7.15495e-07        00000 
 6.22510e-07 -1.06184e-06        00000 
-5.64187e-06  4.24973e-06        00000 
 4.90934e-06  5.47528e-06        00000 
 7.06089e-06  2.86046e-06        00000 
 1.02267e-06  2.79308e-06        00000 
 5.67158e-06 -1.44342e-06        00000 
 4.88924e-06 -8.67509e-07        00000 
-1.70990e-06 -7.74641e-07        00000 
 8.38050e-06  2.88729e-06        00000 
 1.91293e-07 -2.86456e-06        00000 
 5.20450e-06  1.72262e-06        00000 
 3.64794e-06 -1.91935e-06        00000 
 4.77339e-06  2.22266e-06        00000 
-4.31550e-07  4.86953e-06        00000 
 5.48377e-06 -6.54001e-06        00000 
 4.66036e-07  1.12272e-05        00000 
-1.69046e-06 -2.51277e-06        00000 
-3.46360e-06  6.87185e-06        00000 
 1.79415e-06  9.01720e-07        00000 
-3.44452e-06 -2.99285e-06        00000 
-2.11098e-06  3.47688e-06        00000 
 1.00255e-06  6.84028e-07        00000 
-1.02094e-06 -3.35105e-06        00000 
-5.19311e-07 -7.75281e-07        00000 
 2.84177e-06 -8.45230e-07        00000 
-3.30704e-06  3.38607e-06        00000 
 1.45969e-06 -1.81768e-06        00000 
-4.16272e-06 -3.08810e-07        00000 
-5.88141e-06  2.88405e-06        00000 
 3.54687e-06 -7.33897e-07        00000 
 2.23118e-06 -3.54887e-06        00000 
-1.14894e-06  3.15252e-06        00000 
 2.59083e-06 -1.33840e-06        00000 
-5.42366e-07 -1.81585e-07        00000 
-2.64049e-06 -2.05751e-08        00000 
-2.17561e-06  2.85380e-06        00000 
 6.65156e-07  1.75144e-07        00000 
 5.68548e-10 -3.51229e-06        00000 
-8.76731e-07  5.14980e-06        00000 
-1.73370e-06 -1.18983e-06        00000 
 3.33365e-07 -2.64899e-06        00000 
-3.44857e-06  7.41245e-06        00000 
-6.52262e-06 -1.35384e-05        00000 
-5.79819e-06 -7.22717e-07        00000 
-1.40592e-06 -2.28316e-06        00000 
-5.20602e-06 -6.62753e-06        00000 
-6.83358e-06 -5.37306e-06        00000 
-2.21174e-06 -3.91811e-06        00000 
 1.23611e-07 -1.70631e-06        00000 
 3.20171e-06 -5.70210e-06        00000 
-1.26438e-06 -1.26147e-06        00000 
 1.11403e-06 -3.11679e-06        00000 
 1.48779e-06  7.35745e-07        00000 
-3.07378e-07  4.01167e-06        00000 
 6.56592e-07 -3.21730e-06        00000 
 1.82973e-06 -1.87157e-06        00000 
-1.21460e-06 -2.40562e-06        00000 
-2.33697e-06 -1.41858e-06        00000 
-1.55152e-06  1.74332e-07        00000 
 1.24667e-06 -6.18077e-06        00000 
-4.65046e-06  1.20352e-05        00000 
-3.40178e-06 -2.26328e-06        00000 
-1.64754e-06  3.47523e-06        00000 
-3.86384e-06 -2.02618e-06        00000 
 2.54995e-06 -2.18203e-06        00000 
-7.26387e-07 -1.39673e-06        00000 
 1.68743e-06 -3.71505e-06        00000 
-2.08464e-06 -2.41357e-06        00000 
 2.06446e-06 -4.23145e-06        00000 
 4.15696e-06  1.65994e-06        00000 
-5.65423e-07  8.91136e-07        00000 
-3.76215e-06 -1.62675e-07        00000 
-1.39909e-06 -6.26858e-06        00000 
 6.61911e-07 -6.68728e-06        00000 
-3.72541e-06 -5.14461e-06        00000 
-1.23627e-06 -1.57801e-06        00000 
-1.32254e-06  2.28802e-07        00000 
-2.22343e-06 -1.16952e-05        00000 
-3.63053e-06  6.80552e-06        00000 
-1.90291e-06  2.96907e-06        00000 
-2.97386e-06 -6.26484e-06        00000 
 3.62007e-07  3.37546e-08        00000 
-1.22051e-07 -5.19234e-06        00000 
 1.30398e-06  3.01700e-06        00000 
 1.43402e-06 -2.11255e-06        00000 
-1.39645e-06  2.46771e-06        00000 
-2.45104e-06 -6.24759e-06        00000 
-2.33537e-07 -3.07869e-06        00000 
-4.76977e-06 -3.88133e-06        00000 
-1.03166e-06 -1.96427e-07        00000 
 7.02003e-07  6.09303e-07        00000 
-3.57269e-06 -1.74996e-07        00000 
-5.58848e-06 -5.83674e-06        00000 
-1.53120e-06  1.69978e-06        00000 
 2.13588e-06 -1.69993e-06        00000 
-2.60990e-06  5.95221e-06        00000 
 3.19257e-06 -4.89349e-06        00000 
-5.22829e-07  1.16353e-06        00000 
-2.61769e-06  2.38660e-06        00000 
-5.68009e-06 -1.96099e-06        00000 
-3.71878e-06  1.58584e-06        00000 
-3.74725e-06  8.44780e-06        00000 
 1.26809e-06  2.78378e-06        00000 
-1.95846e-06  4.43056e-06        00000 
 1.59836e-07 -1.82808e-07        00000 
 8.45802e-08  6.95440e-06        00000 
-4.57268e-06  5.00730e-06        00000 
 1.02168e-06  9.21615e-06        00000 
 4.64224e-06  4.01470e-06        00000 
-6.35463e-07  4.31892e-06        00000 
-2.11772e-06  1.90752e-06        00000 
 1.47663e-06  4.56638e-06        00000 
 3.60758e-06  7.38067e-06        00000 
-1.43016e-06 -4.12269e-06        00000 
 9.85488e-06  1.19228e-05        00000 
 3.58505e-06  3.45875e-06        00000 