<?xml version="1.0" encoding="utf-8"?>
<VTKFile byte_order="LittleEndian" type="UnstructuredGrid" version="0.1">
   <UnstructuredGrid>
      <Piece NumberOfCells="1296" NumberOfPoints="685">
         <Points>
            <DataArray Name="Points" NumberOfComponents="3" format="ascii" type="Float32">
0.0000 0.0000 0.0000
0.0000 0.1111 0.0000
0.0000 0.2222 0.0000
0.0000 0.3333 0.0000
0.0000 0.4444 0.0000
0.0000 0.5556 0.0000
0.0000 0.6667 0.0000
0.0000 0.7778 0.0000
0.0000 0.8889 0.0000
0.0000 1.0000 0.0000
0.2222 0.0000 0.0000
0.2222 0.1111 0.0000
0.2222 0.2222 0.0000
0.2222 0.3333 0.0000
0.2222 0.4444 0.0000
0.2222 0.5556 0.0000
0.2222 0.6667 0.0000
0.2222 0.7778 0.0000
0.2222 0.8889 0.0000
0.2222 1.0000 0.0000
0.4444 0.0000 0.0000
0.4444 0.1111 0.0000
0.4444 0.2222 0.0000
0.4444 0.3333 0.0000
0.4444 0.4444 0.0000
0.4444 0.5556 0.0000
0.4444 0.6667 0.0000
0.4444 0.7778 0.0000
0.4444 0.8889 0.0000
0.4444 1.0000 0.0000
0.6667 0.0000 0.0000
0.6667 0.1111 0.0000
0.6667 0.2222 0.0000
0.6667 0.3333 0.0000
0.6667 0.4444 0.0000
0.6667 0.5556 0.0000
0.6667 0.6667 0.0000
0.6667 0.7778 0.0000
0.6667 0.8889 0.0000
0.6667 1.0000 0.0000
0.8889 0.0000 0.0000
0.8889 0.1111 0.0000
0.8889 0.2222 0.0000
0.8889 0.3333 0.0000
0.8889 0.4444 0.0000
0.8889 0.5556 0.0000
0.8889 0.6667 0.0000
0.8889 0.7778 0.0000
0.8889 0.8889 0.0000
0.8889 1.0000 0.0000
1.1111 0.0000 0.0000
1.1111 0.1111 0.0000
1.1111 0.2222 0.0000
1.1111 0.3333 0.0000
1.1111 0.4444 0.0000
1.1111 0.5556 0.0000
1.1111 0.6667 0.0000
1.1111 0.7778 0.0000
1.1111 0.8889 0.0000
1.1111 1.0000 0.0000
1.3333 0.0000 0.0000
1.3333 0.1111 0.0000
1.3333 0.2222 0.0000
1.3333 0.3333 0.0000
1.3333 0.4444 0.0000
1.3333 0.5556 0.0000
1.3333 0.6667 0.0000
1.3333 0.7778 0.0000
1.3333 0.8889 0.0000
1.3333 1.0000 0.0000
1.5556 0.0000 0.0000
1.5556 0.1111 0.0000
1.5556 0.2222 0.0000
1.5556 0.3333 0.0000
1.5556 0.4444 0.0000
1.5556 0.5556 0.0000
1.5556 0.6667 0.0000
1.5556 0.7778 0.0000
1.5556 0.8889 0.0000
1.5556 1.0000 0.0000
1.7778 0.0000 0.0000
1.7778 0.1111 0.0000
1.7778 0.2222 0.0000
1.7778 0.3333 0.0000
1.7778 0.4444 0.0000
1.7778 0.5556 0.0000
1.7778 0.6667 0.0000
1.7778 0.7778 0.0000
1.7778 0.8889 0.0000
1.7778 1.0000 0.0000
2.0000 0.0000 0.0000
2.0000 0.1111 0.0000
2.0000 0.2222 0.0000
2.0000 0.3333 0.0000
2.0000 0.4444 0.0000
2.0000 0.5556 0.0000
2.0000 0.6667 0.0000
2.0000 0.7778 0.0000
2.0000 0.8889 0.0000
2.0000 1.0000 0.0000
0.1111 0.0556 0.0000
0.1111 0.1667 0.0000
0.1111 0.2778 0.0000
0.1111 0.3889 0.0000
0.1111 0.5000 0.0000
0.1111 0.6111 0.0000
0.1111 0.7222 0.0000
0.1111 0.8333 0.0000
0.1111 0.9444 0.0000
0.3333 0.0556 0.0000
0.3333 0.1667 0.0000
0.3333 0.2778 0.0000
0.3333 0.3889 0.0000
0.3333 0.5000 0.0000
0.3333 0.6111 0.0000
0.3333 0.7222 0.0000
0.3333 0.8333 0.0000
0.3333 0.9444 0.0000
0.5556 0.0556 0.0000
0.5556 0.1667 0.0000
0.5556 0.2778 0.0000
0.5556 0.3889 0.0000
0.5556 0.5000 0.0000
0.5556 0.6111 0.0000
0.5556 0.7222 0.0000
0.5556 0.8333 0.0000
0.5556 0.9444 0.0000
0.7778 0.0556 0.0000
0.7778 0.1667 0.0000
0.7778 0.2778 0.0000
0.7778 0.3889 0.0000
0.7778 0.5000 0.0000
0.7778 0.6111 0.0000
0.7778 0.7222 0.0000
0.7778 0.8333 0.0000
0.7778 0.9444 0.0000
1.0000 0.0556 0.0000
1.0000 0.1667 0.0000
1.0000 0.2778 0.0000
1.0000 0.3889 0.0000
1.0000 0.5000 0.0000
1.0000 0.6111 0.0000
1.0000 0.7222 0.0000
1.0000 0.8333 0.0000
1.0000 0.9444 0.0000
1.2222 0.0556 0.0000
1.2222 0.1667 0.0000
1.2222 0.2778 0.0000
1.2222 0.3889 0.0000
1.2222 0.5000 0.0000
1.2222 0.6111 0.0000
1.2222 0.7222 0.0000
1.2222 0.8333 0.0000
1.2222 0.9444 0.0000
1.4444 0.0556 0.0000
1.4444 0.1667 0.0000
1.4444 0.2778 0.0000
1.4444 0.3889 0.0000
1.4444 0.5000 0.0000
1.4444 0.6111 0.0000
1.4444 0.7222 0.0000
1.4444 0.8333 0.0000
1.4444 0.9444 0.0000
1.6667 0.0556 0.0000
1.6667 0.1667 0.0000
1.6667 0.2778 0.0000
1.6667 0.3889 0.0000
1.6667 0.5000 0.0000
1.6667 0.6111 0.0000
1.6667 0.7222 0.0000
1.6667 0.8333 0.0000
1.6667 0.9444 0.0000
1.8889 0.0556 0.0000
1.8889 0.1667 0.0000
1.8889 0.2778 0.0000
1.8889 0.3889 0.0000
1.8889 0.5000 0.0000
1.8889 0.6111 0.0000
1.8889 0.7222 0.0000
1.8889 0.8333 0.0000
1.8889 0.9444 0.0000
0.0000 0.0556 0.0000
0.0556 0.0278 0.0000
0.0556 0.0833 0.0000
0.0000 0.1667 0.0000
0.0556 0.1389 0.0000
0.0556 0.1944 0.0000
0.0000 0.2778 0.0000
0.0556 0.2500 0.0000
0.0556 0.3056 0.0000
0.0000 0.3889 0.0000
0.0556 0.3611 0.0000
0.0556 0.4167 0.0000
0.0000 0.5000 0.0000
0.0556 0.4722 0.0000
0.0556 0.5278 0.0000
0.0000 0.6111 0.0000
0.0556 0.5833 0.0000
0.0556 0.6389 0.0000
0.0000 0.7222 0.0000
0.0556 0.6944 0.0000
0.0556 0.7500 0.0000
0.0000 0.8333 0.0000
0.0556 0.8056 0.0000
0.0556 0.8611 0.0000
0.0000 0.9444 0.0000
0.0556 0.9167 0.0000
0.0556 0.9722 0.0000
0.2222 0.0556 0.0000
0.2778 0.0278 0.0000
0.2778 0.0833 0.0000
0.2222 0.1667 0.0000
0.2778 0.1389 0.0000
0.2778 0.1944 0.0000
0.2222 0.2778 0.0000
0.2778 0.2500 0.0000
0.2778 0.3056 0.0000
0.2222 0.3889 0.0000
0.2778 0.3611 0.0000
0.2778 0.4167 0.0000
0.2222 0.5000 0.0000
0.2778 0.4722 0.0000
0.2778 0.5278 0.0000
0.2222 0.6111 0.0000
0.2778 0.5833 0.0000
0.2778 0.6389 0.0000
0.2222 0.7222 0.0000
0.2778 0.6944 0.0000
0.2778 0.7500 0.0000
0.2222 0.8333 0.0000
0.2778 0.8056 0.0000
0.2778 0.8611 0.0000
0.2222 0.9444 0.0000
0.2778 0.9167 0.0000
0.2778 0.9722 0.0000
0.4444 0.0556 0.0000
0.5000 0.0278 0.0000
0.5000 0.0833 0.0000
0.4444 0.1667 0.0000
0.5000 0.1389 0.0000
0.5000 0.1944 0.0000
0.4444 0.2778 0.0000
0.5000 0.2500 0.0000
0.5000 0.3056 0.0000
0.4444 0.3889 0.0000
0.5000 0.3611 0.0000
0.5000 0.4167 0.0000
0.4444 0.5000 0.0000
0.5000 0.4722 0.0000
0.5000 0.5278 0.0000
0.4444 0.6111 0.0000
0.5000 0.5833 0.0000
0.5000 0.6389 0.0000
0.4444 0.7222 0.0000
0.5000 0.6944 0.0000
0.5000 0.7500 0.0000
0.4444 0.8333 0.0000
0.5000 0.8056 0.0000
0.5000 0.8611 0.0000
0.4444 0.9444 0.0000
0.5000 0.9167 0.0000
0.5000 0.9722 0.0000
0.6667 0.0556 0.0000
0.7222 0.0278 0.0000
0.7222 0.0833 0.0000
0.6667 0.1667 0.0000
0.7222 0.1389 0.0000
0.7222 0.1944 0.0000
0.6667 0.2778 0.0000
0.7222 0.2500 0.0000
0.7222 0.3056 0.0000
0.6667 0.3889 0.0000
0.7222 0.3611 0.0000
0.7222 0.4167 0.0000
0.6667 0.5000 0.0000
0.7222 0.4722 0.0000
0.7222 0.5278 0.0000
0.6667 0.6111 0.0000
0.7222 0.5833 0.0000
0.7222 0.6389 0.0000
0.6667 0.7222 0.0000
0.7222 0.6944 0.0000
0.7222 0.7500 0.0000
0.6667 0.8333 0.0000
0.7222 0.8056 0.0000
0.7222 0.8611 0.0000
0.6667 0.9444 0.0000
0.7222 0.9167 0.0000
0.7222 0.9722 0.0000
0.8889 0.0556 0.0000
0.9444 0.0278 0.0000
0.9444 0.0833 0.0000
0.8889 0.1667 0.0000
0.9444 0.1389 0.0000
0.9444 0.1944 0.0000
0.8889 0.2778 0.0000
0.9444 0.2500 0.0000
0.9444 0.3056 0.0000
0.8889 0.3889 0.0000
0.9444 0.3611 0.0000
0.9444 0.4167 0.0000
0.8889 0.5000 0.0000
0.9444 0.4722 0.0000
0.9444 0.5278 0.0000
0.8889 0.6111 0.0000
0.9444 0.5833 0.0000
0.9444 0.6389 0.0000
0.8889 0.7222 0.0000
0.9444 0.6944 0.0000
0.9444 0.7500 0.0000
0.8889 0.8333 0.0000
0.9444 0.8056 0.0000
0.9444 0.8611 0.0000
0.8889 0.9444 0.0000
0.9444 0.9167 0.0000
0.9444 0.9722 0.0000
1.1111 0.0556 0.0000
1.1667 0.0278 0.0000
1.1667 0.0833 0.0000
1.1111 0.1667 0.0000
1.1667 0.1389 0.0000
1.1667 0.1944 0.0000
1.1111 0.2778 0.0000
1.1667 0.2500 0.0000
1.1667 0.3056 0.0000
1.1111 0.3889 0.0000
1.1667 0.3611 0.0000
1.1667 0.4167 0.0000
1.1111 0.5000 0.0000
1.1667 0.4722 0.0000
1.1667 0.5278 0.0000
1.1111 0.6111 0.0000
1.1667 0.5833 0.0000
1.1667 0.6389 0.0000
1.1111 0.7222 0.0000
1.1667 0.6944 0.0000
1.1667 0.7500 0.0000
1.1111 0.8333 0.0000
1.1667 0.8056 0.0000
1.1667 0.8611 0.0000
1.1111 0.9444 0.0000
1.1667 0.9167 0.0000
1.1667 0.9722 0.0000
1.3333 0.0556 0.0000
1.3889 0.0278 0.0000
1.3889 0.0833 0.0000
1.3333 0.1667 0.0000
1.3889 0.1389 0.0000
1.3889 0.1944 0.0000
1.3333 0.2778 0.0000
1.3889 0.2500 0.0000
1.3889 0.3056 0.0000
1.3333 0.3889 0.0000
1.3889 0.3611 0.0000
1.3889 0.4167 0.0000
1.3333 0.5000 0.0000
1.3889 0.4722 0.0000
1.3889 0.5278 0.0000
1.3333 0.6111 0.0000
1.3889 0.5833 0.0000
1.3889 0.6389 0.0000
1.3333 0.7222 0.0000
1.3889 0.6944 0.0000
1.3889 0.7500 0.0000
1.3333 0.8333 0.0000
1.3889 0.8056 0.0000
1.3889 0.8611 0.0000
1.3333 0.9444 0.0000
1.3889 0.9167 0.0000
1.3889 0.9722 0.0000
1.5556 0.0556 0.0000
1.6111 0.0278 0.0000
1.6111 0.0833 0.0000
1.5556 0.1667 0.0000
1.6111 0.1389 0.0000
1.6111 0.1944 0.0000
1.5556 0.2778 0.0000
1.6111 0.2500 0.0000
1.6111 0.3056 0.0000
1.5556 0.3889 0.0000
1.6111 0.3611 0.0000
1.6111 0.4167 0.0000
1.5556 0.5000 0.0000
1.6111 0.4722 0.0000
1.6111 0.5278 0.0000
1.5556 0.6111 0.0000
1.6111 0.5833 0.0000
1.6111 0.6389 0.0000
1.5556 0.7222 0.0000
1.6111 0.6944 0.0000
1.6111 0.7500 0.0000
1.5556 0.8333 0.0000
1.6111 0.8056 0.0000
1.6111 0.8611 0.0000
1.5556 0.9444 0.0000
1.6111 0.9167 0.0000
1.6111 0.9722 0.0000
1.7778 0.0556 0.0000
1.8333 0.0278 0.0000
1.8333 0.0833 0.0000
1.7778 0.1667 0.0000
1.8333 0.1389 0.0000
1.8333 0.1944 0.0000
1.7778 0.2778 0.0000
1.8333 0.2500 0.0000
1.8333 0.3056 0.0000
1.7778 0.3889 0.0000
1.8333 0.3611 0.0000
1.8333 0.4167 0.0000
1.7778 0.5000 0.0000
1.8333 0.4722 0.0000
1.8333 0.5278 0.0000
1.7778 0.6111 0.0000
1.8333 0.5833 0.0000
1.8333 0.6389 0.0000
1.7778 0.7222 0.0000
1.8333 0.6944 0.0000
1.8333 0.7500 0.0000
1.7778 0.8333 0.0000
1.8333 0.8056 0.0000
1.8333 0.8611 0.0000
1.7778 0.9444 0.0000
1.8333 0.9167 0.0000
1.8333 0.9722 0.0000
0.1111 0.1111 0.0000
0.1667 0.0833 0.0000
0.1111 0.2222 0.0000
0.1667 0.1944 0.0000
0.1111 0.3333 0.0000
0.1667 0.3056 0.0000
0.1111 0.4444 0.0000
0.1667 0.4167 0.0000
0.1111 0.5556 0.0000
0.1667 0.5278 0.0000
0.1111 0.6667 0.0000
0.1667 0.6389 0.0000
0.1111 0.7778 0.0000
0.1667 0.7500 0.0000
0.1111 0.8889 0.0000
0.1667 0.8611 0.0000
0.1111 1.0000 0.0000
0.1667 0.9722 0.0000
0.3333 0.1111 0.0000
0.3889 0.0833 0.0000
0.3333 0.2222 0.0000
0.3889 0.1944 0.0000
0.3333 0.3333 0.0000
0.3889 0.3056 0.0000
0.3333 0.4444 0.0000
0.3889 0.4167 0.0000
0.3333 0.5556 0.0000
0.3889 0.5278 0.0000
0.3333 0.6667 0.0000
0.3889 0.6389 0.0000
0.3333 0.7778 0.0000
0.3889 0.7500 0.0000
0.3333 0.8889 0.0000
0.3889 0.8611 0.0000
0.3333 1.0000 0.0000
0.3889 0.9722 0.0000
0.5556 0.1111 0.0000
[...]
         <PointData>
            <DataArray Name="fValues" NumberOfComponents="3" format="ascii" type="Float64">
-1.19443e-20 -4.66830e-21        00000 
 1.13343e-20  6.73763e-21        00000 
-6.57883e-21  7.82515e-21        00000 
 2.10707e-20 -2.20740e-20        00000 
 3.11308e-20  1.27564e-20        00000 
-3.51178e-21  2.00673e-20        00000 
-4.40681e-22  1.85086e-20        00000 
-5.01229e-22 -9.02212e-21        00000 
 2.01548e-20  6.04643e-21        00000 
       00000  4.66830e-21        00000 
-4.08919e-05  3.31810e-04        00000 
-3.39109e-05  1.94698e-04        00000 
 1.51028e-04 -1.06225e-04        00000 
 2.23631e-06 -3.38516e-05        00000 
-2.09693e-05 -2.48659e-04        00000 
-7.42704e-06  1.24479e-04        00000 
 4.15789e-05  6.09518e-05        00000 
 1.68837e-04  1.22493e-04        00000 
 1.39084e-05 -6.27474e-06        00000 
 6.17068e-05  2.14491e-04        00000 
-1.55165e-05  5.16127e-04        00000 
 1.64437e-04  1.08926e-04        00000 
-2.56762e-05 -9.40940e-05        00000 
-3.21535e-04 -2.24401e-04        00000 
 1.21792e-04 -9.32586e-05        00000 
 8.68866e-05 -1.07696e-04        00000 
 4.58248e-05  1.51723e-04        00000 
 5.09639e-05 -8.56840e-05        00000 
 2.36819e-05  1.18415e-04        00000 
 1.40711e-04  2.34889e-04        00000 
 6.04994e-05  1.98623e-04        00000 
 2.02728e-05  8.00596e-05        00000 
 8.16644e-05  1.28921e-04        00000 
-2.67588e-04 -5.21561e-05        00000 
 1.47173e-04 -5.23928e-05        00000 
 2.07573e-04  9.75339e-05        00000 
-1.45707e-05  2.23290e-04        00000 
-1.17748e-04 -5.63164e-05        00000 
 1.58981e-05 -1.00772e-04        00000 
-9.85385e-05  1.09830e-04        00000 
-2.29861e-04 -1.02165e-04        00000 
 7.19772e-05  2.71509e-04        00000 
-7.33697e-05 -2.54448e-05        00000 
-1.64700e-04 -6.61002e-05        00000 
-5.14120e-05  8.07046e-05        00000 
-2.13967e-04 -9.23964e-05        00000 
-1.28229e-04  1.56603e-04        00000 
-1.32733e-04 -7.32835e-05        00000 
-1.90544e-04 -1.26026e-04        00000 
-2.67037e-04  9.93828e-06        00000 
 1.51775e-04 -4.34771e-04        00000 
-1.36557e-04 -8.21315e-05        00000 
 5.08728e-05  2.58721e-05        00000 
-5.19353e-05 -1.41983e-05        00000 
-6.87761e-05 -3.94394e-05        00000 
-2.10531e-05  4.04026e-05        00000 
-1.52593e-04  9.28130e-05        00000 
-1.21627e-04  7.78487e-05        00000 
-2.07643e-04 -4.35829e-06        00000 
-2.08413e-04  3.86664e-04        00000 
 3.82049e-05 -2.45034e-05        00000 
-1.31845e-04  3.02634e-05        00000 
-6.32942e-05 -1.15357e-04        00000 
 6.47468e-05  1.49267e-04        00000 
 5.54087e-05  1.20762e-04        00000 
-2.66964e-05  2.17354e-05        00000 
-2.17759e-05  3.24130e-05        00000 
-2.25800e-04 -3.70531e-05        00000 
-1.51028e-04  1.33045e-04        00000 
 1.01040e-04  5.81117e-04        00000 
-1.71890e-04 -2.13205e-04        00000 
 5.10253e-06 -3.92425e-06        00000 
-4.38994e-05 -2.07204e-05        00000 
 1.93455e-06 -4.00116e-05        00000 
-6.11006e-05  1.03075e-04        00000 
-7.22644e-05  3.26037e-05        00000 
-7.97416e-05  1.16084e-04        00000 
-2.81116e-05  2.40272e-04        00000 
 2.78134e-05 -5.84037e-06        00000 
-1.60887e-04 -1.54998e-04        00000 
-9.53915e-06 -3.55081e-04        00000 
-5.74340e-05 -4.91799e-05        00000 
-1.78282e-04 -3.32764e-05        00000 
-5.94663e-05 -3.29770e-06        00000 
-1.72655e-04 -7.27530e-05        00000 
-1.04355e-04  3.69209e-05        00000 
-1.89263e-04  7.91356e-05        00000 
-1.21470e-04  1.44224e-04        00000 
-2.18462e-04  2.42610e-04        00000 
-1.17001e-04 -6.03409e-05        00000 
 1.62663e-05  1.15852e-04        00000 
 6.77400e-05  6.35109e-05        00000 
 9.78397e-05  2.96942e-05        00000 
 4.91977e-05  3.93694e-05        00000 
 1.27988e-04 -9.46424e-05        00000 
-2.13418e-05  4.65513e-05        00000 
-4.77961e-05  1.71127e-04        00000 
-5.25948e-05  1.01140e-04        00000 
 9.09260e-05 -3.68589e-05        00000 
-1.86883e-04  2.04204e-05        00000 
 1.77312e-06 -4.87305e-05        00000 
 6.85747e-05 -1.85065e-05        00000 
 1.73521e-04  1.15261e-05        00000 
 2.47228e-05  1.36661e-04        00000 
-9.03238e-06  8.67145e-05        00000 
-2.89018e-05  1.50912e-06        00000 
-4.07892e-05  5.02238e-05        00000 
-7.89807e-05  9.52963e-05        00000 
 1.29544e-04  8.74488e-07        00000 
-1.05854e-04 -1.81658e-04        00000 
 8.74494e-05  6.78195e-05        00000 
 1.15044e-04 -1.54729e-05        00000 
 5.75236e-05 -3.28647e-05        00000 
 3.59599e-05 -4.34083e-05        00000 
-1.57713e-06  8.39550e-05        00000 
 7.42722e-05  1.06611e-04        00000 
-2.53975e-05 -3.34234e-05        00000 
-1.75896e-05 -4.40491e-05        00000 
 1.16802e-04 -5.47748e-05        00000 
-3.01758e-05 -3.19483e-05        00000 
-8.04946e-05 -3.89692e-05        00000 
-1.20867e-05 -7.71550e-05        00000 
-2.49015e-05  6.32156e-05        00000 
 2.43989e-04  3.41966e-05        00000 
 1.36978e-04 -1.70798e-04        00000 
 1.43603e-04 -6.38488e-05        00000 
 1.41708e-04 -1.58929e-04        00000 
-9.16388e-05 -3.61211e-05        00000 
 1.10738e-04  2.31884e-04        00000 
-5.38501e-06  1.41765e-04        00000 
 1.76727e-04  1.83377e-04        00000 
-9.96225e-05  6.62757e-05        00000 
 1.72053e-04  2.07510e-04        00000 
 2.46553e-04  8.01773e-05        00000 
 2.06076e-05 -2.80951e-05        00000 
-2.86675e-05 -4.42983e-05        00000 
-5.34610e-06  1.93445e-04        00000 
 3.14006e-04  2.69703e-04        00000 
 6.55092e-05  1.05988e-04        00000 
 1.01584e-04 -6.08642e-05        00000 
 7.89709e-05  1.64202e-04        00000 
 2.78310e-04  3.00905e-04        00000 
 9.95952e-05  2.31860e-04        00000 
-4.18598e-06  1.17617e-04        00000 
-1.22606e-05  5.44458e-05        00000 
-8.18809e-05  4.75496e-05        00000 
-7.33676e-05 -1.28087e-04        00000 
 5.26058e-05 -2.29759e-05        00000 
 9.87349e-05 -2.75829e-05        00000 
 5.60022e-05  1.21578e-04        00000 
 4.20916e-06  9.94626e-05        00000 
-1.27696e-04  9.08416e-05        00000 
-2.68349e-06 -4.68499e-06        00000 
-1.25758e-04 -2.21768e-04        00000 
 1.06957e-04 -6.63771e-05        00000 
-2.42113e-04 -1.89460e-04        00000 
-4.56871e-05 -1.55978e-05        00000 
 7.49948e-05  1.87130e-05        00000 
-1.01449e-04  6.96395e-05        00000 
-2.70562e-04  5.07387e-05        00000 
-7.16477e-05 -2.15218e-05        00000 
-1.80551e-04  9.61703e-05        00000 
-1.32756e-04 -5.81300e-05        00000 
 4.55328e-06  2.70347e-04        00000 
-9.99762e-06  8.38197e-05        00000 
-4.06014e-05  1.43288e-04        00000 
-1.35347e-04  1.10496e-04        00000 
 2.21549e-05  1.75531e-04        00000 
-1.89455e-04  1.30054e-04        00000 
 2.83930e-05  2.23208e-04        00000 
 9.67163e-05  1.42020e-04        00000 
 1.15789e-06  2.79941e-04        00000 
-4.66379e-05  1.14331e-04        00000 
 2.27253e-05  3.07152e-04        00000 
 5.13687e-05  1.78425e-04        00000 
 3.40625e-05  2.07983e-04        00000 
-5.73496e-05  2.46927e-04        00000 
-1.85276e-04  1.18125e-04        00000 
-4.47484e-06  2.58011e-04        00000 
 3.97208e-05  2.79772e-04        00000 
 7.85480e-05  1.00893e-04        00000 
 2.51190e-20 -8.19201e-21        00000 
 1.84111e-06 -1.25726e-04        00000 
 7.31699e-05  4.34969e-05        00000 
-1.41501e-20  6.31911e-21        00000 
 9.44574e-05 -5.23839e-05        00000 
 5.80487e-07 -1.68226e-06        00000 
 9.52912e-21 -4.76456e-21        00000 
-2.80167e-05  1.61261e-05        00000 
 1.25043e-04 -9.89801e-05        00000 
 6.72293e-21  2.45555e-20        00000 
 9.49426e-06 -2.60439e-05        00000 
 1.23201e-04  1.74785e-04        00000 
 1.52466e-20 -5.24102e-21        00000 
 1.40865e-04 -1.17718e-05        00000 
 6.54741e-06  1.06035e-04        00000 
-2.08906e-20 -1.45197e-20        00000 
 1.53641e-05 -8.71356e-05        00000 
-1.46641e-04 -3.04111e-05        00000 
-3.81165e-21  2.28699e-20        00000 
 4.35726e-05  5.00123e-05        00000 
 1.82357e-05 -6.04958e-05        00000 
 1.90582e-20  5.71747e-21        00000 
-9.31436e-05 -3.76992e-05        00000 
-8.30232e-05  5.11164e-05        00000 
 8.27891e-21 -1.30428e-20        00000 
-6.39718e-05  1.72549e-05        00000 
-4.48892e-05 -1.46329e-04        00000 
-1.78272e-04 -9.98845e-06        00000 
 7.28549e-05 -3.35075e-04        00000 
 5.86464e-06  1.05002e-04        00000 
 1.08792e-05 -1.15575e-04        00000 
 8.15268e-05  1.57560e-04        00000 
-1.38459e-04 -3.35660e-05        00000 
 5.39031e-05 -1.73016e-04        00000 
 7.74837e-05  1.36614e-04        00000 
 2.35692e-04 -5.96746e-05        00000 
 6.05369e-05  1.06347e-04        00000 
 2.68658e-04 -1.47700e-04        00000 
 8.08568e-05 -1.64943e-04        00000 
-5.07631e-05  1.01314e-05        00000 
 6.25890e-05  3.14637e-05        00000 
 1.04322e-04  1.36605e-04        00000 
-2.51484e-05  8.76010e-05        00000 
 1.13693e-04 -6.02510e-05        00000 
 8.05526e-05  1.44650e-05        00000 
 4.41179e-05 -1.57537e-04        00000 
 1.25824e-04  1.47656e-05        00000 
 1.42252e-04  1.32875e-04        00000 
 9.19432e-06  5.07079e-05        00000 
 1.85097e-04  8.87688e-05        00000 
-7.07944e-05 -1.43993e-04        00000 
 7.81074e-05  1.00612e-04        00000 
 3.35726e-05  7.72611e-05        00000 
 6.49213e-05 -1.28556e-04        00000 
 9.42548e-05 -6.52615e-05        00000 
 2.51581e-04 -3.80256e-04        00000 
 1.73675e-04  1.76637e-04        00000 
 1.42505e-05 -1.28295e-04        00000 
-3.62837e-06 -5.57979e-05        00000 
-1.61274e-04 -5.58921e-05        00000 
-1.84319e-04  4.35277e-05        00000 
-4.30628e-06 -9.52486e-06        00000 
 4.09621e-05 -4.23462e-05        00000 
 7.74254e-05  6.26807e-05        00000 
 6.20412e-05 -1.03049e-04        00000 
-4.09243e-05 -8.29200e-05        00000 
 2.03317e-05  7.84187e-05        00000 
-2.71078e-04 -1.54039e-04        00000 
-2.98768e-05 -3.15426e-05        00000 
-9.81378e-06 -3.74674e-05        00000 
-2.41922e-05 -9.75265e-05        00000 
 2.62905e-05  1.22153e-04        00000 
-3.82353e-05 -1.65216e-04        00000 
-1.06646e-04 -2.57294e-04        00000 
-1.51883e-04 -8.69504e-05        00000 
-1.43147e-05 -1.01021e-04        00000 
 2.64621e-05  3.40651e-05        00000 
 7.98965e-05  1.16536e-04        00000 
-7.72397e-05  3.14933e-04        00000 
 1.88181e-04  7.57479e-05        00000 
 1.89099e-04 -2.09365e-04        00000 
-4.66933e-05 -3.05606e-06        00000 
-3.13616e-05  1.90000e-05        00000 
 1.35515e-04 -7.95678e-06        00000 
 1.88188e-05 -3.81584e-05        00000 
 4.75525e-05  9.50042e-05        00000 
 2.29064e-04  1.48276e-04        00000 
-1.58159e-04 -4.44559e-05        00000 
 9.13228e-05  1.27626e-04        00000 
 9.45960e-05  1.15562e-04        00000 
 7.82257e-05  1.34448e-04        00000 
 9.57936e-05  1.93178e-04        00000 
 6.13741e-05  2.86746e-05        00000 
-9.90004e-05  8.25049e-05        00000 
 7.06654e-05  2.55934e-04        00000 
-3.66219e-06  6.13626e-05        00000 
-1.40068e-04  1.05095e-04        00000 
-1.80916e-05 -2.80022e-05        00000 
 3.01442e-05  1.38254e-04        00000 
-1.54534e-04 -3.86727e-05        00000 
 2.02196e-05  1.34237e-04        00000 
-9.07187e-05 -3.62914e-05        00000 
-7.58321e-05 -5.69131e-06        00000 
-1.41847e-05  1.12329e-04        00000 
-1.61249e-05  4.64757e-05        00000 
-1.47402e-04  8.28828e-05        00000 
 2.42232e-04  1.13470e-05        00000 
 2.60363e-04  6.17940e-05        00000 
-3.49804e-04 -2.20223e-04        00000 
 1.57440e-05 -6.38111e-05        00000 
-1.41032e-04  1.35161e-04        00000 
 9.54367e-05  1.04136e-04        00000 
 2.86266e-05  7.74527e-05        00000 
-1.60201e-04  1.22617e-04        00000 
 2.25582e-05  4.24593e-05        00000 
 2.38047e-05  1.61427e-04        00000 
 6.38220e-06 -1.36794e-05        00000 
 2.26913e-05  9.02338e-05        00000 
 1.31150e-04 -4.75488e-06        00000 
-2.31484e-04 -1.26610e-04        00000 
-1.86837e-04  1.81079e-05        00000 
-3.23838e-05  7.83485e-05        00000 
-1.20359e-04 -5.86101e-05        00000 
-6.17505e-05 -2.52795e-05        00000 
 1.01594e-05 -2.55721e-05        00000 
 2.51518e-04  1.39294e-04        00000 
-2.63207e-05 -1.36194e-05        00000 
 9.16434e-05  8.69455e-05        00000 
 1.92624e-04  2.18140e-04        00000 
-8.86132e-05  5.75708e-05        00000 
 3.71684e-05  4.16674e-05        00000 
 8.52465e-05 -8.76551e-05        00000 
 3.90034e-06  1.15506e-04        00000 
 1.44357e-04  3.94571e-05        00000 
 8.27526e-05  1.39455e-04        00000 
-9.67139e-05  1.09832e-04        00000 
 1.33393e-04  4.09644e-04        00000 
-6.60642e-05 -2.15057e-04        00000 
 8.02380e-05 -3.77831e-05        00000 
-1.22548e-05  9.25976e-05        00000 
-3.94868e-06  9.42554e-06        00000 
 9.31998e-05  4.43333e-05        00000 
-2.53440e-05  1.48150e-04        00000 
-3.16955e-06  1.86727e-06        00000 
 1.90458e-05  2.86829e-05        00000 
 3.87330e-05  4.86029e-05        00000 
 2.23445e-05 -1.73093e-04        00000 
-7.31451e-05 -4.12396e-05        00000 
 3.23117e-05  2.16086e-05        00000 
 4.05351e-05 -2.32753e-05        00000 
 6.37323e-05  1.01494e-04        00000 
 6.94415e-05 -1.48113e-05        00000 
 1.00875e-04  8.28844e-05        00000 
-4.35461e-05  9.69511e-05        00000 
-9.32583e-05 -3.29617e-07        00000 
-1.36552e-04 -1.73157e-05        00000 
-6.09429e-05  8.30492e-05        00000 
-1.04250e-04 -2.21799e-05        00000 
 6.08177e-05  3.76552e-05        00000 
-6.90163e-05  1.36903e-04        00000 
-1.24276e-06  1.97767e-04        00000 
 4.68047e-06 -3.85011e-04        00000 
-1.43675e-04  8.38891e-05        00000 
 9.25991e-05  1.75960e-04        00000 
-4.19334e-05  7.73312e-05        00000 
-1.58014e-04  1.78044e-04        00000 
-3.34926e-05 -9.03684e-05        00000 
-1.27794e-05  1.27038e-04        00000 
-2.10882e-04  9.76711e-05        00000 
 1.87416e-05 -1.03089e-04        00000 
-1.85392e-05  1.80340e-04        00000 
-2.04477e-04 -1.97236e-04        00000 
 1.46633e-04  6.28474e-05        00000 
 6.98349e-05  1.43895e-04        00000 
-1.17933e-04  4.87853e-05        00000 
 2.20508e-04  1.18585e-04        00000 
 3.46119e-05 -1.34052e-04        00000 
-1.28299e-04  6.19586e-05        00000 
-7.23921e-06  2.98043e-04        00000 
 1.24169e-04  4.20937e-05        00000 
-1.79480e-04  1.75162e-04        00000 
 7.77414e-05  3.07262e-04        00000 
-1.91864e-04  2.72229e-05        00000 
-3.16639e-04  1.28172e-04        00000 
 2.54932e-05  6.47743e-05        00000 
 5.66526e-05  1.74137e-04        00000 
-1.25543e-04 -3.27961e-05        00000 
 1.63147e-04  1.38169e-04        00000 
 9.14875e-06 -2.62263e-04        00000 
 1.60019e-04  1.46468e-04        00000 
-4.90195e-05  5.18896e-04        00000 
 1.15335e-05 -1.46600e-04        00000 
 1.65303e-04  6.88494e-05        00000 
-1.59610e-05  2.54356e-04        00000 
 1.77836e-05  1.27492e-06        00000 
 1.33708e-04  1.58592e-04        00000 
-1.63563e-04 -6.24705e-05        00000 
 4.91324e-05  1.23910e-04        00000 
 5.16188e-05  4.11303e-05        00000 
 5.80838e-05  1.32354e-05        00000 
-9.28333e-05  1.73964e-04        00000 
-7.26441e-05 -2.28000e-05        00000 
-6.81650e-05 -5.55526e-05        00000 
 3.69743e-05  1.69955e-04        00000 
-8.99244e-05 -9.42097e-05        00000 
-1.39627e-05 -6.36213e-05        00000 
 1.12665e-04 -4.70899e-05        00000 
 1.32207e-04  1.80672e-04        00000 
 1.49014e-04  1.14641e-04        00000 
 2.51492e-04 -2.68908e-06        00000 
-1.11166e-04 -9.81164e-05        00000 
 3.96101e-05 -4.32236e-05        00000 
 3.27719e-06  1.37732e-04        00000 
-1.44296e-04  8.41482e-05        00000 
-4.05035e-05 -1.56676e-05        00000 
 9.65500e-05  2.77064e-04        00000 
-6.81350e-05  1.47955e-06        00000 
 2.17409e-05  3.18889e-04        00000 
 2.54467e-04 -1.31646e-04        00000 
-1.96541e-04  3.60666e-06        00000 
 1.61349e-04  4.72571e-05        00000 
 1.49669e-04 -7.46493e-05        00000 
-1.46757e-04  7.22671e-05        00000 
 8.58223e-05  9.10711e-05        00000 
 6.59049e-05 -1.90336e-05        00000 
-3.91353e-05  5.02774e-05        00000 
-5.94564e-05 -8.80551e-05        00000 
 5.77982e-05  1.34150e-05        00000 
-7.47384e-06  1.39417e-04        00000 
-7.92075e-05  9.54218e-06        00000 
 3.20311e-05  3.09737e-05        00000 
-2.23135e-05  6.27166e-05        00000 
-3.26819e-05 -2.98244e-05        00000 
 7.51599e-05  3.53467e-05        00000 
-2.17903e-05  2.48411e-04        00000 
-7.78276e-05 -4.28943e-05        00000 
 1.64771e-04  1.56541e-04        00000 
-9.75849e-05  2.19788e-04        00000 
-3.43246e-05  7.49820e-06        00000 
 2.98629e-04  1.03358e-04        00000 
-3.45924e-05 -2.82678e-05        00000 
 1.82135e-06  2.40999e-05        00000 
-1.97684e-05  6.38015e-05        00000 
-1.86917e-04 -1.90436e-05        00000 
-6.87642e-05 -9.86744e-05        00000 
 1.12898e-04 -6.93334e-05        00000 
 1.81013e-04 -5.77434e-05        00000 
 5.02105e-05  5.87622e-05        00000 
 3.83357e-05 -5.12366e-05        00000 
 3.75097e-05  3.68876e-05        00000 
 1.11846e-04  2.62277e-05        00000 
 7.28750e-05  1.27704e-04        00000 
 1.54687e-04  8.77537e-05        00000 
 9.65846e-05  1.73666e-04        00000 
 8.79359e-05  7.32767e-05        00000 
 1.26790e-04 -6.75527e-05        00000 
-4.05042e-05 -2.31372e-05        00000 
 4.85465e-05  5.19846e-05        00000 
 1.71395e-04  3.47285e-05        00000 
 1.89025e-04  1.25017e-04        00000 
 4.48600e-05 -3.75977e-05        00000 
 1.05622e-04  1.30751e-04        00000 
 1.62948e-04  1.01691e-04        00000 
 2.63697e-05  1.85664e-04        00000 
 7.16812e-05 -6.61423e-05        00000 
 8.49846e-05  2.94611e-04        00000 
 1.00009e-04  4.83752e-05        00000 
 9.94646e-05  1.84754e-04        00000 
 1.42563e-04  1.14926e-06        00000 
 9.55079e-05  1.97236e-04        00000 
 7.38282e-05  5.24091e-05        00000 
 2.43754e-05  9.19086e-05        00000 
-6.59872e-05 -9.49273e-06        00000 
 1.37036e-04  1.85425e-04        00000 
 4.50443e-06  2.96829e-05        00000 
-1.21266e-06 -8.65448e-05        00000 
 4.74285e-05 -8.22551e-05        00000 
-4.29654e-06  1.06651e-04        00000 
 2.39932e-04 -9.07755e-05        00000 
 3.34986e-05  1.14465e-04        00000 
 1.80874e-05  2.85261e-05        00000 
 8.16539e-05 -2.00597e-05        00000 
-4.24242e-05  1.47950e-04        00000 
-3.09914e-05  2.33302e-04        00000 
 1.01228e-04  1.15338e-04        00000 
-8.54527e-05 -1.05756e-04        00000 
 1.46275e-04 -1.21721e-04        00000 
 1.12093e-04 -4.99859e-05        00000 
 2.29060e-04  1.52298e-04        00000 
 4.62729e-05 -4.28221e-05        00000 
 1.03122e-04  3.90311e-05        00000 
 1.77680e-04 -3.31237e-05        00000 
 8.27401e-06 -5.22153e-05        00000 
 8.47297e-05  6.81229e-07        00000 
 1.28607e-04 -1.36345e-04        00000 
 2.15212e-04  8.94542e-05        00000 
 2.34413e-05  2.95027e-06        00000 
 2.67664e-05  7.86743e-05        00000 
 3.64523e-05 -2.76650e-04        00000 
 1.58368e-04  7.91024e-05        00000 
-1.47844e-04  1.73073e-04        00000 
 9.11968e-05  7.54987e-05        00000 
-7.85108e-05  9.90034e-06        00000 
 8.18946e-05 -2.06219e-04        00000 
-1.62705e-04 -1.81707e-04        00000 
 1.13297e-04 -1.01589e-04        00000 
 1.29714e-05 -4.27839e-05        00000 
 1.00701e-04 -3.00125e-05        00000 
-2.09329e-04 -6.70537e-05        00000 
-1.74962e-05 -2.19544e-04        00000 
-1.11430e-04 -6.24754e-05        00000 
-1.99629e-04 -1.28807e-06        00000 
-1.55672e-05 -1.68236e-04        00000 
 1.15163e-04 -2.16847e-04        00000 
 7.04493e-05  4.36952e-05        00000 
-8.69994e-05  4.39209e-05        00000 