<?xml version="1.0" encoding="utf-8"?>
<VTKFile byte_order="LittleEndian" type="UnstructuredGrid" version="0.1">
   <UnstructuredGrid>
      <Piece NumberOfCells="1296" NumberOfPoints="685">
         <Points>
            <DataArray Name="Points" NumberOfComponents="3" format="ascii" type="Float32">
0.0000 0.0000 0.0000
0.0000 0.1111 0.0000
0.0000 0.2222 0.0000
0.0000 0.3333 0.0000
0.0000 0.4444 0.0000
0.0000 0.5556 0.0000
0.0000 0.6667 0.0000
0.0000 0.7778 0.0000
0.0000 0.8889 0.0000
0.0000 1.0000 0.0000
0.2222 0.0000 0.0000
0.2222 0.1111 0.0000
0.2222 0.2222 0.0000
0.2222 0.3333 0.0000
0.2222 0.4444 0.0000
0.2222 0.5556 0.0000
0.2222 0.6667 0.0000
0.2222 0.7778 0.0000
0.2222 0.8889 0.0000
0.2222 1.0000 0.0000
0.4444 0.0000 0.0000
0.4444 0.1111 0.0000
0.4444 0.2222 0.0000
0.4444 0.3333 0.0000
0.4444 0.4444 0.0000
0.4444 0.5556 0.0000
0.4444 0.6667 0.0000
0.4444 0.7778 0.0000
0.4444 0.8889 0.0000
0.4444 1.0000 0.0000
0.6667 0.0000 0.0000
0.6667 0.1111 0.0000
0.6667 0.2222 0.0000
0.6667 0.3333 0.0000
0.6667 0.4444 0.0000
0.6667 0.5556 0.0000
0.6667 0.6667 0.0000
0.6667 0.7778 0.0000
0.6667 0.8889 0.0000
0.6667 1.0000 0.0000
0.8889 0.0000 0.0000
0.8889 0.1111 0.0000
0.8889 0.2222 0.0000
0.8889 0.3333 0.0000
0.8889 0.4444 0.0000
0.8889 0.5556 0.0000
0.8889 0.6667 0.0000
0.8889 0.7778 0.0000
0.8889 0.8889 0.0000
0.8889 1.0000 0.0000
1.1111 0.0000 0.0000
1.1111 0.1111 0.0000
1.1111 0.2222 0.0000
1.1111 0.3333 0.0000
1.1111 0.4444 0.0000
1.1111 0.5556 0.0000
1.1111 0.6667 0.0000
1.1111 0.7778 0.0000
1.1111 0.8889 0.0000
1.1111 1.0000 0.0000
1.3333 0.0000 0.0000
1.3333 0.1111 0.0000
1.3333 0.2222 0.0000
1.3333 0.3333 0.0000
1.3333 0.4444 0.0000
1.3333 0.5556 0.0000
1.3333 0.6667 0.0000
1.3333 0.7778 0.0000
1.3333 0.8889 0.0000
1.3333 1.0000 0.0000
1.5556 0.0000 0.0000
1.5556 0.1111 0.0000
1.5556 0.2222 0.0000
1.5556 0.3333 0.0000
1.5556 0.4444 0.0000
1.5556 0.5556 0.0000
1.5556 0.6667 0.0000
1.5556 0.7778 0.0000
1.5556 0.8889 0.0000
1.5556 1.0000 0.0000
1.7778 0.0000 0.0000
1.7778 0.1111 0.0000
1.7778 0.2222 0.0000
1.7778 0.3333 0.0000
1.7778 0.4444 0.0000
1.7778 0.5556 0.0000
1.7778 0.6667 0.0000
1.7778 0.7778 0.0000
1.7778 0.8889 0.0000
1.7778 1.0000 0.0000
2.0000 0.0000 0.0000
2.0000 0.1111 0.0000
2.0000 0.2222 0.0000
2.0000 0.3333 0.0000
2.0000 0.4444 0.0000
2.0000 0.5556 0.0000
2.0000 0.6667 0.0000
2.0000 0.7778 0.0000
2.0000 0.8889 0.0000
2.0000 1.0000 0.0000
0.1111 0.0556 0.0000
0.1111 0.1667 0.0000
0.1111 0.2778 0.0000
0.1111 0.3889 0.0000
0.1111 0.5000 0.0000
0.1111 0.6111 0.0000
0.1111 0.7222 0.0000
0.1111 0.8333 0.0000
0.1111 0.9444 0.0000
0.3333 0.0556 0.0000
0.3333 0.1667 0.0000
0.3333 0.2778 0.0000
0.3333 0.3889 0.0000
0.3333 0.5000 0.0000
0.3333 0.6111 0.0000
0.3333 0.7222 0.0000
0.3333 0.8333 0.0000
0.3333 0.9444 0.0000
0.5556 0.0556 0.0000
0.5556 0.1667 0.0000
0.5556 0.2778 0.0000
0.5556 0.3889 0.0000
0.5556 0.5000 0.0000
0.5556 0.6111 0.0000
0.5556 0.7222 0.0000
0.5556 0.8333 0.0000
0.5556 0.9444 0.0000
0.7778 0.0556 0.0000
0.7778 0.1667 0.0000
0.7778 0.2778 0.0000
0.7778 0.3889 0.0000
0.7778 0.5000 0.0000
0.7778 0.6111 0.0000
0.7778 0.7222 0.0000
0.7778 0.8333 0.0000
0.7778 0.9444 0.0000
1.0000 0.0556 0.0000
1.0000 0.1667 0.0000
1.0000 0.2778 0.0000
1.0000 0.3889 0.0000
1.0000 0.5000 0.0000
1.0000 0.6111 0.0000
1.0000 0.7222 0.0000
1.0000 0.8333 0.0000
1.0000 0.9444 0.0000
1.2222 0.0556 0.0000
1.2222 0.1667 0.0000
1.2222 0.2778 0.0000
1.2222 0.3889 0.0000
1.2222 0.5000 0.0000
1.2222 0.6111 0.0000
1.2222 0.7222 0.0000
1.2222 0.8333 0.0000
1.2222 0.9444 0.0000
1.4444 0.0556 0.0000
1.4444 0.1667 0.0000
1.4444 0.2778 0.0000
1.4444 0.3889 0.0000
1.4444 0.5000 0.0000
1.4444 0.6111 0.0000
1.4444 0.7222 0.0000
1.4444 0.8333 0.0000
1.4444 0.9444 0.0000
1.6667 0.0556 0.0000
1.6667 0.1667 0.0000
1.6667 0.2778 0.0000
1.6667 0.3889 0.0000
1.6667 0.5000 0.0000
1.6667 0.6111 0.0000
1.6667 0.7222 0.0000
1.6667 0.8333 0.0000
1.6667 0.9444 0.0000
1.8889 0.0556 0.0000
1.8889 0.1667 0.0000
1.8889 0.2778 0.0000
1.8889 0.3889 0.0000
1.8889 0.5000 0.0000
1.8889 0.6111 0.0000
1.8889 0.7222 0.0000
1.8889 0.8333 0.0000
1.8889 0.9444 0.0000
0.0000 0.0556 0.0000
0.0556 0.0278 0.0000
0.0556 0.0833 0.0000
0.0000 0.1667 0.0000
0.0556 0.1389 0.0000
0.0556 0.1944 0.0000
0.0000 0.2778 0.0000
0.0556 0.2500 0.0000
0.0556 0.3056 0.0000
0.0000 0.3889 0.0000
0.0556 0.3611 0.0000
0.0556 0.4167 0.0000
0.0000 0.5000 0.0000
0.0556 0.4722 0.0000
0.0556 0.5278 0.0000
0.0000 0.6111 0.0000
0.0556 0.5833 0.0000
0.0556 0.6389 0.0000
0.0000 0.7222 0.0000
0.0556 0.6944 0.0000
0.0556 0.7500 0.0000
0.0000 0.8333 0.0000
0.0556 0.8056 0.0000
0.0556 0.8611 0.0000
0.0000 0.9444 0.0000
0.0556 0.9167 0.0000
0.0556 0.9722 0.0000
0.2222 0.0556 0.0000
0.2778 0.0278 0.0000
0.2778 0.0833 0.0000
0.2222 0.1667 0.0000
0.2778 0.1389 0.0000
0.2778 0.1944 0.0000
0.2222 0.2778 0.0000
0.2778 0.2500 0.0000
0.2778 0.3056 0.0000
0.2222 0.3889 0.0000
0.2778 0.3611 0.0000
0.2778 0.4167 0.0000
0.2222 0.5000 0.0000
0.2778 0.4722 0.0000
0.2778 0.5278 0.0000
0.2222 0.6111 0.0000
0.2778 0.5833 0.0000
0.2778 0.6389 0.0000
0.2222 0.7222 0.0000
0.2778 0.6944 0.0000
0.2778 0.7500 0.0000
0.2222 0.8333 0.0000
0.2778 0.8056 0.0000
0.2778 0.8611 0.0000
0.2222 0.9444 0.0000
0.2778 0.9167 0.0000
0.2778 0.9722 0.0000
0.4444 0.0556 0.0000
0.5000 0.0278 0.0000
0.5000 0.0833 0.0000
0.4444 0.1667 0.0000
0.5000 0.1389 0.0000
0.5000 0.1944 0.0000
0.4444 0.2778 0.0000
0.5000 0.2500 0.0000
0.5000 0.3056 0.0000
0.4444 0.3889 0.0000
0.5000 0.3611 0.0000
0.5000 0.4167 0.0000
0.4444 0.5000 0.0000
0.5000 0.4722 0.0000
0.5000 0.5278 0.0000
0.4444 0.6111 0.0000
0.5000 0.5833 0.0000
0.5000 0.6389 0.0000
0.4444 0.7222 0.0000
0.5000 0.6944 0.0000
0.5000 0.7500 0.0000
0.4444 0.8333 0.0000
0.5000 0.8056 0.0000
0.5000 0.8611 0.0000
0.4444 0.9444 0.0000
0.5000 0.9167 0.0000
0.5000 0.9722 0.0000
0.6667 0.0556 0.0000
0.7222 0.0278 0.0000
0.7222 0.0833 0.0000
0.6667 0.1667 0.0000
0.7222 0.1389 0.0000
0.7222 0.1944 0.0000
0.6667 0.2778 0.0000
0.7222 0.2500 0.0000
0.7222 0.3056 0.0000
0.6667 0.3889 0.0000
0.7222 0.3611 0.0000
0.7222 0.4167 0.0000
0.6667 0.5000 0.0000
0.7222 0.4722 0.0000
0.7222 0.5278 0.0000
0.6667 0.6111 0.0000
0.7222 0.5833 0.0000
0.7222 0.6389 0.0000
0.6667 0.7222 0.0000
0.7222 0.6944 0.0000
0.7222 0.7500 0.0000
0.6667 0.8333 0.0000
0.7222 0.8056 0.0000
0.7222 0.8611 0.0000
0.6667 0.9444 0.0000
0.7222 0.9167 0.0000
0.7222 0.9722 0.0000
0.8889 0.0556 0.0000
0.9444 0.0278 0.0000
0.9444 0.0833 0.0000
0.8889 0.1667 0.0000
0.9444 0.1389 0.0000
0.9444 0.1944 0.0000
0.8889 0.2778 0.0000
0.9444 0.2500 0.0000
0.9444 0.3056 0.0000
0.8889 0.3889 0.0000
0.9444 0.3611 0.0000
0.9444 0.4167 0.0000
0.8889 0.5000 0.0000
0.9444 0.4722 0.0000
0.9444 0.5278 0.0000
0.8889 0.6111 0.0000
0.9444 0.5833 0.0000
0.9444 0.6389 0.0000
0.8889 0.7222 0.0000
0.9444 0.6944 0.0000
0.9444 0.7500 0.0000
0.8889 0.8333 0.0000
0.9444 0.8056 0.0000
0.9444 0.8611 0.0000
0.8889 0.9444 0.0000
0.9444 0.9167 0.0000
0.9444 0.9722 0.0000
1.1111 0.0556 0.0000
1.1667 0.0278 0.0000
1.1667 0.0833 0.0000
1.1111 0.1667 0.0000
1.1667 0.1389 0.0000
1.1667 0.1944 0.0000
1.1111 0.2778 0.0000
1.1667 0.2500 0.0000
1.1667 0.3056 0.0000
1.1111 0.3889 0.0000
1.1667 0.3611 0.0000
1.1667 0.4167 0.0000
1.1111 0.5000 0.0000
1.1667 0.4722 0.0000
1.1667 0.5278 0.0000
1.1111 0.6111 0.0000
1.1667 0.5833 0.0000
1.1667 0.6389 0.0000
1.1111 0.7222 0.0000
1.1667 0.6944 0.0000
1.1667 0.7500 0.0000
1.1111 0.8333 0.0000
1.1667 0.8056 0.0000
1.1667 0.8611 0.0000
1.1111 0.9444 0.0000
1.1667 0.9167 0.0000
1.1667 0.9722 0.0000
1.3333 0.0556 0.0000
1.3889 0.0278 0.0000
1.3889 0.0833 0.0000
1.3333 0.1667 0.0000
1.3889 0.1389 0.0000
1.3889 0.1944 0.0000
1.3333 0.2778 0.0000
1.3889 0.2500 0.0000
1.3889 0.3056 0.0000
1.3333 0.3889 0.0000
1.3889 0.3611 0.0000
1.3889 0.4167 0.0000
1.3333 0.5000 0.0000
1.3889 0.4722 0.0000
1.3889 0.5278 0.0000
1.3333 0.6111 0.0000
1.3889 0.5833 0.0000
1.3889 0.6389 0.0000
1.3333 0.7222 0.0000
1.3889 0.6944 0.0000
1.3889 0.7500 0.0000
1.3333 0.8333 0.0000
1.3889 0.8056 0.0000
1.3889 0.8611 0.0000
1.3333 0.9444 0.0000
1.3889 0.9167 0.0000
1.3889 0.9722 0.0000
1.5556 0.0556 0.0000
1.6111 0.0278 0.0000
1.6111 0.0833 0.0000
1.5556 0.1667 0.0000
1.6111 0.1389 0.0000
1.6111 0.1944 0.0000
1.5556 0.2778 0.0000
1.6111 0.2500 0.0000
1.6111 0.3056 0.0000
1.5556 0.3889 0.0000
1.6111 0.3611 0.0000
1.6111 0.4167 0.0000
1.5556 0.5000 0.0000
1.6111 0.4722 0.0000
1.6111 0.5278 0.0000
1.5556 0.6111 0.0000
1.6111 0.5833 0.0000
1.6111 0.6389 0.0000
1.5556 0.7222 0.0000
1.6111 0.6944 0.0000
1.6111 0.7500 0.0000
1.5556 0.8333 0.0000
1.6111 0.8056 0.0000
1.6111 0.8611 0.0000
1.5556 0.9444 0.0000
1.6111 0.9167 0.0000
1.6111 0.9722 0.0000
1.7778 0.0556 0.0000
1.8333 0.0278 0.0000
1.8333 0.0833 0.0000
1.7778 0.1667 0.0000
1.8333 0.1389 0.0000
1.8333 0.1944 0.0000
1.7778 0.2778 0.0000
1.8333 0.2500 0.0000
1.8333 0.3056 0.0000
1.7778 0.3889 0.0000
1.8333 0.3611 0.0000
1.8333 0.4167 0.0000
1.7778 0.5000 0.0000
1.8333 0.4722 0.0000
1.8333 0.5278 0.0000
1.7778 0.6111 0.0000
1.8333 0.5833 0.0000
1.8333 0.6389 0.0000
1.7778 0.7222 0.0000
1.8333 0.6944 0.0000
1.8333 0.7500 0.0000
1.7778 0.8333 0.0000
1.8333 0.8056 0.0000
1.8333 0.8611 0.0000
1.7778 0.9444 0.0000
1.8333 0.9167 0.0000
1.8333 0.9722 0.0000
0.1111 0.1111 0.0000
0.1667 0.0833 0.0000
0.1111 0.2222 0.0000
0.1667 0.1944 0.0000
0.1111 0.3333 0.0000
0.1667 0.3056 0.0000
0.1111 0.4444 0.0000
0.1667 0.4167 0.0000
0.1111 0.5556 0.0000
0.1667 0.5278 0.0000
0.1111 0.6667 0.0000
0.1667 0.6389 0.0000
0.1111 0.7778 0.0000
0.1667 0.7500 0.0000
0.1111 0.8889 0.0000
0.1667 0.8611 0.0000
0.1111 1.0000 0.0000
0.1667 0.9722 0.0000
0.3333 0.1111 0.0000
0.3889 0.0833 0.0000
0.3333 0.2222 0.0000
0.3889 0.1944 0.0000
0.3333 0.3333 0.0000
0.3889 0.3056 0.0000
0.3333 0.4444 0.0000
0.3889 0.4167 0.0000
0.3333 0.5556 0.0000
0.3889 0.5278 0.0000
0.3333 0.6667 0.0000
0.3889 0.6389 0.0000
0.3333 0.7778 0.0000
0.3889 0.7500 0.0000
0.3333 0.8889 0.0000
0.3889 0.8611 0.0000
0.3333 1.0000 0.0000
0.3889 0.9722 0.0000
0.5556 0.1111 0.0000
[...]
         <PointData>
            <DataArray Name="fValues" NumberOfComponents="3" format="ascii" type="Float64">
-3.82427e-17 -1.91213e-17        00000 
 9.28509e-18  1.28960e-17        00000 
-1.83245e-17  7.91323e-18        00000 
 2.46587e-17 -4.93174e-17        00000 
 1.39167e-17 -3.87444e-17        00000 
 2.46587e-17 -2.46587e-17        00000 
-5.80189e-17 -1.49560e-17        00000 
-3.07955e-17  1.84773e-17        00000 
 5.15962e-18 -6.60431e-17        00000 
-1.91213e-17  9.56067e-18        00000 
-7.33425e-02 -4.04965e-01        00000 
 1.36428e-01 -2.81453e-02        00000 
 1.51134e-01  4.08410e-02        00000 
 1.69996e-01 -2.11977e-01        00000 
 2.10526e-01 -1.44758e-01        00000 
-1.57582e-01 -3.39858e-01        00000 
-1.22068e-01 -2.41638e-01        00000 
-3.04954e-02 -3.78839e-04        00000 
 3.74415e-02 -1.32851e-01        00000 
-9.44350e-02 -2.13448e-01        00000 
 1.39320e-02  6.16718e-01        00000 
 2.72657e-02  6.95072e-02        00000 
 1.23906e-01 -1.15796e-01        00000 
 2.20559e-01 -3.83669e-02        00000 
-8.43905e-02 -1.83525e-01        00000 
 7.74569e-03 -3.82838e-01        00000 
 6.69588e-02 -2.20646e-01        00000 
 1.05481e-01  9.28219e-03        00000 
-7.98365e-02 -6.49752e-02        00000 
-3.83558e-01 -1.31037e-01        00000 
-1.03318e-01  6.76458e-01        00000 
 7.16897e-02  1.77223e-04        00000 
 2.94895e-01  3.86531e-02        00000 
 1.71788e-01 -1.70215e-02        00000 
 1.54603e-01 -2.58498e-01        00000 
 2.43658e-01 -5.01892e-03        00000 
 4.07454e-01 -2.84273e-01        00000 
 2.56255e-01 -1.54641e-01        00000 
 2.03215e-01 -3.35738e-01        00000 
-5.52107e-02 -4.08467e-01        00000 
-1.41064e-01  3.40393e-01        00000 
-1.76432e-01  1.02398e-01        00000 
 1.89927e-01 -2.15659e-02        00000 
 1.53452e-01 -7.53641e-02        00000 
 9.67831e-02 -1.42803e-01        00000 
 4.71867e-01  7.40979e-02        00000 
 8.82771e-02  2.97546e-01        00000 
 3.10594e-01  4.14112e-01        00000 
 5.48493e-01  3.32207e-01        00000 
 2.16359e-01 -2.96038e-01        00000 
-3.29512e-02  2.99337e-01        00000 
 2.47346e-01  2.01950e-01        00000 
 1.06112e-01 -3.71207e-03        00000 
-7.19805e-02 -9.57830e-02        00000 
-8.98804e-02 -1.61114e-01        00000 
-2.67826e-02  1.00691e-01        00000 
 1.06933e-01 -2.35428e-01        00000 
 2.25206e-01  2.31790e-01        00000 
 2.15113e-01 -3.94025e-02        00000 
 2.34876e-01  1.22270e-01        00000 
 1.11944e-01 -3.87582e-01        00000 
 7.64687e-02 -4.05029e-02        00000 
 7.99113e-02 -9.89774e-02        00000 
-1.25589e-01 -1.97031e-01        00000 
-2.00718e-01  1.43565e-01        00000 
 5.93157e-02  1.64914e-01        00000 
 1.07965e-01 -3.89909e-02        00000 
 3.63224e-01  2.40556e-01        00000 
 2.15287e-01  1.78492e-01        00000 
 1.46649e-01  5.06895e-01        00000 
 2.38912e-02 -1.08695e-01        00000 
 1.93454e-01  1.31769e-01        00000 
 2.27160e-01  2.11416e-01        00000 
-2.85505e-02  2.53088e-01        00000 
 2.03287e-02  2.15784e-01        00000 
-9.61554e-02  9.96866e-02        00000 
 3.54151e-02 -2.02635e-01        00000 
-6.57609e-02 -1.43083e-01        00000 
-2.12585e-02 -2.97957e-01        00000 
-1.62313e-01 -3.12137e-01        00000 
-1.44202e-01  4.33913e-01        00000 
-2.88974e-01  2.69696e-01        00000 
-2.25976e-01  2.07173e-01        00000 
-1.89383e-01  3.09024e-01        00000 
-3.44437e-01  6.50952e-02        00000 
-7.00584e-02  1.80993e-01        00000 
 4.00913e-02  2.62673e-01        00000 
 9.70374e-03  2.66200e-01        00000 
 8.15079e-02  4.23187e-01        00000 
-6.01581e-02  8.46351e-01        00000 
 2.11074e-01  4.83392e-01        00000 
-2.76711e-01  1.99634e-01        00000 
-2.78598e-01  8.91054e-02        00000 
-2.12751e-01  1.41436e-01        00000 
-1.07821e-01  2.88999e-01        00000 
-1.24055e-01  1.01318e-01        00000 
 8.63087e-02  2.34726e-02        00000 
-1.49130e-01  3.28590e-01        00000 
-3.66133e-02  4.53088e-03        00000 
 1.64287e-01  1.59902e-01        00000 
 1.51931e-01  1.90993e-01        00000 
 2.72349e-01  1.66881e-01        00000 
 2.82308e-01  1.71233e-01        00000 
 1.44839e-01  8.08175e-02        00000 
-1.52448e-01  1.84273e-02        00000 
 1.03592e-01 -5.02712e-02        00000 
 6.62343e-02 -8.49988e-02        00000 
-1.24305e-01 -1.80137e-01        00000 
 4.48028e-02 -2.90795e-01        00000 
-2.52478e-01 -1.85958e-01        00000 
-1.76553e-01 -7.05618e-02        00000 
-4.57392e-02  7.72936e-02        00000 
-1.74110e-01 -3.03312e-01        00000 
-7.58611e-02 -8.09589e-02        00000 
 7.86778e-02 -7.98571e-02        00000 
-1.33540e-01  2.91909e-02        00000 
 5.21184e-02 -4.28669e-02        00000 
-6.03423e-02 -1.99823e-01        00000 
 5.06847e-02 -1.29289e-01        00000 
 1.72692e-02 -2.77074e-02        00000 
-7.66986e-02  4.55217e-02        00000 
 4.15871e-02  9.24688e-02        00000 
 1.47151e-01 -1.70023e-02        00000 
-2.89093e-02  2.12616e-02        00000 
 8.36589e-02  5.32222e-02        00000 
 4.39515e-02  1.29533e-01        00000 
 1.93262e-01  3.26578e-01        00000 
 6.15106e-02 -2.31907e-01        00000 
 9.85818e-02  1.18388e-01        00000 
-6.64733e-03  1.47736e-01        00000 
-6.41856e-02  1.49417e-01        00000 
-5.63071e-02 -2.25687e-01        00000 
 9.53463e-04  3.35959e-02        00000 
 3.93288e-03  2.28628e-01        00000 
 2.32574e-01  2.01903e-01        00000 
-2.08068e-01  4.87106e-01        00000 
 1.33798e-01  2.36883e-01        00000 
-4.30796e-02  2.41899e-01        00000 
-1.74270e-01  2.11805e-01        00000 
-1.23584e-01  3.20760e-01        00000 
 2.06604e-01  1.54223e-01        00000 
-1.39845e-01  2.23044e-01        00000 
-1.77423e-01  1.00950e-01        00000 
 1.05275e-01  1.28671e-01        00000 
 2.73451e-01  3.72180e-01        00000 
 1.95615e-01 -2.07008e-01        00000 
-3.22375e-02 -5.45232e-02        00000 
 1.43136e-01  2.28228e-02        00000 
-1.71146e-01  1.07657e-01        00000 
-1.62127e-01 -4.75049e-02        00000 
 8.02097e-03 -1.70452e-01        00000 
-1.07219e-02  1.37719e-01        00000 
 2.28486e-01 -2.21371e-01        00000 
-1.47311e-01 -1.71683e-01        00000 
-7.72455e-02  2.34980e-01        00000 
 1.28385e-01  2.73091e-01        00000 
 7.17516e-02  6.61480e-02        00000 
 2.89396e-01  6.19415e-02        00000 
 2.09154e-01  8.60676e-02        00000 
 3.11856e-01  1.64706e-01        00000 
 3.17896e-01  9.71290e-02        00000 
 5.10614e-01  2.73366e-01        00000 
 2.24946e-02  6.76683e-02        00000 
 2.83090e-01  1.52540e-01        00000 
 2.46656e-01 -4.09858e-02        00000 
-1.45707e-01 -3.84670e-01        00000 
 1.17370e-01 -2.99005e-01        00000 
-1.18616e-01 -2.78479e-01        00000 
-4.81903e-02 -4.04801e-01        00000 
-2.51518e-01 -3.12948e-01        00000 
-3.81431e-01 -2.89530e-01        00000 
-4.48989e-01 -3.28991e-01        00000 
-2.49730e-01 -1.30285e-01        00000 
-1.84597e-01 -2.59321e-01        00000 
-1.75567e-01 -1.01993e-01        00000 
 1.54215e-02 -1.74606e-01        00000 
 1.12169e-01  3.60776e-02        00000 
 1.86896e-01  4.87522e-01        00000 
 2.75498e-01  2.51698e-01        00000 
-2.63949e-02  4.03730e-01        00000 
 9.24447e-02  3.24269e-01        00000 
 3.09253e-17  5.80865e-18        00000 
-9.59330e-02  1.99827e-01        00000 
 1.91759e-01 -1.29352e-01        00000 
-1.30463e-17  1.42936e-17        00000 
-1.30514e-02 -5.89513e-02        00000 
 3.66764e-02 -7.96620e-02        00000 
 7.80626e-18 -4.68375e-17        00000 
-9.01079e-02 -2.70767e-01        00000 
 1.46314e-01 -2.09953e-01        00000 
 5.48680e-18  6.89074e-17        00000 
 1.31013e-01 -3.88355e-01        00000 
 1.93704e-01 -1.25557e-01        00000 
 3.12250e-17 -6.24500e-17        00000 
 1.52511e-01 -1.13913e-01        00000 
 1.53837e-01 -4.62689e-01        00000 
-3.71677e-17  2.49266e-18        00000 
-2.47320e-01 -2.29819e-01        00000 
-1.18257e-01 -5.15988e-02        00000 
 1.56125e-17  7.80626e-18        00000 
-1.22353e-01 -1.52809e-01        00000 
-2.02416e-02 -3.32667e-01        00000 
 1.95156e-18  4.68375e-17        00000 
-2.35453e-01 -2.36160e-01        00000 
-3.18447e-02 -2.64317e-01        00000 
 3.13857e-18  2.83146e-17        00000 
-1.32043e-01 -2.04923e-01        00000 
 1.24045e-01 -1.94414e-01        00000 
-1.35578e-01  6.11530e-01        00000 
 2.30134e-01  8.41709e-01        00000 
-1.26819e-01 -5.57755e-04        00000 
 1.21427e-01  1.95680e-01        00000 
-1.65745e-01  7.84933e-02        00000 
-5.91619e-02 -9.01161e-03        00000 
 2.86180e-01 -1.34605e-01        00000 
-8.18735e-02  9.40751e-02        00000 
 1.43461e-01  1.59683e-01        00000 
 1.43283e-01 -1.45660e-01        00000 
-7.98939e-02 -2.51980e-02        00000 
-1.15126e-02  4.59834e-02        00000 
 1.70188e-01  3.07578e-02        00000 
-2.84103e-01 -2.39710e-01        00000 
-1.88064e-01  4.99090e-02        00000 
 3.39919e-02  1.32846e-01        00000 
-1.13199e-01  1.69893e-02        00000 
 1.40482e-01 -2.12316e-01        00000 
 1.43546e-01  5.38422e-02        00000 
-8.15719e-02  3.04004e-02        00000 
 3.00718e-02 -6.68881e-02        00000 
-1.21975e-01  1.97235e-01        00000 
-3.65005e-01  9.46237e-02        00000 
-1.36902e-01  5.38768e-02        00000 
-7.30060e-02  2.89475e-01        00000 
 2.14352e-02 -1.14537e-01        00000 
-1.23227e-01  7.09550e-01        00000 
-1.10703e-01  1.98652e-02        00000 
 3.40063e-02 -8.65981e-01        00000 
-4.24119e-02  3.17500e-01        00000 
 2.84368e-02 -1.53097e-01        00000 
-2.15457e-01 -2.60732e-02        00000 
-2.69020e-01 -2.13135e-01        00000 
 1.04171e-01 -1.92245e-01        00000 
-2.55235e-01 -6.85675e-02        00000 
-2.87947e-01 -6.24626e-02        00000 
-1.12397e-01  6.29088e-02        00000 
-1.01810e-01 -1.64559e-02        00000 
-1.07413e-01 -1.47863e-02        00000 
 1.61330e-01 -3.07418e-01        00000 
-2.99555e-01 -3.84414e-02        00000 
-6.91918e-02 -3.27597e-01        00000 
-4.55195e-04  4.27037e-02        00000 
 9.19040e-02 -7.57726e-02        00000 
-1.62544e-01 -1.07655e-01        00000 
 4.46312e-02  1.61767e-02        00000 
-1.43629e-01 -1.12496e-01        00000 
-9.08101e-02 -6.25342e-02        00000 
-3.55424e-02 -2.97874e-02        00000 
-2.84280e-01 -1.25658e-01        00000 
-2.45966e-01 -2.07042e-02        00000 
 9.74181e-02  3.71856e-01        00000 
-1.36800e-01  1.03992e-02        00000 
-2.45512e-01  6.60092e-01        00000 
 3.09809e-01  1.12825e-02        00000 
-2.84948e-02 -5.14807e-01        00000 
-2.23658e-01 -1.49022e-01        00000 
 2.23782e-02 -3.07146e-01        00000 
-8.26021e-02  1.63124e-01        00000 
 8.43310e-03  6.92980e-02        00000 
 2.45566e-01 -2.00860e-01        00000 
-9.55707e-02 -7.62976e-02        00000 
-2.47373e-01  1.04330e-02        00000 
 3.20730e-01 -2.22370e-02        00000 
-2.26424e-01 -1.10601e-01        00000 
 7.77556e-02 -7.78585e-03        00000 
-1.98013e-02 -9.37885e-03        00000 
 2.43267e-01  1.92478e-02        00000 
 3.14166e-01  1.58922e-01        00000 
 1.81885e-01  8.71350e-02        00000 
 2.31708e-01 -2.03880e-01        00000 
 2.33727e-01 -1.13779e-01        00000 
 3.92498e-01  3.11506e-02        00000 
 1.73123e-01 -2.42258e-02        00000 
 2.01941e-01 -2.10767e-01        00000 
 9.71048e-02 -1.00123e-01        00000 
 2.21134e-01 -5.00697e-02        00000 
 4.69610e-01 -3.96118e-02        00000 
 1.51446e-01 -1.67720e-01        00000 
 1.23425e-01 -2.03336e-01        00000 
 2.00051e-01  3.39666e-01        00000 
-2.56901e-02 -2.56500e-01        00000 
 3.75305e-02 -4.97716e-01        00000 
 2.64042e-01  1.94153e-01        00000 
-1.39282e-01 -2.47626e-01        00000 
-6.67543e-02 -1.84059e-01        00000 
 2.02984e-01  1.17949e-01        00000 
 1.78441e-01  1.29785e-01        00000 
 2.55295e-02 -7.26672e-02        00000 
-9.51905e-02 -3.67379e-01        00000 
 5.95709e-03  2.80862e-01        00000 
-1.15213e-01 -5.53456e-02        00000 
-1.09758e-01 -8.57861e-02        00000 
 2.83919e-01 -1.80550e-01        00000 
-7.80740e-02 -2.18000e-01        00000 
-1.51042e-01 -1.36401e-01        00000 
 2.43641e-01 -1.82913e-01        00000 
-1.70373e-01  2.53961e-04        00000 
-2.20563e-01 -2.06934e-01        00000 
 1.61976e-02 -2.22961e-01        00000 
-2.91271e-02 -1.25259e-02        00000 
-8.04302e-03 -1.55791e-02        00000 
 4.65426e-01 -1.34140e-01        00000 
-1.27586e-01 -3.59676e-02        00000 
 5.04221e-02  2.54607e-01        00000 
 1.77920e-01  5.23870e-01        00000 
-5.23834e-02 -3.43601e-01        00000 
-8.27368e-02  9.18003e-01        00000 
 2.31015e-01  4.98846e-02        00000 
-1.17933e-01  2.61586e-01        00000 
 2.09920e-01 -1.01725e-01        00000 
 1.50267e-01  1.42548e-01        00000 
 1.28290e-01 -1.78415e-02        00000 
 5.84034e-02 -9.26903e-02        00000 
 4.69364e-02  3.18033e-01        00000 
 3.84194e-02  1.20950e-01        00000 
 4.15218e-02 -9.29709e-02        00000 
-1.29867e-01  3.22261e-01        00000 
 1.41649e-01  9.78654e-02        00000 
-3.11778e-02 -4.65568e-01        00000 
-1.63012e-01  9.76507e-02        00000 
 2.00270e-01  1.98752e-01        00000 
-8.52614e-03 -1.36216e-01        00000 
-5.79408e-02  1.75722e-01        00000 
 2.94076e-01  1.45597e-01        00000 
-4.50904e-03 -1.18359e-01        00000 
 1.78137e-01  7.82650e-02        00000 
 3.08100e-01  2.26267e-01        00000 
 1.76380e-01 -3.45850e-02        00000 
 6.42820e-02 -7.62515e-02        00000 
 2.98737e-01  1.82929e-01        00000 
 8.84254e-02 -2.82643e-01        00000 
 9.64197e-02 -2.18730e-02        00000 
 3.09309e-01  5.21059e-01        00000 
 2.41939e-01 -2.46563e-01        00000 
 5.14110e-02  2.92350e-01        00000 
 2.32361e-01  5.22675e-01        00000 
 1.07460e-01 -3.59352e-02        00000 
-6.62309e-02  2.11716e-01        00000 
 1.57827e-01  1.18649e-01        00000 
 3.84067e-02 -6.49731e-02        00000 
-1.22101e-01  2.50735e-01        00000 
 2.22778e-01 -1.67838e-01        00000 
-1.68174e-02 -1.81753e-01        00000 
-2.01985e-02  2.33756e-03        00000 
-1.05947e-01 -1.92206e-01        00000 
 8.34766e-02 -2.90343e-01        00000 
-1.21697e-01 -1.88466e-01        00000 
-7.95857e-02 -2.46901e-01        00000 
-1.82901e-01 -3.19580e-01        00000 
-1.06966e-01 -1.71085e-01        00000 
-2.26258e-01 -1.57026e-01        00000 
-1.60826e-01  2.72359e-01        00000 
 2.72132e-01  4.28955e-04        00000 
-7.74552e-03  3.21516e-02        00000 
-1.25384e-01 -1.52004e-02        00000 
 5.07926e-02  7.41705e-02        00000 
-4.74717e-02  8.02551e-02        00000 
-7.80540e-02  2.53317e-01        00000 
-2.15959e-03 -4.76556e-02        00000 
-1.07994e-02  2.99331e-01        00000 
 9.47799e-03  1.19489e-01        00000 
 1.03181e-01 -5.80793e-02        00000 
-2.08578e-03  2.75714e-01        00000 
-2.43875e-01  7.25435e-02        00000 
 3.79773e-01 -1.40811e-02        00000 
-1.07939e-01  2.15903e-01        00000 
-1.22336e-01 -9.05269e-02        00000 
-1.32783e-01 -2.04614e-01        00000 
 1.32070e-02  3.27707e-01        00000 
-1.39401e-01 -7.89849e-02        00000 
-1.16560e-01 -2.73343e-02        00000 
-2.79276e-01  6.28379e-02        00000 
-5.09842e-01 -1.97855e-01        00000 
-7.44874e-02 -6.13319e-02        00000 
-1.56697e-01  1.30988e-01        00000 
-1.09855e-01 -3.57173e-02        00000 
-2.22036e-02  1.79328e-01        00000 
-6.47537e-02 -3.79611e-02        00000 
 7.74111e-02  2.07822e-02        00000 
-4.53119e-02 -4.38285e-02        00000 
-1.10491e-01  8.87867e-02        00000 
-1.62753e-03  1.24201e-02        00000 
-1.30954e-01  1.23725e-01        00000 
 3.94557e-02 -2.54276e-02        00000 
-1.06193e-04  5.11764e-02        00000 
 1.64126e-01 -1.94587e-02        00000 
-1.99611e-01 -5.57062e-02        00000 
-8.63133e-03  1.20911e-02        00000 
-1.74468e-01  1.49185e-01        00000 
 7.30742e-02 -3.85485e-01        00000 
 3.95995e-02  4.73792e-01        00000 
 5.57256e-03  3.29705e-03        00000 
-1.49828e-02 -1.74024e-02        00000 
-3.12096e-01  3.01013e-01        00000 
-1.37737e-01 -7.05313e-02        00000 
-2.20919e-01 -1.99631e-01        00000 
-6.41450e-02  2.97822e-01        00000 
-1.48834e-01 -3.08190e-01        00000 
-4.36810e-01 -1.85002e-01        00000 
-1.81606e-01  1.59705e-01        00000 
-2.14404e-01 -1.22375e-02        00000 
-2.68935e-01 -1.61187e-01        00000 
-1.34671e-01  2.78901e-02        00000 
-1.97223e-01 -2.56691e-01        00000 
-3.24151e-01 -1.61406e-01        00000 
-1.19630e-02  1.70988e-01        00000 
 6.14145e-03 -1.60772e-01        00000 
-3.30141e-01 -5.54979e-02        00000 
-5.29030e-02 -2.28964e-02        00000 
 1.73862e-01 -1.23479e-01        00000 
-3.41278e-01  3.85641e-02        00000 
-2.93316e-02  2.02843e-01        00000 
-3.29302e-02 -1.41315e-01        00000 
-2.62358e-01  1.28024e-01        00000 
-1.51332e-01 -4.86532e-01        00000 
-1.47126e-01 -2.07867e-01        00000 
-1.27812e-01 -9.79523e-02        00000 
-4.12379e-02 -2.40571e-01        00000 
 4.82058e-02  1.69464e-01        00000 
-9.22159e-03 -1.36551e-01        00000 
-2.99199e-02  1.69438e-01        00000 
 5.11517e-02  1.25902e-01        00000 
 1.55614e-01  1.16374e-01        00000 
-2.67208e-02  1.11156e-01        00000 
 5.11871e-01  3.72044e-01        00000 
 2.13429e-01  2.57717e-02        00000 
 1.63586e-01  1.78720e-01        00000 
 6.91453e-02 -1.82192e-01        00000 
 2.02126e-01  5.42409e-02        00000 
 8.86019e-04 -1.97285e-01        00000 
 5.13872e-02  1.60304e-01        00000 
-2.31101e-01 -2.94356e-01        00000 
-3.97909e-02  2.81012e-01        00000 
 2.67635e-02  4.07294e-02        00000 
-1.10023e-02  5.24961e-01        00000 
 1.82778e-01  2.99538e-01        00000 
 6.58123e-02  2.20218e-01        00000 
-4.85404e-03  2.42466e-01        00000 
 1.48090e-01  1.48401e-01        00000 
-3.46274e-03  1.89481e-01        00000 
 2.73643e-01  1.53561e-01        00000 
 3.06910e-01 -8.32643e-02        00000 
 8.90270e-02  1.98089e-01        00000 
 1.12468e-01 -1.18882e-01        00000 
 1.36792e-01  1.64898e-02        00000 
 1.37354e-01 -3.04036e-01        00000 
-8.19172e-02  1.94642e-01        00000 
 1.66267e-01 -2.55363e-02        00000 
-6.80286e-02  2.07213e-01        00000 
-1.92523e-01 -6.29708e-01        00000 
-1.37267e-01  5.32778e-01        00000 
 1.77383e-01  1.57243e-01        00000 
 9.90895e-02  4.82929e-01        00000 
 9.76438e-02  2.69488e-01        00000 
-6.59869e-02  2.16150e-01        00000 
-1.95915e-01  6.38741e-02        00000 
-2.95427e-01  2.13115e-01        00000 
 2.36929e-01 -1.22669e-01        00000 
 2.69537e-02  2.33998e-01        00000 
-4.08528e-02 -2.75130e-01        00000 
-7.85857e-02 -1.68188e-03        00000 
-7.55015e-02 -2.21977e-01        00000 
-4.93400e-03  4.94792e-02        00000 
 1.68361e-02 -6.12548e-02        00000 
-3.56200e-02  1.96663e-01        00000 
-2.91737e-01  6.31981e-04        00000 
-2.24184e-01 -2.25169e-01        00000 
 1.77611e-01 -4.11542e-02        00000 
-2.09904e-01 -2.95624e-01        00000 
 7.21385e-02 -2.01889e-01        00000 
-2.78798e-01  6.79057e-02        00000 
-2.14347e-02 -6.43927e-02        00000 
-2.28166e-01 -2.04273e-01        00000 
-2.27850e-01 -8.45235e-02        00000 
-1.32591e-01  2.50563e-03        00000 
-1.81062e-01 -6.63621e-02        00000 
-8.21158e-02  1.32747e-01        00000 
-1.89472e-01  1.94877e-01        00000 
-7.32080e-02  1.70547e-03        00000 
-1.27971e-01  4.71018e-02        00000 
 4.75247e-02  7.09141e-02        00000 
-6.42105e-02  6.52880e-02        00000 
 8.94512e-02  2.51409e-01        00000 
-3.59784e-02  8.10091e-02        00000 
 8.59394e-02  2.73370e-01        00000 
-8.53311e-02 -5.11449e-01        00000 
 3.87537e-01  8.18628e-01        00000 
-1.60644e-01 -2.00598e-01        00000 