<?xml version="1.0" encoding="utf-8"?>
<VTKFile byte_order="LittleEndian" type="UnstructuredGrid" version="0.1">
   <UnstructuredGrid>
      <Piece NumberOfCells="1296" NumberOfPoints="685">
         <Points>
            <DataArray Name="Points" NumberOfComponents="3" format="ascii" type="Float32">
0.0000 0.0000 0.0000
0.0000 0.1111 0.0000
0.0000 0.2222 0.0000
0.0000 0.3333 0.0000
0.0000 0.4444 0.0000
0.0000 0.5556 0.0000
0.0000 0.6667 0.0000
0.0000 0.7778 0.0000
0.0000 0.8889 0.0000
0.0000 1.0000 0.0000
0.2222 0.0000 0.0000
0.2222 0.1111 0.0000
0.2222 0.2222 0.0000
0.2222 0.3333 0.0000
0.2222 0.4444 0.0000
0.2222 0.5556 0.0000
0.2222 0.6667 0.0000
0.2222 0.7778 0.0000
0.2222 0.8889 0.0000
0.2222 1.0000 0.0000
0.4444 0.0000 0.0000
0.4444 0.1111 0.0000
0.4444 0.2222 0.0000
0.4444 0.3333 0.0000
0.4444 0.4444 0.0000
0.4444 0.5556 0.0000
0.4444 0.6667 0.0000
0.4444 0.7778 0.0000
0.4444 0.8889 0.0000
0.4444 1.0000 0.0000
0.6667 0.0000 0.0000
0.6667 0.1111 0.0000
0.6667 0.2222 0.0000
0.6667 0.3333 0.0000
0.6667 0.4444 0.0000
0.6667 0.5556 0.0000
0.6667 0.6667 0.0000
0.6667 0.7778 0.0000
0.6667 0.8889 0.0000
0.6667 1.0000 0.0000
0.8889 0.0000 0.0000
0.8889 0.1111 0.0000
0.8889 0.2222 0.0000
0.8889 0.3333 0.0000
0.8889 0.4444 0.0000
0.8889 0.5556 0.0000
0.8889 0.6667 0.0000
0.8889 0.7778 0.0000
0.8889 0.8889 0.0000
0.8889 1.0000 0.0000
1.1111 0.0000 0.0000
1.1111 0.1111 0.0000
1.1111 0.2222 0.0000
1.1111 0.3333 0.0000
1.1111 0.4444 0.0000
1.1111 0.5556 0.0000
1.1111 0.6667 0.0000
1.1111 0.7778 0.0000
1.1111 0.8889 0.0000
1.1111 1.0000 0.0000
1.3333 0.0000 0.0000
1.3333 0.1111 0.0000
1.3333 0.2222 0.0000
1.3333 0.3333 0.0000
1.3333 0.4444 0.0000
1.3333 0.5556 0.0000
1.3333 0.6667 0.0000
1.3333 0.7778 0.0000
1.3333 0.8889 0.0000
1.3333 1.0000 0.0000
1.5556 0.0000 0.0000
1.5556 0.1111 0.0000
1.5556 0.2222 0.0000
1.5556 0.3333 0.0000
1.5556 0.4444 0.0000
1.5556 0.5556 0.0000
1.5556 0.6667 0.0000
1.5556 0.7778 0.0000
1.5556 0.8889 0.0000
1.5556 1.0000 0.0000
1.7778 0.0000 0.0000
1.7778 0.1111 0.0000
1.7778 0.2222 0.0000
1.7778 0.3333 0.0000
1.7778 0.4444 0.0000
1.7778 0.5556 0.0000
1.7778 0.6667 0.0000
1.7778 0.7778 0.0000
1.7778 0.8889 0.0000
1.7778 1.0000 0.0000
2.0000 0.0000 0.0000
2.0000 0.1111 0.0000
2.0000 0.2222 0.0000
2.0000 0.3333 0.0000
2.0000 0.4444 0.0000
2.0000 0.5556 0.0000
2.0000 0.6667 0.0000
2.0000 0.7778 0.0000
2.0000 0.8889 0.0000
2.0000 1.0000 0.0000
0.1111 0.0556 0.0000
0.1111 0.1667 0.0000
0.1111 0.2778 0.0000
0.1111 0.3889 0.0000
0.1111 0.5000 0.0000
0.1111 0.6111 0.0000
0.1111 0.7222 0.0000
0.1111 0.8333 0.0000
0.1111 0.9444 0.0000
0.3333 0.0556 0.0000
0.3333 0.1667 0.0000
0.3333 0.2778 0.0000
0.3333 0.3889 0.0000
0.3333 0.5000 0.0000
0.3333 0.6111 0.0000
0.3333 0.7222 0.0000
0.3333 0.8333 0.0000
0.3333 0.9444 0.0000
0.5556 0.0556 0.0000
0.5556 0.1667 0.0000
0.5556 0.2778 0.0000
0.5556 0.3889 0.0000
0.5556 0.5000 0.0000
0.5556 0.6111 0.0000
0.5556 0.7222 0.0000
0.5556 0.8333 0.0000
0.5556 0.9444 0.0000
0.7778 0.0556 0.0000
0.7778 0.1667 0.0000
0.7778 0.2778 0.0000
0.7778 0.3889 0.0000
0.7778 0.5000 0.0000
0.7778 0.6111 0.0000
0.7778 0.7222 0.0000
0.7778 0.8333 0.0000
0.7778 0.9444 0.0000
1.0000 0.0556 0.0000
1.0000 0.1667 0.0000
1.0000 0.2778 0.0000
1.0000 0.3889 0.0000
1.0000 0.5000 0.0000
1.0000 0.6111 0.0000
1.0000 0.7222 0.0000
1.0000 0.8333 0.0000
1.0000 0.9444 0.0000
1.2222 0.0556 0.0000
1.2222 0.1667 0.0000
1.2222 0.2778 0.0000
1.2222 0.3889 0.0000
1.2222 0.5000 0.0000
1.2222 0.6111 0.0000
1.2222 0.7222 0.0000
1.2222 0.8333 0.0000
1.2222 0.9444 0.0000
1.4444 0.0556 0.0000
1.4444 0.1667 0.0000
1.4444 0.2778 0.0000
1.4444 0.3889 0.0000
1.4444 0.5000 0.0000
1.4444 0.6111 0.0000
1.4444 0.7222 0.0000
1.4444 0.8333 0.0000
1.4444 0.9444 0.0000
1.6667 0.0556 0.0000
1.6667 0.1667 0.0000
1.6667 0.2778 0.0000
1.6667 0.3889 0.0000
1.6667 0.5000 0.0000
1.6667 0.6111 0.0000
1.6667 0.7222 0.0000
1.6667 0.8333 0.0000
1.6667 0.9444 0.0000
1.8889 0.0556 0.0000
1.8889 0.1667 0.0000
1.8889 0.2778 0.0000
1.8889 0.3889 0.0000
1.8889 0.5000 0.0000
1.8889 0.6111 0.0000
1.8889 0.7222 0.0000
1.8889 0.8333 0.0000
1.8889 0.9444 0.0000
0.0000 0.0556 0.0000
0.0556 0.0278 0.0000
0.0556 0.0833 0.0000
0.0000 0.1667 0.0000
0.0556 0.1389 0.0000
0.0556 0.1944 0.0000
0.0000 0.2778 0.0000
0.0556 0.2500 0.0000
0.0556 0.3056 0.0000
0.0000 0.3889 0.0000
0.0556 0.3611 0.0000
0.0556 0.4167 0.0000
0.0000 0.5000 0.0000
0.0556 0.4722 0.0000
0.0556 0.5278 0.0000
0.0000 0.6111 0.0000
0.0556 0.5833 0.0000
0.0556 0.6389 0.0000
0.0000 0.7222 0.0000
0.0556 0.6944 0.0000
0.0556 0.7500 0.0000
0.0000 0.8333 0.0000
0.0556 0.8056 0.0000
0.0556 0.8611 0.0000
0.0000 0.9444 0.0000
0.0556 0.9167 0.0000
0.0556 0.9722 0.0000
0.2222 0.0556 0.0000
0.2778 0.0278 0.0000
0.2778 0.0833 0.0000
0.2222 0.1667 0.0000
0.2778 0.1389 0.0000
0.2778 0.1944 0.0000
0.2222 0.2778 0.0000
0.2778 0.2500 0.0000
0.2778 0.3056 0.0000
0.2222 0.3889 0.0000
0.2778 0.3611 0.0000
0.2778 0.4167 0.0000
0.2222 0.5000 0.0000
0.2778 0.4722 0.0000
0.2778 0.5278 0.0000
0.2222 0.6111 0.0000
0.2778 0.5833 0.0000
0.2778 0.6389 0.0000
0.2222 0.7222 0.0000
0.2778 0.6944 0.0000
0.2778 0.7500 0.0000
0.2222 0.8333 0.0000
0.2778 0.8056 0.0000
0.2778 0.8611 0.0000
0.2222 0.9444 0.0000
0.2778 0.9167 0.0000
0.2778 0.9722 0.0000
0.4444 0.0556 0.0000
0.5000 0.0278 0.0000
0.5000 0.0833 0.0000
0.4444 0.1667 0.0000
0.5000 0.1389 0.0000
0.5000 0.1944 0.0000
0.4444 0.2778 0.0000
0.5000 0.2500 0.0000
0.5000 0.3056 0.0000
0.4444 0.3889 0.0000
0.5000 0.3611 0.0000
0.5000 0.4167 0.0000
0.4444 0.5000 0.0000
0.5000 0.4722 0.0000
0.5000 0.5278 0.0000
0.4444 0.6111 0.0000
0.5000 0.5833 0.0000
0.5000 0.6389 0.0000
0.4444 0.7222 0.0000
0.5000 0.6944 0.0000
0.5000 0.7500 0.0000
0.4444 0.8333 0.0000
0.5000 0.8056 0.0000
0.5000 0.8611 0.0000
0.4444 0.9444 0.0000
0.5000 0.9167 0.0000
0.5000 0.9722 0.0000
0.6667 0.0556 0.0000
0.7222 0.0278 0.0000
0.7222 0.0833 0.0000
0.6667 0.1667 0.0000
0.7222 0.1389 0.0000
0.7222 0.1944 0.0000
0.6667 0.2778 0.0000
0.7222 0.2500 0.0000
0.7222 0.3056 0.0000
0.6667 0.3889 0.0000
0.7222 0.3611 0.0000
0.7222 0.4167 0.0000
0.6667 0.5000 0.0000
0.7222 0.4722 0.0000
0.7222 0.5278 0.0000
0.6667 0.6111 0.0000
0.7222 0.5833 0.0000
0.7222 0.6389 0.0000
0.6667 0.7222 0.0000
0.7222 0.6944 0.0000
0.7222 0.7500 0.0000
0.6667 0.8333 0.0000
0.7222 0.8056 0.0000
0.7222 0.8611 0.0000
0.6667 0.9444 0.0000
0.7222 0.9167 0.0000
0.7222 0.9722 0.0000
0.8889 0.0556 0.0000
0.9444 0.0278 0.0000
0.9444 0.0833 0.0000
0.8889 0.1667 0.0000
0.9444 0.1389 0.0000
0.9444 0.1944 0.0000
0.8889 0.2778 0.0000
0.9444 0.2500 0.0000
0.9444 0.3056 0.0000
0.8889 0.3889 0.0000
0.9444 0.3611 0.0000
0.9444 0.4167 0.0000
0.8889 0.5000 0.0000
0.9444 0.4722 0.0000
0.9444 0.5278 0.0000
0.8889 0.6111 0.0000
0.9444 0.5833 0.0000
0.9444 0.6389 0.0000
0.8889 0.7222 0.0000
0.9444 0.6944 0.0000
0.9444 0.7500 0.0000
0.8889 0.8333 0.0000
0.9444 0.8056 0.0000
0.9444 0.8611 0.0000
0.8889 0.9444 0.0000
0.9444 0.9167 0.0000
0.9444 0.9722 0.0000
1.1111 0.0556 0.0000
1.1667 0.0278 0.0000
1.1667 0.0833 0.0000
1.1111 0.1667 0.0000
1.1667 0.1389 0.0000
1.1667 0.1944 0.0000
1.1111 0.2778 0.0000
1.1667 0.2500 0.0000
1.1667 0.3056 0.0000
1.1111 0.3889 0.0000
1.1667 0.3611 0.0000
1.1667 0.4167 0.0000
1.1111 0.5000 0.0000
1.1667 0.4722 0.0000
1.1667 0.5278 0.0000
1.1111 0.6111 0.0000
1.1667 0.5833 0.0000
1.1667 0.6389 0.0000
1.1111 0.7222 0.0000
1.1667 0.6944 0.0000
1.1667 0.7500 0.0000
1.1111 0.8333 0.0000
1.1667 0.8056 0.0000
1.1667 0.8611 0.0000
1.1111 0.9444 0.0000
1.1667 0.9167 0.0000
1.1667 0.9722 0.0000
1.3333 0.0556 0.0000
1.3889 0.0278 0.0000
1.3889 0.0833 0.0000
1.3333 0.1667 0.0000
1.3889 0.1389 0.0000
1.3889 0.1944 0.0000
1.3333 0.2778 0.0000
1.3889 0.2500 0.0000
1.3889 0.3056 0.0000
1.3333 0.3889 0.0000
1.3889 0.3611 0.0000
1.3889 0.4167 0.0000
1.3333 0.5000 0.0000
1.3889 0.4722 0.0000
1.3889 0.5278 0.0000
1.3333 0.6111 0.0000
1.3889 0.5833 0.0000
1.3889 0.6389 0.0000
1.3333 0.7222 0.0000
1.3889 0.6944 0.0000
1.3889 0.7500 0.0000
1.3333 0.8333 0.0000
1.3889 0.8056 0.0000
1.3889 0.8611 0.0000
1.3333 0.9444 0.0000
1.3889 0.9167 0.0000
1.3889 0.9722 0.0000
1.5556 0.0556 0.0000
1.6111 0.0278 0.0000
1.6111 0.0833 0.0000
1.5556 0.1667 0.0000
1.6111 0.1389 0.0000
1.6111 0.1944 0.0000
1.5556 0.2778 0.0000
1.6111 0.2500 0.0000
1.6111 0.3056 0.0000
1.5556 0.3889 0.0000
1.6111 0.3611 0.0000
1.6111 0.4167 0.0000
1.5556 0.5000 0.0000
1.6111 0.4722 0.0000
1.6111 0.5278 0.0000
1.5556 0.6111 0.0000
1.6111 0.5833 0.0000
1.6111 0.6389 0.0000
1.5556 0.7222 0.0000
1.6111 0.6944 0.0000
1.6111 0.7500 0.0000
1.5556 0.8333 0.0000
1.6111 0.8056 0.0000
1.6111 0.8611 0.0000
1.5556 0.9444 0.0000
1.6111 0.9167 0.0000
1.6111 0.9722 0.0000
1.7778 0.0556 0.0000
1.8333 0.0278 0.0000
1.8333 0.0833 0.0000
1.7778 0.1667 0.0000
1.8333 0.1389 0.0000
1.8333 0.1944 0.0000
1.7778 0.2778 0.0000
1.8333 0.2500 0.0000
1.8333 0.3056 0.0000
1.7778 0.3889 0.0000
1.8333 0.3611 0.0000
1.8333 0.4167 0.0000
1.7778 0.5000 0.0000
1.8333 0.4722 0.0000
1.8333 0.5278 0.0000
1.7778 0.6111 0.0000
1.8333 0.5833 0.0000
1.8333 0.6389 0.0000
1.7778 0.7222 0.0000
1.8333 0.6944 0.0000
1.8333 0.7500 0.0000
1.7778 0.8333 0.0000
1.8333 0.8056 0.0000
1.8333 0.8611 0.0000
1.7778 0.9444 0.0000
1.8333 0.9167 0.0000
1.8333 0.9722 0.0000
0.1111 0.1111 0.0000
0.1667 0.0833 0.0000
0.1111 0.2222 0.0000
0.1667 0.1944 0.0000
0.1111 0.3333 0.0000
0.1667 0.3056 0.0000
0.1111 0.4444 0.0000
0.1667 0.4167 0.0000
0.1111 0.5556 0.0000
0.1667 0.5278 0.0000
0.1111 0.6667 0.0000
0.1667 0.6389 0.0000
0.1111 0.7778 0.0000
0.1667 0.7500 0.0000
0.1111 0.8889 0.0000
0.1667 0.8611 0.0000
0.1111 1.0000 0.0000
0.1667 0.9722 0.0000
0.3333 0.1111 0.0000
0.3889 0.0833 0.0000
0.3333 0.2222 0.0000
0.3889 0.1944 0.0000
0.3333 0.3333 0.0000
0.3889 0.3056 0.0000
0.3333 0.4444 0.0000
0.3889 0.4167 0.0000
0.3333 0.5556 0.0000
0.3889 0.5278 0.0000
0.3333 0.6667 0.0000
0.3889 0.6389 0.0000
0.3333 0.7778 0.0000
0.3889 0.7500 0.0000
0.3333 0.8889 0.0000
0.3889 0.8611 0.0000
0.3333 1.0000 0.0000
0.3889 0.9722 0.0000
0.5556 0.1111 0.0000
[...]
         <PointData>
            <DataArray Name="fValues" NumberOfComponents="3" format="ascii" type="Float64">
-3.28240e-22  3.05445e-22        00000 
 2.51874e-22  2.73520e-22        00000 
-1.09311e-21  3.92241e-22        00000 
-7.52524e-22 -1.00337e-21        00000 
 4.45423e-22  8.81624e-23        00000 
 7.21169e-22 -6.27103e-22        00000 
-5.03636e-22  7.08238e-23        00000 
 1.09644e-22  2.50614e-22        00000 
-1.25967e-22        00000        00000 
-9.48248e-22 -8.75306e-22        00000 
-6.85919e-06  4.97372e-06        00000 
 6.33540e-07  6.24764e-06        00000 
 5.80707e-06 -2.54034e-06        00000 
-4.14619e-06 -4.69021e-07        00000 
-9.28186e-07 -2.78878e-06        00000 
-1.65016e-06  2.80750e-06        00000 
-9.02444e-07 -3.98196e-07        00000 
 2.79738e-06  3.11400e-06        00000 
-2.01902e-06 -8.09188e-07        00000 
-1.76698e-07  5.96942e-06        00000 
-6.54874e-07  4.97232e-07        00000 
 5.25201e-06  1.84925e-06        00000 
 3.30980e-06 -4.28417e-06        00000 
-5.04890e-06 -7.66984e-06        00000 
 5.35660e-06 -1.86898e-06        00000 
 6.84165e-06  2.74693e-06        00000 
 5.88613e-06  5.86990e-06        00000 
 3.06268e-06 -7.10369e-06        00000 
 2.82166e-06 -1.73455e-06        00000 
 1.73294e-06 -5.33553e-06        00000 
 1.15674e-06  6.80619e-06        00000 
-1.27952e-06  6.05031e-06        00000 
 4.31986e-08  3.56263e-06        00000 
-1.06032e-05 -5.96262e-07        00000 
 7.88243e-07 -7.30959e-07        00000 
 8.65164e-06  3.83839e-06        00000 
 1.02963e-06  6.70263e-06        00000 
-3.38636e-07  2.95364e-07        00000 
 4.57116e-07 -1.97268e-06        00000 
-4.14444e-06  1.94838e-05        00000 
-6.52395e-06  2.24159e-06        00000 
-2.64620e-06  1.08556e-05        00000 
-2.50926e-06 -4.06102e-06        00000 
-1.80486e-06  5.44242e-07        00000 
-2.69852e-06  2.18935e-06        00000 
-5.52652e-06 -1.63987e-06        00000 
-1.14614e-06  8.27412e-06        00000 
 2.63363e-06 -2.10539e-07        00000 
-4.34410e-06 -3.41887e-06        00000 
-1.84214e-06  1.79296e-06        00000 
 2.08141e-06 -1.39659e-05        00000 
-3.73272e-06 -2.65618e-06        00000 
-2.39942e-06  6.39356e-06        00000 
-3.20017e-06 -9.43420e-07        00000 
-1.90513e-06 -1.16488e-06        00000 
 2.49869e-06  3.60300e-06        00000 
 1.84304e-06  9.78135e-06        00000 
-3.92311e-06  4.08581e-07        00000 
-8.96032e-06 -6.70675e-06        00000 
-1.01665e-05  1.23707e-06        00000 
 2.05766e-07 -4.49991e-06        00000 
 7.89889e-07  1.36101e-06        00000 
-6.72144e-07 -1.00664e-06        00000 
 3.17097e-06  5.40352e-06        00000 
-8.74024e-07  4.57631e-07        00000 
 3.95214e-06 -3.30492e-07        00000 
 2.07871e-06 -7.50010e-07        00000 
-1.54201e-06 -2.28534e-06        00000 
-4.23711e-06  4.29625e-06        00000 
 4.28839e-07  6.87597e-06        00000 
-2.44871e-07  4.07577e-07        00000 
-5.91250e-07  3.89845e-06        00000 
 6.50857e-06  8.69414e-07        00000 
 6.10721e-06  6.60080e-06        00000 
-6.28871e-07  6.29412e-06        00000 
-3.14801e-06 -3.55675e-06        00000 
 1.48987e-06 -5.13208e-06        00000 
-4.71183e-06  5.69998e-06        00000 
 4.12944e-07 -2.58241e-06        00000 
-2.83828e-06 -4.90743e-06        00000 
 5.73292e-06 -1.31303e-05        00000 
 2.79675e-06 -1.56182e-06        00000 
 6.45236e-07  1.31769e-06        00000 
 2.24869e-06  2.11641e-06        00000 
 4.95133e-06  3.72853e-06        00000 
 4.59363e-06  4.41480e-06        00000 
 2.51348e-06  7.34934e-06        00000 
 8.09532e-07  1.59955e-06        00000 
-6.86814e-06  5.96360e-06        00000 
 6.22146e-07  2.24354e-05        00000 
 5.28124e-06 -2.26037e-06        00000 
 6.57012e-06  1.43207e-07        00000 
-1.12280e-06  1.60231e-06        00000 
 1.46221e-06  2.06772e-06        00000 
 9.37149e-06 -2.78703e-06        00000 
 2.71175e-06  1.65003e-06        00000 
 5.45776e-07  6.81026e-06        00000 
 2.64042e-06  6.23894e-06        00000 
 2.86783e-06  3.78798e-06        00000 
 1.86494e-07  3.84952e-07        00000 
-3.34886e-06  1.75364e-06        00000 
 5.18834e-06 -1.64646e-07        00000 
 5.82647e-06 -1.35615e-06        00000 
-9.92228e-08  2.51696e-06        00000 
-2.00377e-06  1.98459e-06        00000 
-8.77643e-08 -8.67327e-07        00000 
-4.65791e-07 -6.93292e-07        00000 
-1.59133e-06  8.89695e-07        00000 
-1.27636e-06 -7.70491e-07        00000 
-5.33450e-07 -2.50873e-06        00000 
 4.96548e-06  4.15179e-06        00000 
 7.10767e-06  4.33748e-07        00000 
 1.11412e-06 -4.98579e-07        00000 
-1.12406e-06  4.21255e-08        00000 
-2.37699e-07  5.15953e-06        00000 
-2.81764e-08  5.31740e-06        00000 
 2.17102e-06  3.50324e-07        00000 
 1.95102e-06  5.00580e-07        00000 
 2.95799e-06  8.48703e-07        00000 
 1.08898e-06 -2.85235e-06        00000 
-5.25123e-07 -4.12547e-06        00000 
 6.80832e-07 -3.84384e-07        00000 
-3.44810e-07 -3.98861e-06        00000 
 2.47852e-06  3.23604e-06        00000 
-2.70950e-06  4.17021e-07        00000 
 2.94273e-06  3.05845e-06        00000 
 6.82019e-06 -2.29322e-06        00000 
-3.58272e-06 -4.51878e-06        00000 
-1.11828e-07  8.42814e-07        00000 
-4.59065e-06  2.78452e-07        00000 
 4.34141e-06 -7.09236e-07        00000 
-1.10341e-06 -7.52364e-06        00000 
-6.03675e-07 -2.68680e-06        00000 
-9.14994e-07 -7.56082e-06        00000 
-4.54268e-06 -2.32075e-06        00000 
-9.11889e-06 -3.60073e-06        00000 
-2.05796e-06  3.12976e-06        00000 
 2.40583e-06  6.77425e-06        00000 
-2.81932e-06  3.50011e-06        00000 
-1.23282e-06 -6.78983e-06        00000 
-5.23582e-07 -3.76735e-06        00000 
 1.04880e-07 -4.18140e-06        00000 
-6.41831e-06 -3.56667e-06        00000 
-5.56739e-06 -2.79650e-07        00000 
-9.32676e-07  1.19071e-06        00000 
-3.23608e-06  9.12933e-07        00000 
-2.47591e-06  3.18559e-06        00000 
-4.00944e-06  1.96146e-06        00000 
 3.46846e-06 -5.42250e-07        00000 
 5.70786e-06  4.26217e-06        00000 
 3.85812e-06  2.82693e-06        00000 
 3.00191e-06  5.12580e-06        00000 
 5.66844e-06 -5.21312e-07        00000 
-3.57496e-06 -3.14298e-06        00000 
-2.66657e-06  3.51314e-06        00000 
-9.32763e-07  2.18951e-06        00000 
-5.26059e-06  3.72960e-06        00000 
 3.67043e-07 -1.46870e-06        00000 
-8.92323e-06 -2.55616e-06        00000 
-6.22650e-06 -1.57663e-06        00000 
 3.52886e-06  2.83490e-06        00000 
-3.04148e-07  4.03508e-06        00000 
-2.15173e-07  4.46148e-06        00000 
 3.98750e-06  1.08417e-05        00000 
 1.29989e-06  1.50522e-06        00000 
 3.43817e-06  3.58727e-07        00000 
-1.02302e-06 -3.13358e-06        00000 
-1.42925e-07  1.11624e-06        00000 
 3.35427e-06  6.77091e-06        00000 
 7.81625e-06  4.76652e-06        00000 
 6.55893e-06 -1.15465e-06        00000 
 5.53235e-06  3.71173e-06        00000 
-3.39205e-06  3.75798e-06        00000 
-2.04515e-07  5.64311e-06        00000 
-2.45628e-06  9.88400e-07        00000 
 3.57825e-06  1.86219e-06        00000 
 3.44151e-06  8.24555e-06        00000 
-1.43890e-06  6.05155e-06        00000 
-5.40987e-07  7.20765e-06        00000 
 3.87702e-06  1.13177e-05        00000 
 1.50981e-06 -1.54994e-06        00000 
 2.88558e-22 -5.72644e-22        00000 
 6.73469e-07  5.75980e-07        00000 
 2.02154e-06 -2.92089e-06        00000 
 3.01299e-22  1.72855e-22        00000 
-1.92421e-06 -1.30672e-06        00000 
 8.22286e-07 -2.46315e-06        00000 
-4.76456e-22 -2.38228e-22        00000 
-6.54528e-06 -2.22834e-06        00000 
 1.25978e-06 -7.57029e-06        00000 
 1.63991e-22  2.23534e-22        00000 
-3.97307e-06 -4.53991e-06        00000 
 4.91148e-06 -2.39139e-06        00000 
 2.38228e-22  4.76456e-22        00000 
 1.67889e-06  1.65975e-06        00000 
 3.01351e-06 -5.88574e-07        00000 
-1.54289e-22 -2.50032e-22        00000 
-6.42902e-07 -3.16328e-06        00000 
-1.95928e-06 -3.09993e-06        00000 
-1.78671e-22 -2.38228e-22        00000 
-1.03213e-06  3.19379e-06        00000 
 2.30326e-06 -3.18656e-06        00000 
-7.14684e-22 -1.48893e-23        00000 
-2.25230e-06  1.94158e-06        00000 
-2.79572e-06  1.13755e-07        00000 
 4.89443e-22 -4.97642e-22        00000 
-2.16903e-06  2.43845e-06        00000 
-2.83952e-06 -5.29615e-06        00000 
-5.35391e-06 -1.02156e-06        00000 
-3.77841e-06 -2.91515e-06        00000 
-3.79058e-07  5.24993e-06        00000 
 8.92113e-07 -1.48917e-06        00000 
 1.25817e-06  6.49026e-06        00000 
-7.01775e-06  8.83138e-07        00000 
-2.96494e-06 -5.48386e-06        00000 
-2.08967e-06  2.91238e-06        00000 
 6.67357e-07 -2.75300e-06        00000 
-2.18183e-06 -1.69459e-07        00000 
 4.17458e-06 -1.01096e-06        00000 
-4.72756e-06 -3.75078e-06        00000 
-6.18918e-06 -2.26914e-06        00000 
-1.33816e-06  5.99964e-06        00000 
-3.35878e-06  8.67237e-06        00000 
-1.58893e-06 -3.14984e-06        00000 
-3.98477e-08  1.47605e-06        00000 
-3.11371e-06  3.72131e-06        00000 
-1.95460e-06 -9.96434e-06        00000 
-2.19706e-06  3.61519e-06        00000 
-3.06653e-06  3.16673e-06        00000 
-2.67432e-06  3.33460e-06        00000 
 1.63164e-06  5.16753e-07        00000 
-3.25149e-06  8.31444e-08        00000 
-4.33757e-06  5.36090e-06        00000 
-1.49282e-06 -1.97918e-07        00000 
-3.21560e-06  6.23979e-06        00000 
-1.31105e-07 -1.03956e-06        00000 
 6.73414e-06 -4.71964e-06        00000 
 9.21328e-07 -6.01767e-07        00000 
 3.03829e-06 -4.77633e-06        00000 
 8.67833e-07 -2.09505e-06        00000 
-4.79993e-06 -5.47438e-06        00000 
-3.50020e-06 -4.06430e-06        00000 
 9.83577e-07 -3.28760e-07        00000 
 1.91693e-06 -3.79583e-07        00000 
 5.06339e-06  7.93289e-07        00000 
 6.07237e-08 -1.46545e-06        00000 
-2.17116e-07 -4.87528e-06        00000 
 7.92957e-06  1.81618e-06        00000 
-9.33063e-06 -2.40275e-07        00000 
 1.08365e-06 -2.68115e-06        00000 
 4.22199e-06  3.15506e-06        00000 
-2.28790e-06  1.28450e-06        00000 
-7.19880e-06  1.46620e-06        00000 
 9.33762e-07 -3.69372e-06        00000 
-4.98124e-06 -6.58532e-06        00000 
-5.77331e-06  1.45515e-06        00000 
 3.59978e-06 -3.85472e-06        00000 
-4.78127e-06 -3.57575e-07        00000 
 6.97247e-07 -8.18507e-07        00000 
 4.55902e-07  1.02573e-05        00000 
 6.45580e-06 -4.40887e-06        00000 
 4.65181e-06 -5.10986e-06        00000 
-2.67702e-06 -6.75683e-07        00000 
 1.47073e-06 -6.43882e-06        00000 
 1.67842e-06  3.42849e-06        00000 
 1.86860e-06 -2.86798e-06        00000 
-1.47917e-06  2.36071e-06        00000 
-1.23635e-06 -4.06042e-06        00000 
-5.08645e-06 -2.06286e-06        00000 
 3.40457e-07  2.44812e-06        00000 
 4.34993e-06  3.87554e-06        00000 
-3.41222e-06  2.74981e-06        00000 
 2.32623e-06 -4.80352e-06        00000 
 3.84320e-06 -3.31149e-06        00000 
-4.41799e-06 -9.02502e-07        00000 
-1.95790e-06  1.72221e-07        00000 
 2.82031e-06 -7.37139e-09        00000 
-4.15831e-06 -8.01914e-07        00000 
-1.04332e-06 -6.72642e-06        00000 
 5.51903e-07 -3.00022e-07        00000 
-7.45166e-06 -6.27128e-06        00000 
-1.02045e-06 -1.35341e-06        00000 
-9.30508e-06 -5.54430e-06        00000 
-8.49558e-07  2.02431e-07        00000 
 5.39424e-07  4.49985e-06        00000 
 1.51953e-06 -3.55485e-06        00000 
-7.29845e-06  2.58796e-06        00000 
 9.37526e-06  1.21949e-05        00000 
 1.54710e-06 -1.34987e-05        00000 
-4.74398e-06 -2.76581e-06        00000 
 6.93655e-08  2.05538e-06        00000 
-1.54037e-06 -3.22399e-07        00000 
 6.72014e-06  4.02607e-06        00000 
 1.75551e-06  4.01093e-06        00000 
-3.62574e-06 -1.11634e-06        00000 
-1.25724e-06  2.88703e-06        00000 
-1.49491e-06  6.91453e-06        00000 
-1.81453e-06  3.13898e-06        00000 
 3.69966e-06  8.50288e-06        00000 
 3.13320e-06 -3.87434e-06        00000 
-4.18580e-06 -2.09266e-06        00000 
-6.84584e-06  2.12453e-06        00000 
-4.44762e-06 -2.40657e-06        00000 
-1.29236e-06 -3.35670e-06        00000 
-7.57486e-06 -1.56912e-06        00000 
-1.61821e-06 -5.34025e-06        00000 
 1.15325e-06 -9.22355e-07        00000 
-4.43709e-06  2.01519e-06        00000 
-3.26163e-08 -3.32359e-06        00000 
 2.63822e-07  4.28375e-06        00000 
-1.15936e-05  4.56007e-06        00000 
 4.40265e-06 -5.33456e-07        00000 
 1.12192e-06 -4.74499e-06        00000 
-5.35429e-06  3.96192e-06        00000 
 9.12224e-06  1.53031e-06        00000 
 4.28869e-06  1.85936e-06        00000 
-2.42474e-06 -8.80965e-07        00000 
-1.45819e-06  1.21815e-05        00000 
-1.00269e-06 -3.68426e-06        00000 
 5.38226e-07 -6.31470e-06        00000 
-1.68108e-06  6.71593e-06        00000 
 1.08363e-06  3.34243e-07        00000 
 2.52842e-06  3.98805e-06        00000 
-3.37485e-06  3.91355e-06        00000 
-2.41770e-06  1.60502e-06        00000 
 2.63452e-06  5.34007e-06        00000 
 2.70964e-06  7.70165e-07        00000 
-1.57255e-06  7.60687e-07        00000 
 1.58353e-06  5.93554e-06        00000 
-3.28869e-06  1.01017e-06        00000 
-5.37747e-06 -1.91716e-06        00000 
 2.02329e-06  4.95197e-06        00000 
 1.31640e-06 -7.57968e-06        00000 
-1.16281e-06  9.06264e-07        00000 
 1.64684e-06  9.20449e-06        00000 
-1.82698e-07 -7.09833e-07        00000 
-3.58930e-06 -3.53002e-06        00000 
-6.13724e-06  4.61664e-06        00000 
-4.18913e-06 -7.72759e-07        00000 
 2.34956e-06 -4.02841e-06        00000 
-8.87065e-06  1.63285e-06        00000 
-1.53838e-06  9.48649e-07        00000 
-1.56808e-06 -8.80959e-06        00000 
-4.45712e-06  1.94599e-06        00000 
 6.88782e-07  7.11105e-06        00000 
-4.33482e-06  3.30832e-06        00000 
-1.66999e-06  8.24769e-06        00000 
-1.62761e-06 -3.91131e-06        00000 
-1.36940e-07  3.34254e-06        00000 
-7.77789e-06  6.58156e-06        00000 
 1.81892e-06  1.34958e-06        00000 
-2.93565e-06  5.59785e-07        00000 
-4.55004e-06 -3.24275e-06        00000 
-1.56710e-06 -2.17307e-06        00000 
-4.39484e-06 -1.11861e-06        00000 
-1.67898e-06  1.67260e-06        00000 
 5.56410e-06 -1.17295e-06        00000 
-7.09244e-06 -1.96837e-06        00000 
-1.62262e-07  2.02386e-06        00000 
-6.21568e-06  6.47968e-07        00000 
 1.14199e-06  1.78805e-06        00000 
 2.34510e-07  4.37684e-07        00000 
-9.23584e-07  4.77336e-06        00000 
-4.95389e-06  3.24106e-07        00000 
-6.35509e-06 -1.33475e-06        00000 
-2.72525e-07  4.80582e-06        00000 
 8.68063e-07  7.19737e-06        00000 
-3.76146e-06 -2.89639e-06        00000 
 5.32806e-06  6.20898e-06        00000 
 2.70858e-06  1.10712e-07        00000 
-1.20199e-06  4.55535e-06        00000 
-8.50884e-07  9.50342e-06        00000 
 2.34354e-06  5.76858e-06        00000 
 1.30406e-06  5.44734e-06        00000 
 3.18548e-06  7.67191e-06        00000 
-2.00688e-06  2.24238e-07        00000 
 4.93295e-06  5.17003e-06        00000 
 5.79104e-08 -1.12503e-07        00000 
 2.61894e-06  1.96318e-06        00000 
 1.87626e-06  4.54892e-06        00000 
 2.41004e-06  4.77835e-06        00000 
-1.47107e-05  6.97355e-07        00000 
-2.62456e-06 -2.62788e-06        00000 
-4.33962e-06  6.02966e-06        00000 
-6.40886e-06  4.56586e-06        00000 
 3.58427e-07 -2.49206e-06        00000 
-2.40576e-06  6.86084e-06        00000 
-4.49369e-06 -2.94353e-07        00000 
 1.54049e-06 -2.98389e-06        00000 
 3.09498e-07  9.93443e-06        00000 
-3.22778e-06  3.17394e-06        00000 
-4.32480e-06 -2.91767e-06        00000 
 2.38088e-07  1.98366e-07        00000 
-3.16843e-06  7.64821e-06        00000 
 5.28523e-06  4.86765e-06        00000 
 1.48427e-06  2.57284e-06        00000 
 1.01088e-06  1.48045e-05        00000 
 2.40710e-06  1.14613e-06        00000 
 4.29354e-06  1.49080e-05        00000 
 3.31537e-06 -6.48348e-06        00000 
-1.22635e-06  1.25179e-06        00000 
-2.05266e-06  2.57850e-06        00000 
 9.42157e-07 -3.64544e-06        00000 
 5.51590e-07  6.09399e-06        00000 
 1.61750e-06  7.40539e-06        00000 
-2.82602e-06  3.45991e-06        00000 
-2.68070e-06  1.80096e-06        00000 
-2.35552e-06  3.15915e-06        00000 
 2.32389e-06  7.66553e-06        00000 
 2.70408e-06  5.51942e-06        00000 
 1.98053e-06  4.04881e-06        00000 
 7.92346e-08  3.91564e-06        00000 
-2.30572e-06 -6.27909e-06        00000 
 2.51644e-06 -4.11326e-07        00000 
 4.66962e-07 -6.54003e-07        00000 
 4.28337e-06 -2.08989e-06        00000 
-4.03250e-06 -1.76613e-06        00000 
 3.00516e-06  1.88497e-06        00000 
 2.04375e-06  3.39640e-06        00000 
-1.19725e-06  2.85308e-06        00000 
 6.75514e-06 -8.33099e-06        00000 
 4.56245e-06 -2.30805e-06        00000 
-2.24631e-06  1.37626e-05        00000 
 4.64638e-06 -1.98110e-05        00000 
-3.28633e-06 -9.44069e-07        00000 
-3.11402e-06 -3.13686e-06        00000 
 5.59819e-06 -4.87685e-06        00000 
 5.60314e-06  6.15045e-06        00000 
 2.72558e-09 -3.28665e-07        00000 
 1.92663e-06  1.72342e-06        00000 
 1.51132e-08 -4.27664e-06        00000 
-1.98830e-06 -2.80896e-06        00000 
 3.00191e-07 -2.43295e-07        00000 
-2.61095e-06  2.62584e-06        00000 
-8.15051e-07  4.03929e-06        00000 
-6.25705e-07  1.58686e-06        00000 
 3.93955e-06 -2.04700e-06        00000 
-3.41413e-06 -8.68627e-07        00000 
-2.50536e-06  9.95655e-07        00000 
 7.00975e-06  3.04271e-06        00000 
-2.03480e-06  7.76531e-06        00000 
-2.28926e-08  1.67783e-06        00000 
 9.67600e-07 -2.14741e-06        00000 
 3.50949e-06 -6.81351e-06        00000 
 1.44032e-06 -1.42366e-06        00000 
 2.21590e-06 -3.61379e-06        00000 
-1.37403e-06  8.85887e-07        00000 
-2.56471e-06 -2.15849e-06        00000 
-3.07304e-06 -4.05886e-07        00000 
 4.84783e-07 -2.07856e-06        00000 
-3.84630e-06  2.82022e-06        00000 
-1.50686e-06  5.45028e-07        00000 
-5.03509e-06 -9.36409e-07        00000 
-4.81483e-06 -1.05252e-06        00000 
-4.73275e-07  1.97074e-06        00000 
-1.58673e-06  2.12751e-07        00000 
-3.22833e-06 -4.67797e-06        00000 
 1.81485e-06  1.60544e-07        00000 
-8.59638e-07 -7.22618e-06        00000 
 8.86666e-06  9.93122e-06        00000 
-1.05616e-06  2.79957e-06        00000 
-3.19276e-07  1.69747e-07        00000 
 5.23563e-07 -1.21229e-06        00000 
-1.77467e-07  3.62228e-06        00000 
-3.56973e-06  4.86437e-06        00000 
 6.98848e-06  3.71918e-06        00000 
-1.06877e-06  7.77142e-07        00000 
 5.16140e-06 -1.93479e-06        00000 
-9.75440e-07  3.13857e-06        00000 
 6.98783e-06  5.04196e-06        00000 
-2.75481e-06  3.28237e-06        00000 
 4.90581e-07  5.83102e-06        00000 
 1.32208e-06  4.01760e-06        00000 
-1.06503e-08  5.98981e-06        00000 
 3.85534e-06  1.66555e-06        00000 
 5.02706e-06 -8.72383e-07        00000 
 2.90624e-06  4.14015e-06        00000 
-9.54213e-07 -4.18282e-06        00000 
-1.45052e-06  1.21699e-05        00000 
-7.94883e-07 -2.94133e-06        00000 
 1.03828e-06  5.01262e-06        00000 
-3.92746e-06  7.23245e-06        00000 
-4.22283e-06  3.51001e-06        00000 
-2.09793e-06  3.97809e-06        00000 
 1.00147e-06 -2.00887e-06        00000 
 1.16487e-06  1.04311e-06        00000 
 4.54010e-06  6.10572e-07        00000 
 4.16590e-06  4.09000e-06        00000 
 2.47736e-06  4.35607e-06        00000 
-9.86050e-06  3.06621e-06        00000 
 1.31398e-06 -2.32328e-06        00000 
-1.32498e-06  3.67206e-06        00000 
-2.31507e-06  3.27703e-06        00000 
 1.92159e-07 -1.59867e-06        00000 
 1.04280e-06  1.12687e-05        00000 
-3.33759e-06 -1.07686e-05        00000 
-4.54294e-06  5.11120e-06        00000 