<?xml version="1.0" encoding="utf-8"?>
<VTKFile byte_order="LittleEndian" type="UnstructuredGrid" version="0.1">
   <UnstructuredGrid>
      <Piece NumberOfCells="1296" NumberOfPoints="685">
         <Points>
            <DataArray Name="Points" NumberOfComponents="3" format="ascii" type="Float32">
0.0000 0.0000 0.0000
0.0000 0.1111 0.0000
0.0000 0.2222 0.0000
0.0000 0.3333 0.0000
0.0000 0.4444 0.0000
0.0000 0.5556 0.0000
0.0000 0.6667 0.0000
0.0000 0.7778 0.0000
0.0000 0.8889 0.0000
0.0000 1.0000 0.0000
0.2222 0.0000 0.0000
0.2222 0.1111 0.0000
0.2222 0.2222 0.0000
0.2222 0.3333 0.0000
0.2222 0.4444 0.0000
0.2222 0.5556 0.0000
0.2222 0.6667 0.0000
0.2222 0.7778 0.0000
0.2222 0.8889 0.0000
0.2222 1.0000 0.0000
0.4444 0.0000 0.0000
0.4444 0.1111 0.0000
0.4444 0.2222 0.0000
0.4444 0.3333 0.0000
0.4444 0.4444 0.0000
0.4444 0.5556 0.0000
0.4444 0.6667 0.0000
0.4444 0.7778 0.0000
0.4444 0.8889 0.0000
0.4444 1.0000 0.0000
0.6667 0.0000 0.0000
0.6667 0.1111 0.0000
0.6667 0.2222 0.0000
0.6667 0.3333 0.0000
0.6667 0.4444 0.0000
0.6667 0.5556 0.0000
0.6667 0.6667 0.0000
0.6667 0.7778 0.0000
0.6667 0.8889 0.0000
0.6667 1.0000 0.0000
0.8889 0.0000 0.0000
0.8889 0.1111 0.0000
0.8889 0.2222 0.0000
0.8889 0.3333 0.0000
0.8889 0.4444 0.0000
0.8889 0.5556 0.0000
0.8889 0.6667 0.0000
0.8889 0.7778 0.0000
0.8889 0.8889 0.0000
0.8889 1.0000 0.0000
1.1111 0.0000 0.0000
1.1111 0.1111 0.0000
1.1111 0.2222 0.0000
1.1111 0.3333 0.0000
1.1111 0.4444 0.0000
1.1111 0.5556 0.0000
1.1111 0.6667 0.0000
1.1111 0.7778 0.0000
1.1111 0.8889 0.0000
1.1111 1.0000 0.0000
1.3333 0.0000 0.0000
1.3333 0.1111 0.0000
1.3333 0.2222 0.0000
1.3333 0.3333 0.0000
1.3333 0.4444 0.0000
1.3333 0.5556 0.0000
1.3333 0.6667 0.0000
1.3333 0.7778 0.0000
1.3333 0.8889 0.0000
1.3333 1.0000 0.0000
1.5556 0.0000 0.0000
1.5556 0.1111 0.0000
1.5556 0.2222 0.0000
1.5556 0.3333 0.0000
1.5556 0.4444 0.0000
1.5556 0.5556 0.0000
1.5556 0.6667 0.0000
1.5556 0.7778 0.0000
1.5556 0.8889 0.0000
1.5556 1.0000 0.0000
1.7778 0.0000 0.0000
1.7778 0.1111 0.0000
1.7778 0.2222 0.0000
1.7778 0.3333 0.0000
1.7778 0.4444 0.0000
1.7778 0.5556 0.0000
1.7778 0.6667 0.0000
1.7778 0.7778 0.0000
1.7778 0.8889 0.0000
1.7778 1.0000 0.0000
2.0000 0.0000 0.0000
2.0000 0.1111 0.0000
2.0000 0.2222 0.0000
2.0000 0.3333 0.0000
2.0000 0.4444 0.0000
2.0000 0.5556 0.0000
2.0000 0.6667 0.0000
2.0000 0.7778 0.0000
2.0000 0.8889 0.0000
2.0000 1.0000 0.0000
0.1111 0.0556 0.0000
0.1111 0.1667 0.0000
0.1111 0.2778 0.0000
0.1111 0.3889 0.0000
0.1111 0.5000 0.0000
0.1111 0.6111 0.0000
0.1111 0.7222 0.0000
0.1111 0.8333 0.0000
0.1111 0.9444 0.0000
0.3333 0.0556 0.0000
0.3333 0.1667 0.0000
0.3333 0.2778 0.0000
0.3333 0.3889 0.0000
0.3333 0.5000 0.0000
0.3333 0.6111 0.0000
0.3333 0.7222 0.0000
0.3333 0.8333 0.0000
0.3333 0.9444 0.0000
0.5556 0.0556 0.0000
0.5556 0.1667 0.0000
0.5556 0.2778 0.0000
0.5556 0.3889 0.0000
0.5556 0.5000 0.0000
0.5556 0.6111 0.0000
0.5556 0.7222 0.0000
0.5556 0.8333 0.0000
0.5556 0.9444 0.0000
0.7778 0.0556 0.0000
0.7778 0.1667 0.0000
0.7778 0.2778 0.0000
0.7778 0.3889 0.0000
0.7778 0.5000 0.0000
0.7778 0.6111 0.0000
0.7778 0.7222 0.0000
0.7778 0.8333 0.0000
0.7778 0.9444 0.0000
1.0000 0.0556 0.0000
1.0000 0.1667 0.0000
1.0000 0.2778 0.0000
1.0000 0.3889 0.0000
1.0000 0.5000 0.0000
1.0000 0.6111 0.0000
1.0000 0.7222 0.0000
1.0000 0.8333 0.0000
1.0000 0.9444 0.0000
1.2222 0.0556 0.0000
1.2222 0.1667 0.0000
1.2222 0.2778 0.0000
1.2222 0.3889 0.0000
1.2222 0.5000 0.0000
1.2222 0.6111 0.0000
1.2222 0.7222 0.0000
1.2222 0.8333 0.0000
1.2222 0.9444 0.0000
1.4444 0.0556 0.0000
1.4444 0.1667 0.0000
1.4444 0.2778 0.0000
1.4444 0.3889 0.0000
1.4444 0.5000 0.0000
1.4444 0.6111 0.0000
1.4444 0.7222 0.0000
1.4444 0.8333 0.0000
1.4444 0.9444 0.0000
1.6667 0.0556 0.0000
1.6667 0.1667 0.0000
1.6667 0.2778 0.0000
1.6667 0.3889 0.0000
1.6667 0.5000 0.0000
1.6667 0.6111 0.0000
1.6667 0.7222 0.0000
1.6667 0.8333 0.0000
1.6667 0.9444 0.0000
1.8889 0.0556 0.0000
1.8889 0.1667 0.0000
1.8889 0.2778 0.0000
1.8889 0.3889 0.0000
1.8889 0.5000 0.0000
1.8889 0.6111 0.0000
1.8889 0.7222 0.0000
1.8889 0.8333 0.0000
1.8889 0.9444 0.0000
0.0000 0.0556 0.0000
0.0556 0.0278 0.0000
0.0556 0.0833 0.0000
0.0000 0.1667 0.0000
0.0556 0.1389 0.0000
0.0556 0.1944 0.0000
0.0000 0.2778 0.0000
0.0556 0.2500 0.0000
0.0556 0.3056 0.0000
0.0000 0.3889 0.0000
0.0556 0.3611 0.0000
0.0556 0.4167 0.0000
0.0000 0.5000 0.0000
0.0556 0.4722 0.0000
0.0556 0.5278 0.0000
0.0000 0.6111 0.0000
0.0556 0.5833 0.0000
0.0556 0.6389 0.0000
0.0000 0.7222 0.0000
0.0556 0.6944 0.0000
0.0556 0.7500 0.0000
0.0000 0.8333 0.0000
0.0556 0.8056 0.0000
0.0556 0.8611 0.0000
0.0000 0.9444 0.0000
0.0556 0.9167 0.0000
0.0556 0.9722 0.0000
0.2222 0.0556 0.0000
0.2778 0.0278 0.0000
0.2778 0.0833 0.0000
0.2222 0.1667 0.0000
0.2778 0.1389 0.0000
0.2778 0.1944 0.0000
0.2222 0.2778 0.0000
0.2778 0.2500 0.0000
0.2778 0.3056 0.0000
0.2222 0.3889 0.0000
0.2778 0.3611 0.0000
0.2778 0.4167 0.0000
0.2222 0.5000 0.0000
0.2778 0.4722 0.0000
0.2778 0.5278 0.0000
0.2222 0.6111 0.0000
0.2778 0.5833 0.0000
0.2778 0.6389 0.0000
0.2222 0.7222 0.0000
0.2778 0.6944 0.0000
0.2778 0.7500 0.0000
0.2222 0.8333 0.0000
0.2778 0.8056 0.0000
0.2778 0.8611 0.0000
0.2222 0.9444 0.0000
0.2778 0.9167 0.0000
0.2778 0.9722 0.0000
0.4444 0.0556 0.0000
0.5000 0.0278 0.0000
0.5000 0.0833 0.0000
0.4444 0.1667 0.0000
0.5000 0.1389 0.0000
0.5000 0.1944 0.0000
0.4444 0.2778 0.0000
0.5000 0.2500 0.0000
0.5000 0.3056 0.0000
0.4444 0.3889 0.0000
0.5000 0.3611 0.0000
0.5000 0.4167 0.0000
0.4444 0.5000 0.0000
0.5000 0.4722 0.0000
0.5000 0.5278 0.0000
0.4444 0.6111 0.0000
0.5000 0.5833 0.0000
0.5000 0.6389 0.0000
0.4444 0.7222 0.0000
0.5000 0.6944 0.0000
0.5000 0.7500 0.0000
0.4444 0.8333 0.0000
0.5000 0.8056 0.0000
0.5000 0.8611 0.0000
0.4444 0.9444 0.0000
0.5000 0.9167 0.0000
0.5000 0.9722 0.0000
0.6667 0.0556 0.0000
0.7222 0.0278 0.0000
0.7222 0.0833 0.0000
0.6667 0.1667 0.0000
0.7222 0.1389 0.0000
0.7222 0.1944 0.0000
0.6667 0.2778 0.0000
0.7222 0.2500 0.0000
0.7222 0.3056 0.0000
0.6667 0.3889 0.0000
0.7222 0.3611 0.0000
0.7222 0.4167 0.0000
0.6667 0.5000 0.0000
0.7222 0.4722 0.0000
0.7222 0.5278 0.0000
0.6667 0.6111 0.0000
0.7222 0.5833 0.0000
0.7222 0.6389 0.0000
0.6667 0.7222 0.0000
0.7222 0.6944 0.0000
0.7222 0.7500 0.0000
0.6667 0.8333 0.0000
0.7222 0.8056 0.0000
0.7222 0.8611 0.0000
0.6667 0.9444 0.0000
0.7222 0.9167 0.0000
0.7222 0.9722 0.0000
0.8889 0.0556 0.0000
0.9444 0.0278 0.0000
0.9444 0.0833 0.0000
0.8889 0.1667 0.0000
0.9444 0.1389 0.0000
0.9444 0.1944 0.0000
0.8889 0.2778 0.0000
0.9444 0.2500 0.0000
0.9444 0.3056 0.0000
0.8889 0.3889 0.0000
0.9444 0.3611 0.0000
0.9444 0.4167 0.0000
0.8889 0.5000 0.0000
0.9444 0.4722 0.0000
0.9444 0.5278 0.0000
0.8889 0.6111 0.0000
0.9444 0.5833 0.0000
0.9444 0.6389 0.0000
0.8889 0.7222 0.0000
0.9444 0.6944 0.0000
0.9444 0.7500 0.0000
0.8889 0.8333 0.0000
0.9444 0.8056 0.0000
0.9444 0.8611 0.0000
0.8889 0.9444 0.0000
0.9444 0.9167 0.0000
0.9444 0.9722 0.0000
1.1111 0.0556 0.0000
1.1667 0.0278 0.0000
1.1667 0.0833 0.0000
1.1111 0.1667 0.0000
1.1667 0.1389 0.0000
1.1667 0.1944 0.0000
1.1111 0.2778 0.0000
1.1667 0.2500 0.0000
1.1667 0.3056 0.0000
1.1111 0.3889 0.0000
1.1667 0.3611 0.0000
1.1667 0.4167 0.0000
1.1111 0.5000 0.0000
1.1667 0.4722 0.0000
1.1667 0.5278 0.0000
1.1111 0.6111 0.0000
1.1667 0.5833 0.0000
1.1667 0.6389 0.0000
1.1111 0.7222 0.0000
1.1667 0.6944 0.0000
1.1667 0.7500 0.0000
1.1111 0.8333 0.0000
1.1667 0.8056 0.0000
1.1667 0.8611 0.0000
1.1111 0.9444 0.0000
1.1667 0.9167 0.0000
1.1667 0.9722 0.0000
1.3333 0.0556 0.0000
1.3889 0.0278 0.0000
1.3889 0.0833 0.0000
1.3333 0.1667 0.0000
1.3889 0.1389 0.0000
1.3889 0.1944 0.0000
1.3333 0.2778 0.0000
1.3889 0.2500 0.0000
1.3889 0.3056 0.0000
1.3333 0.3889 0.0000
1.3889 0.3611 0.0000
1.3889 0.4167 0.0000
1.3333 0.5000 0.0000
1.3889 0.4722 0.0000
1.3889 0.5278 0.0000
1.3333 0.6111 0.0000
1.3889 0.5833 0.0000
1.3889 0.6389 0.0000
1.3333 0.7222 0.0000
1.3889 0.6944 0.0000
1.3889 0.7500 0.0000
1.3333 0.8333 0.0000
1.3889 0.8056 0.0000
1.3889 0.8611 0.0000
1.3333 0.9444 0.0000
1.3889 0.9167 0.0000
1.3889 0.9722 0.0000
1.5556 0.0556 0.0000
1.6111 0.0278 0.0000
1.6111 0.0833 0.0000
1.5556 0.1667 0.0000
1.6111 0.1389 0.0000
1.6111 0.1944 0.0000
1.5556 0.2778 0.0000
1.6111 0.2500 0.0000
1.6111 0.3056 0.0000
1.5556 0.3889 0.0000
1.6111 0.3611 0.0000
1.6111 0.4167 0.0000
1.5556 0.5000 0.0000
1.6111 0.4722 0.0000
1.6111 0.5278 0.0000
1.5556 0.6111 0.0000
1.6111 0.5833 0.0000
1.6111 0.6389 0.0000
1.5556 0.7222 0.0000
1.6111 0.6944 0.0000
1.6111 0.7500 0.0000
1.5556 0.8333 0.0000
1.6111 0.8056 0.0000
1.6111 0.8611 0.0000
1.5556 0.9444 0.0000
1.6111 0.9167 0.0000
1.6111 0.9722 0.0000
1.7778 0.0556 0.0000
1.8333 0.0278 0.0000
1.8333 0.0833 0.0000
1.7778 0.1667 0.0000
1.8333 0.1389 0.0000
1.8333 0.1944 0.0000
1.7778 0.2778 0.0000
1.8333 0.2500 0.0000
1.8333 0.3056 0.0000
1.7778 0.3889 0.0000
1.8333 0.3611 0.0000
1.8333 0.4167 0.0000
1.7778 0.5000 0.0000
1.8333 0.4722 0.0000
1.8333 0.5278 0.0000
1.7778 0.6111 0.0000
1.8333 0.5833 0.0000
1.8333 0.6389 0.0000
1.7778 0.7222 0.0000
1.8333 0.6944 0.0000
1.8333 0.7500 0.0000
1.7778 0.8333 0.0000
1.8333 0.8056 0.0000
1.8333 0.8611 0.0000
1.7778 0.9444 0.0000
1.8333 0.9167 0.0000
1.8333 0.9722 0.0000
0.1111 0.1111 0.0000
0.1667 0.0833 0.0000
0.1111 0.2222 0.0000
0.1667 0.1944 0.0000
0.1111 0.3333 0.0000
0.1667 0.3056 0.0000
0.1111 0.4444 0.0000
0.1667 0.4167 0.0000
0.1111 0.5556 0.0000
0.1667 0.5278 0.0000
0.1111 0.6667 0.0000
0.1667 0.6389 0.0000
0.1111 0.7778 0.0000
0.1667 0.7500 0.0000
0.1111 0.8889 0.0000
0.1667 0.8611 0.0000
0.1111 1.0000 0.0000
0.1667 0.9722 0.0000
0.3333 0.1111 0.0000
0.3889 0.0833 0.0000
0.3333 0.2222 0.0000
0.3889 0.1944 0.0000
0.3333 0.3333 0.0000
0.3889 0.3056 0.0000
0.3333 0.4444 0.0000
0.3889 0.4167 0.0000
0.3333 0.5556 0.0000
0.3889 0.5278 0.0000
0.3333 0.6667 0.0000
0.3889 0.6389 0.0000
0.3333 0.7778 0.0000
0.3889 0.7500 0.0000
0.3333 0.8889 0.0000
0.3889 0.8611 0.0000
0.3333 1.0000 0.0000
0.3889 0.9722 0.0000
0.5556 0.1111 0.0000
[...]
         <PointData>
            <DataArray Name="fValues" NumberOfComponents="3" format="ascii" type="Float64">
-2.22602e-27 -1.78081e-26        00000 
-7.20618e-27 -1.00886e-26        00000 
-2.81432e-27  1.00865e-26        00000 
-4.30598e-27 -1.53101e-26        00000 
 1.32949e-26  3.88941e-27        00000 
       00000  1.53101e-26        00000 
 7.63985e-27 -4.98316e-27        00000 
 5.73611e-27 -9.56018e-28        00000 
-1.53769e-26 -1.92211e-27        00000 
-1.11301e-27 -4.45203e-27        00000 
-3.34119e-11  1.59702e-10        00000 
 1.75113e-11  8.94822e-11        00000 
 3.04867e-11  3.78830e-11        00000 
 6.85763e-12 -8.24032e-11        00000 
-8.12932e-11 -2.67759e-11        00000 
-4.89662e-11 -4.06812e-11        00000 
 1.60849e-11  2.65024e-11        00000 
-1.55541e-10 -3.63123e-11        00000 
-7.66356e-11 -7.86513e-11        00000 
 6.93268e-12 -6.51781e-11        00000 
-3.83888e-11  5.88614e-11        00000 
-4.34497e-12  1.13559e-10        00000 
 8.99867e-11 -1.74278e-11        00000 
-2.43539e-11 -1.05516e-12        00000 
-8.23768e-11 -4.83489e-11        00000 
 3.86216e-11  1.71827e-11        00000 
 8.50875e-11 -3.21059e-11        00000 
 2.49720e-11 -1.30365e-10        00000 
-5.04201e-11 -4.91998e-11        00000 
-1.27400e-11 -9.38627e-12        00000 
 5.81046e-12  3.27873e-10        00000 
-3.69909e-11  3.66036e-11        00000 
 4.45652e-11  5.13367e-12        00000 
 4.54676e-11  2.02505e-11        00000 
-4.32081e-11 -3.01767e-11        00000 
 2.31935e-10  1.61769e-10        00000 
 6.64144e-11  1.66125e-11        00000 
-6.24141e-11  2.89191e-12        00000 
 1.45548e-10  5.79590e-11        00000 
 1.72804e-11 -1.11172e-10        00000 
-2.85620e-11  2.38117e-10        00000 
 1.15818e-11  6.87308e-11        00000 
 1.23379e-10 -6.40732e-11        00000 
 1.44240e-10 -8.87184e-11        00000 
-3.53708e-11 -1.11495e-10        00000 
 1.59091e-10  1.20203e-10        00000 
 4.98801e-11  3.66249e-11        00000 
 1.60725e-11 -1.36069e-12        00000 
 4.16662e-11  4.27960e-11        00000 
 5.27312e-11 -2.80295e-10        00000 
 1.07850e-10  1.18405e-10        00000 
 5.85203e-11  6.64357e-11        00000 
 2.26237e-11  5.92166e-11        00000 
 7.71507e-11  7.81242e-11        00000 
-7.82876e-11 -1.43316e-11        00000 
 8.18403e-11  1.50095e-10        00000 
 1.28281e-10  1.91491e-11        00000 
 6.77005e-11  5.70779e-11        00000 
 9.89075e-12 -3.42126e-11        00000 
-4.78906e-12 -1.13147e-10        00000 
 5.84421e-12 -1.86219e-10        00000 
 3.55271e-12  4.93685e-11        00000 
 1.31763e-10  8.04334e-12        00000 
-6.61089e-11  8.45475e-11        00000 
 7.44933e-11  5.64242e-11        00000 
 6.96900e-11  1.32474e-10        00000 
 6.09930e-11  1.54763e-10        00000 
 1.06894e-10  2.97860e-11        00000 
 1.89175e-10  1.77508e-10        00000 
 1.28523e-10  1.62345e-10        00000 
-5.05054e-11  3.41061e-11        00000 
 6.77858e-11  8.75957e-11        00000 
 7.99218e-11  1.52482e-11        00000 
 1.01522e-10  6.82405e-11        00000 
 2.74269e-11  8.68710e-11        00000 
-2.61764e-11  6.61515e-11        00000 
-5.08464e-11 -6.99458e-11        00000 
 8.52936e-11 -9.78417e-11        00000 
 8.23093e-11 -5.95435e-11        00000 
-8.65263e-11 -5.12728e-11        00000 
-3.64153e-11  8.92442e-12        00000 
-7.74776e-11  1.96863e-10        00000 
-1.10845e-10  5.26228e-11        00000 
-1.73657e-10  7.11680e-11        00000 
-1.03910e-10  7.53175e-11        00000 
-1.89857e-11  1.18092e-11        00000 
 1.04023e-10  4.55316e-11        00000 
-2.44427e-11 -9.74865e-12        00000 
 7.10543e-12  1.05160e-10        00000 
-1.38527e-10  1.71326e-10        00000 
-6.46807e-11  3.62093e-11        00000 
-2.22826e-11  1.02247e-10        00000 
-5.20686e-11  2.01084e-11        00000 
-8.56062e-11  3.94493e-11        00000 
-9.58948e-11 -2.74412e-11        00000 
-5.18412e-11  2.11742e-11        00000 
 5.02496e-11  9.11484e-11        00000 
 2.75691e-11  5.42428e-11        00000 
-1.08571e-11  4.20357e-11        00000 
-4.76419e-11  1.47793e-11        00000 
 4.80747e-11  2.82796e-12        00000 
-8.72422e-11  1.07911e-10        00000 
 6.76703e-12  6.21796e-11        00000 
-8.79741e-12 -9.08749e-11        00000 
 1.05797e-10 -3.38145e-11        00000 
 1.60182e-10  3.80456e-11        00000 
-2.74980e-11 -7.48868e-11        00000 
-2.61338e-11  1.61862e-11        00000 
 4.29523e-11 -4.01257e-11        00000 
 2.86118e-11  6.26414e-11        00000 
-9.65308e-11  4.77183e-11        00000 
-7.63016e-11  1.84954e-11        00000 
-7.09619e-11  6.68550e-11        00000 
-2.78177e-11  3.94138e-11        00000 
 7.28235e-11 -2.30980e-11        00000 
 2.94094e-11  9.99982e-11        00000 
-2.79172e-11  2.36700e-11        00000 
-1.24100e-10  2.81233e-11        00000 
 3.05957e-11 -6.86668e-11        00000 
-2.03144e-11  4.13110e-11        00000 
-6.71605e-11  5.99876e-11        00000 
 4.32436e-11  9.34399e-11        00000 
-2.36255e-11  7.79323e-11        00000 
 2.66311e-11 -5.04485e-12        00000 
 1.42762e-10  6.32312e-11        00000 
-1.22299e-10 -6.72173e-12        00000 
 3.92717e-11  1.37099e-11        00000 
 4.32878e-11 -1.30086e-10        00000 
-2.14158e-11  3.75522e-11        00000 
 1.82609e-11  5.16707e-11        00000 
-7.15943e-11  8.54321e-11        00000 
 4.31157e-11  1.46514e-11        00000 
 1.45405e-10  1.30541e-10        00000 
 1.62032e-10  1.24555e-10        00000 
-1.50351e-11 -4.99583e-11        00000 
-3.60671e-11  1.00535e-10        00000 
 1.25191e-10  4.43379e-11        00000 
 9.56391e-11  3.82059e-11        00000 
 2.61764e-11  2.78320e-11        00000 
-5.67439e-11  1.44468e-10        00000 
-2.46843e-11  8.15845e-11        00000 
-2.03073e-11  7.60707e-11        00000 
-5.44986e-11  7.18146e-11        00000 
-6.90790e-11 -8.19256e-12        00000 
-2.76827e-11  9.36282e-11        00000 
 1.05209e-10  9.41895e-11        00000 
 6.51426e-11  9.72662e-11        00000 
 1.57598e-10  1.58238e-11        00000 
 4.00462e-11  1.00826e-10        00000 
-1.66466e-10 -5.07185e-11        00000 
 6.75584e-11 -3.92149e-11        00000 
 1.37192e-10  3.78222e-11        00000 
 4.81748e-11  4.33431e-13        00000 
-8.27356e-11  1.14817e-10        00000 
 4.99893e-11  1.93950e-10        00000 
 8.18545e-11  1.30981e-10        00000 
 7.94671e-11  4.37694e-12        00000 
 1.08571e-11 -4.13820e-11        00000 
 1.37931e-10  1.45519e-11        00000 
 3.62945e-11  3.58682e-11        00000 
 1.58280e-10  1.08770e-10        00000 
 5.82077e-11 -1.24913e-11        00000 
-3.06954e-12 -3.46745e-12        00000 
-3.67498e-11  2.05773e-11        00000 
 5.08749e-11 -5.22249e-11        00000 
 4.53610e-11 -7.77334e-11        00000 
-3.85398e-11  2.31353e-11        00000 
-2.63753e-11  6.82121e-12        00000 
-8.50946e-11 -5.40581e-11        00000 
-8.15703e-11 -2.19842e-11        00000 
-1.10902e-10  4.33005e-11        00000 
-8.62883e-11  8.30056e-11        00000 
 3.04317e-11  1.36311e-10        00000 
 6.31530e-11  5.18270e-11        00000 
-7.95808e-12  1.52625e-11        00000 
 4.18936e-11 -8.55209e-11        00000 
 8.67999e-11 -3.56266e-11        00000 
 1.28807e-10  1.36225e-10        00000 
 1.40062e-10  1.75135e-10        00000 
 8.93579e-11  5.00648e-11        00000 
 2.20552e-11  4.01030e-11        00000 
 5.10692e-27  1.13261e-26        00000 
-2.66880e-11 -8.90097e-11        00000 
-1.61249e-11 -1.84475e-12        00000 
 4.10412e-27 -1.25863e-26        00000 
 8.40510e-11  3.83880e-11        00000 
 1.27667e-11 -6.45142e-11        00000 
-7.27014e-27 -1.45403e-26        00000 
-1.02625e-10 -6.75104e-11        00000 
 1.02949e-11 -2.85976e-11        00000 
-1.30705e-27  2.98684e-27        00000 
-1.40692e-11 -9.75580e-11        00000 
 1.00639e-11  1.46070e-11        00000 
-1.09052e-26  7.27014e-27        00000 
-8.70797e-11 -1.33801e-10        00000 
-4.03930e-11 -3.17614e-11        00000 
 5.99683e-27  8.10067e-27        00000 
-1.08845e-10 -1.53645e-10        00000 
-1.50399e-10  1.84217e-11        00000 
 1.09052e-26        00000        00000 
-6.78764e-11 -7.06459e-11        00000 
-2.37699e-11 -1.11173e-11        00000 
-2.18104e-26 -7.27014e-27        00000 
-8.38019e-11  2.59726e-11        00000 
-1.15650e-10 -4.66138e-11        00000 
 8.01627e-27 -1.48374e-26        00000 
-7.87965e-11  7.40985e-11        00000 
 6.96510e-12 -1.29663e-10        00000 
 2.81535e-11 -8.24256e-11        00000 
-1.08809e-10 -1.46514e-11        00000 
-7.70690e-11  1.47686e-11        00000 
-2.46736e-11 -8.23737e-11        00000 
-1.32673e-10  7.23439e-11        00000 
-5.50173e-11  2.84333e-11        00000 
 8.29452e-11  8.67750e-12        00000 
-2.47553e-11 -5.80185e-11        00000 
 2.07763e-11 -1.16192e-11        00000 
 5.24842e-11  5.57729e-11        00000 
 4.89457e-11 -6.55707e-11        00000 
-2.53735e-11 -8.84368e-11        00000 
-1.06616e-10  1.30007e-12        00000 
-7.28022e-11 -1.13096e-10        00000 
-5.75398e-11 -2.81855e-11        00000 
-2.25038e-11 -2.70448e-11        00000 
-5.54436e-11 -6.39790e-11        00000 
 5.67084e-11 -4.87566e-11        00000 
 1.29727e-11 -4.57612e-11        00000 
-6.57323e-11 -1.65139e-11        00000 
-4.40110e-11 -4.24940e-11        00000 
-8.16183e-11 -2.72991e-11        00000 
-1.29781e-10  7.73648e-11        00000 
-2.29079e-11 -8.49329e-11        00000 
-5.26512e-11  1.15947e-11        00000 
-3.87601e-11 -8.11955e-11        00000 
-5.38414e-11 -2.91749e-11        00000 
-9.57705e-11 -6.99494e-11        00000 
-1.08514e-10 -4.41958e-11        00000 
-5.42215e-11  3.62732e-12        00000 
-3.32818e-11 -7.30207e-11        00000 
-8.72973e-11  2.13056e-11        00000 
 5.59197e-11  2.11493e-11        00000 
-1.50671e-11  3.76623e-11        00000 
-1.04798e-10  7.49978e-12        00000 
-1.55850e-10 -6.66969e-11        00000 
-5.31770e-11  1.61172e-10        00000 
-9.49498e-11  2.86366e-11        00000 
-5.43920e-11  3.32960e-11        00000 
 9.51417e-12 -3.43494e-11        00000 
 7.32783e-11  4.71410e-11        00000 
-4.58300e-12 -5.73124e-11        00000 
-9.19442e-11 -3.27507e-11        00000 
-7.92966e-11 -6.08971e-11        00000 
-1.20501e-10 -5.47100e-11        00000 
 6.29718e-11 -3.20703e-11        00000 
-1.36382e-10 -6.88534e-11        00000 
-9.55893e-11 -7.22231e-11        00000 
-4.06608e-11 -9.12053e-11        00000 
-1.24203e-11  5.82290e-12        00000 
 1.43814e-11 -4.72191e-11        00000 
-4.28280e-11  4.01368e-11        00000 
-3.71472e-11  1.13687e-11        00000 
-4.54747e-11  3.77440e-11        00000 
-3.28342e-11 -8.79581e-11        00000 
-5.86908e-12 -4.27008e-10        00000 
-6.15614e-11  9.62999e-11        00000 
-3.98472e-11 -8.69811e-11        00000 
 1.34008e-11 -4.68177e-11        00000 
 6.97753e-12  1.29965e-10        00000 
 1.84528e-11  3.72680e-11        00000 
 7.04858e-12 -3.14557e-11        00000 
-2.26805e-11 -6.03819e-11        00000 
 5.25802e-12  1.01927e-11        00000 
 2.20837e-11 -1.05679e-10        00000 
 8.17550e-11 -1.23663e-10        00000 
 9.28466e-11 -3.13598e-11        00000 
 5.60618e-11  7.35447e-11        00000 
 9.02816e-11  5.35501e-11        00000 
 1.22867e-10  1.05977e-11        00000 
 1.91136e-11 -9.61506e-11        00000 
 4.03304e-11  1.83960e-11        00000 
 1.57932e-10  9.98241e-11        00000 
 2.94307e-11  7.07630e-11        00000 
 1.67972e-11 -8.15419e-11        00000 
 1.88081e-11  4.94396e-11        00000 
 1.06624e-10  1.74733e-10        00000 
 1.01423e-10  1.80123e-12        00000 
-2.93454e-12  1.70836e-10        00000 
 3.24007e-11 -1.12426e-10        00000 
 5.12017e-11  2.31154e-10        00000 
 9.48290e-11 -1.37376e-10        00000 
-1.26136e-10 -1.46997e-10        00000 
 8.39293e-11  4.81535e-11        00000 
-4.01741e-11 -3.00204e-11        00000 
-1.08997e-11  2.06200e-11        00000 
 9.77138e-11  5.37881e-12        00000 
 5.24381e-11  7.63478e-11        00000 
 7.88560e-11 -9.57527e-11        00000 
-4.97380e-13 -7.99503e-11        00000 
-6.01688e-11  1.09708e-10        00000 
 3.58824e-11 -4.64127e-11        00000 
 5.42855e-12 -1.41377e-10        00000 
 4.25189e-11 -5.03029e-11        00000 
 6.20304e-11  4.24834e-11        00000 
-7.35980e-11  4.61569e-11        00000 
 4.17231e-11 -1.35099e-10        00000 
-1.64704e-10 -1.28878e-10        00000 
 1.36993e-11  6.39488e-12        00000 
-3.24860e-11  2.20375e-11        00000 
 3.18181e-11  2.10392e-11        00000 
-1.66978e-11 -9.09282e-11        00000 
 1.13303e-10  3.14486e-11        00000 
 1.41725e-10  1.06240e-10        00000 
 2.61053e-11  3.12923e-11        00000 
-7.67955e-11  2.28141e-10        00000 
 3.12639e-13 -1.29873e-10        00000 
-8.97131e-11  3.28612e-10        00000 
 1.69251e-11 -6.53841e-11        00000 
-1.59162e-11 -4.08704e-11        00000 
 7.72502e-11 -2.23821e-12        00000 
-5.27223e-11 -2.40021e-11        00000 
 9.60085e-11 -2.03499e-11        00000 
 1.05047e-10  8.25935e-11        00000 
-7.71081e-11 -2.40377e-11        00000 
-3.62093e-11 -1.37959e-10        00000 
-7.63407e-11  1.42549e-10        00000 
 1.32871e-11  4.90203e-11        00000 
-1.18888e-10 -3.46319e-11        00000 
-9.76854e-11 -1.76300e-10        00000 
-1.48717e-10 -3.19176e-11        00000 
 1.28466e-11  1.51985e-10        00000 
-5.57350e-11 -2.03428e-11        00000 
-1.89004e-12 -4.28599e-11        00000 
-4.23199e-11 -6.48512e-11        00000 
-8.64020e-11 -4.46505e-11        00000 
 6.22862e-11 -1.22704e-10        00000 
-1.17097e-11  3.54987e-11        00000 
 9.55254e-11 -3.72395e-11        00000 
-1.71667e-11 -5.72129e-11        00000 
 1.70189e-10  4.88072e-11        00000 
 1.40489e-10 -7.32214e-11        00000 
-6.09788e-11 -1.36986e-10        00000 
 8.56062e-11  5.10099e-11        00000 
 7.83302e-11 -9.79412e-11        00000 
 9.14895e-11 -1.21148e-11        00000 
 7.48344e-11  3.39355e-10        00000 
 1.16160e-10  2.74269e-12        00000 
 4.26326e-13  1.06560e-10        00000 
 5.72982e-11  4.02167e-11        00000 
 4.41105e-11 -6.02540e-12        00000 
 1.57172e-11  2.43716e-12        00000 
 5.40297e-11 -6.91074e-11        00000 
 4.42810e-11 -4.96101e-11        00000 
-6.17604e-11 -2.15721e-11        00000 
 1.48361e-11 -1.19641e-10        00000 
-3.31966e-11 -5.12728e-11        00000 
-2.36753e-11 -1.12202e-10        00000 
-7.68807e-11 -1.24999e-10        00000 
-6.33520e-11  4.01315e-11        00000 
-7.13385e-12  6.08935e-11        00000 
-1.28324e-10 -1.09708e-11        00000 
-7.15659e-11 -7.63976e-11        00000 
 1.46940e-11 -8.37019e-12        00000 
-7.38964e-11  4.26610e-11        00000 
 8.28777e-11  5.41860e-11        00000 
 1.41313e-10  3.89164e-11        00000 
 1.38357e-10 -1.92415e-11        00000 
 3.11218e-11 -5.47118e-12        00000 
 8.49241e-11 -1.03412e-10        00000 
-5.84066e-11 -8.45972e-11        00000 
 1.19655e-10 -1.03455e-11        00000 
-3.08376e-11  3.50440e-11        00000 
-9.36211e-11 -8.44693e-11        00000 
-4.98233e-11  7.19922e-11        00000 
 7.74492e-11 -1.15321e-10        00000 
-6.35794e-11  5.16280e-11        00000 
 5.81792e-11  3.22729e-11        00000 
 1.23038e-10 -5.66445e-11        00000 
 2.08331e-11 -1.64704e-11        00000 
-1.38414e-10 -4.81606e-11        00000 
-9.29106e-11 -1.21602e-10        00000 
-1.00812e-10  1.22299e-10        00000 
-9.68896e-11  2.65743e-12        00000 
-7.60849e-11  6.91784e-11        00000 
-1.14312e-10  7.94387e-12        00000 
-1.15847e-10  5.95719e-11        00000 
-1.54301e-10 -1.12266e-11        00000 
-6.98606e-11 -3.28271e-12        00000 
-6.87805e-12  6.70042e-11        00000 
-1.83320e-11  8.89315e-11        00000 
 1.05871e-10  2.71427e-12        00000 
-1.00954e-10 -9.72591e-11        00000 
 9.31095e-11  1.90994e-11        00000 
 1.58877e-11 -4.43379e-12        00000 
-6.12488e-11  7.23333e-12        00000 
-6.37783e-11  5.34612e-11        00000 
 3.91367e-11 -2.38316e-11        00000 
 2.98996e-11  7.96945e-11        00000 
-1.52909e-11  1.94120e-11        00000 
-6.28120e-11  1.86674e-10        00000 
-1.60298e-11  5.76961e-11        00000 
-2.36469e-11  1.37277e-11        00000 
-8.76526e-11  5.96572e-11        00000 
-8.35598e-12  1.07860e-10        00000 
 2.79670e-11 -9.39337e-12        00000 
-1.15733e-10  1.13687e-12        00000 
-2.34195e-11  2.11600e-11        00000 
-2.95586e-11  1.28509e-10        00000 
-1.15165e-10 -1.59872e-11        00000 
-1.10617e-10  7.03864e-11        00000 
-6.58815e-11  7.86997e-11        00000 
-5.49107e-11 -6.59810e-11        00000 
-8.07177e-12  5.01927e-11        00000 
-6.17888e-11  6.72884e-11        00000 
-4.45652e-11 -2.80522e-11        00000 
-1.57456e-11  8.72831e-11        00000 
 2.24532e-11 -5.63887e-11        00000 
-1.99066e-10 -1.21787e-10        00000 
 2.82512e-11  9.80975e-11        00000 
 1.48361e-11  7.90550e-11        00000 
-1.66551e-11  3.20881e-11        00000 
-8.18545e-11  1.71241e-11        00000 
-1.51203e-11  8.80789e-11        00000 
-7.61702e-11  1.52099e-10        00000 
-6.57678e-11 -2.43290e-11        00000 
-2.02292e-11 -4.84723e-12        00000 
-8.06804e-11  2.01759e-11        00000 
-4.28839e-11 -7.26401e-11        00000 
-5.60318e-11  6.93028e-11        00000 
 6.54303e-11  1.47160e-11        00000 
 3.76804e-11  8.50431e-11        00000 
 1.00124e-11 -3.84668e-11        00000 
-3.96953e-11  4.04476e-11        00000 
-3.23039e-11 -5.39020e-11        00000 
-2.25433e-11  9.68789e-11        00000 
 1.73861e-11  4.59788e-11        00000 
 3.73014e-11  4.00053e-11        00000 
-1.83498e-12 -7.44063e-11        00000 
-2.10838e-11  3.34133e-11        00000 
 2.97895e-11  2.10130e-11        00000 
-5.76611e-11  4.82423e-11        00000 
 3.72289e-11  9.93268e-11        00000 
-1.25466e-12 -3.19780e-11        00000 
-2.95479e-11  7.48646e-11        00000 
 4.14959e-12  4.95959e-11        00000 
-4.24407e-11  2.18296e-11        00000 
 8.01847e-12  1.21261e-10        00000 
-4.93827e-13  1.19465e-10        00000 
 4.67015e-11  2.54310e-10        00000 
-3.64331e-11  4.73701e-11        00000 
 9.84057e-11  2.23807e-10        00000 
 9.96749e-11 -3.04237e-11        00000 
-6.57195e-11  2.12019e-10        00000 
-5.58487e-12  5.07026e-11        00000 
-3.81346e-11 -7.73781e-12        00000 
 4.73754e-11 -4.43894e-11        00000 
-7.55816e-11  6.09646e-11        00000 
-6.50537e-11  4.40252e-11        00000 
-8.13123e-11  6.55263e-11        00000 
-1.13850e-10 -5.68434e-14        00000 
-3.21347e-11  6.09504e-11        00000 
 6.23359e-11  3.50937e-11        00000 
-4.69172e-11  6.59952e-11        00000 
-1.13744e-10 -9.08749e-11        00000 
-2.00999e-11 -2.72848e-11        00000 
-1.65130e-11 -5.77671e-12        00000 
-5.09487e-11 -3.32676e-11        00000 
 3.44968e-11 -4.02594e-11        00000 
 4.72774e-12  9.52127e-12        00000 
-6.09148e-11 -8.21565e-11        00000 
-9.51507e-11  5.66303e-11        00000 
-3.22231e-11 -1.00645e-10        00000 
 7.10913e-11  2.17284e-11        00000 
-2.00160e-11 -5.62608e-11        00000 
-5.00293e-11 -3.64935e-11        00000 
-1.01124e-10  4.04903e-11        00000 
 1.00272e-10  3.33955e-11        00000 
 5.66374e-11  3.24007e-11        00000 
 1.47601e-10  7.76481e-11        00000 
-6.32809e-11 -6.38920e-11        00000 
-9.56774e-11 -2.75122e-11        00000 
-6.03677e-11 -7.77973e-11        00000 
-4.91055e-12 -7.59428e-11        00000 
-2.19273e-11 -1.99272e-11        00000 
 9.12725e-11 -1.00130e-10        00000 
 1.40830e-11 -1.55790e-10        00000 
 2.70502e-11 -1.99805e-11        00000 
 6.09361e-11 -9.89964e-11        00000 
-2.15117e-10 -1.09139e-11        00000 
 1.12479e-10 -3.51115e-11        00000 
 7.43143e-11  1.76783e-11        00000 
 5.05906e-11 -5.21823e-11        00000 
-6.80052e-11  2.61764e-11        00000 
 6.22435e-12 -2.63114e-11        00000 
 4.91660e-11  1.09338e-10        00000 
 8.83205e-11 -1.32616e-10        00000 
 1.32672e-10  3.58909e-10        00000 
 9.46159e-11 -8.62883e-11        00000 