<?xml version="1.0" encoding="utf-8"?>
<VTKFile byte_order="LittleEndian" type="UnstructuredGrid" version="0.1">
   <UnstructuredGrid>
      <Piece NumberOfCells="1296" NumberOfPoints="685">
         <Points>
            <DataArray Name="Points" NumberOfComponents="3" format="ascii" type="Float32">
0.0000 0.0000 0.0000
0.0000 0.1111 0.0000
0.0000 0.2222 0.0000
0.0000 0.3333 0.0000
0.0000 0.4444 0.0000
0.0000 0.5556 0.0000
0.0000 0.6667 0.0000
0.0000 0.7778 0.0000
0.0000 0.8889 0.0000
0.0000 1.0000 0.0000
0.2222 0.0000 0.0000
0.2222 0.1111 0.0000
0.2222 0.2222 0.0000
0.2222 0.3333 0.0000
0.2222 0.4444 0.0000
0.2222 0.5556 0.0000
0.2222 0.6667 0.0000
0.2222 0.7778 0.0000
0.2222 0.8889 0.0000
0.2222 1.0000 0.0000
0.4444 0.0000 0.0000
0.4444 0.1111 0.0000
0.4444 0.2222 0.0000
0.4444 0.3333 0.0000
0.4444 0.4444 0.0000
0.4444 0.5556 0.0000
0.4444 0.6667 0.0000
0.4444 0.7778 0.0000
0.4444 0.8889 0.0000
0.4444 1.0000 0.0000
0.6667 0.0000 0.0000
0.6667 0.1111 0.0000
0.6667 0.2222 0.0000
0.6667 0.3333 0.0000
0.6667 0.4444 0.0000
0.6667 0.5556 0.0000
0.6667 0.6667 0.0000
0.6667 0.7778 0.0000
0.6667 0.8889 0.0000
0.6667 1.0000 0.0000
0.8889 0.0000 0.0000
0.8889 0.1111 0.0000
0.8889 0.2222 0.0000
0.8889 0.3333 0.0000
0.8889 0.4444 0.0000
0.8889 0.5556 0.0000
0.8889 0.6667 0.0000
0.8889 0.7778 0.0000
0.8889 0.8889 0.0000
0.8889 1.0000 0.0000
1.1111 0.0000 0.0000
1.1111 0.1111 0.0000
1.1111 0.2222 0.0000
1.1111 0.3333 0.0000
1.1111 0.4444 0.0000
1.1111 0.5556 0.0000
1.1111 0.6667 0.0000
1.1111 0.7778 0.0000
1.1111 0.8889 0.0000
1.1111 1.0000 0.0000
1.3333 0.0000 0.0000
1.3333 0.1111 0.0000
1.3333 0.2222 0.0000
1.3333 0.3333 0.0000
1.3333 0.4444 0.0000
1.3333 0.5556 0.0000
1.3333 0.6667 0.0000
1.3333 0.7778 0.0000
1.3333 0.8889 0.0000
1.3333 1.0000 0.0000
1.5556 0.0000 0.0000
1.5556 0.1111 0.0000
1.5556 0.2222 0.0000
1.5556 0.3333 0.0000
1.5556 0.4444 0.0000
1.5556 0.5556 0.0000
1.5556 0.6667 0.0000
1.5556 0.7778 0.0000
1.5556 0.8889 0.0000
1.5556 1.0000 0.0000
1.7778 0.0000 0.0000
1.7778 0.1111 0.0000
1.7778 0.2222 0.0000
1.7778 0.3333 0.0000
1.7778 0.4444 0.0000
1.7778 0.5556 0.0000
1.7778 0.6667 0.0000
1.7778 0.7778 0.0000
1.7778 0.8889 0.0000
1.7778 1.0000 0.0000
2.0000 0.0000 0.0000
2.0000 0.1111 0.0000
2.0000 0.2222 0.0000
2.0000 0.3333 0.0000
2.0000 0.4444 0.0000
2.0000 0.5556 0.0000
2.0000 0.6667 0.0000
2.0000 0.7778 0.0000
2.0000 0.8889 0.0000
2.0000 1.0000 0.0000
0.1111 0.0556 0.0000
0.1111 0.1667 0.0000
0.1111 0.2778 0.0000
0.1111 0.3889 0.0000
0.1111 0.5000 0.0000
0.1111 0.6111 0.0000
0.1111 0.7222 0.0000
0.1111 0.8333 0.0000
0.1111 0.9444 0.0000
0.3333 0.0556 0.0000
0.3333 0.1667 0.0000
0.3333 0.2778 0.0000
0.3333 0.3889 0.0000
0.3333 0.5000 0.0000
0.3333 0.6111 0.0000
0.3333 0.7222 0.0000
0.3333 0.8333 0.0000
0.3333 0.9444 0.0000
0.5556 0.0556 0.0000
0.5556 0.1667 0.0000
0.5556 0.2778 0.0000
0.5556 0.3889 0.0000
0.5556 0.5000 0.0000
0.5556 0.6111 0.0000
0.5556 0.7222 0.0000
0.5556 0.8333 0.0000
0.5556 0.9444 0.0000
0.7778 0.0556 0.0000
0.7778 0.1667 0.0000
0.7778 0.2778 0.0000
0.7778 0.3889 0.0000
0.7778 0.5000 0.0000
0.7778 0.6111 0.0000
0.7778 0.7222 0.0000
0.7778 0.8333 0.0000
0.7778 0.9444 0.0000
1.0000 0.0556 0.0000
1.0000 0.1667 0.0000
1.0000 0.2778 0.0000
1.0000 0.3889 0.0000
1.0000 0.5000 0.0000
1.0000 0.6111 0.0000
1.0000 0.7222 0.0000
1.0000 0.8333 0.0000
1.0000 0.9444 0.0000
1.2222 0.0556 0.0000
1.2222 0.1667 0.0000
1.2222 0.2778 0.0000
1.2222 0.3889 0.0000
1.2222 0.5000 0.0000
1.2222 0.6111 0.0000
1.2222 0.7222 0.0000
1.2222 0.8333 0.0000
1.2222 0.9444 0.0000
1.4444 0.0556 0.0000
1.4444 0.1667 0.0000
1.4444 0.2778 0.0000
1.4444 0.3889 0.0000
1.4444 0.5000 0.0000
1.4444 0.6111 0.0000
1.4444 0.7222 0.0000
1.4444 0.8333 0.0000
1.4444 0.9444 0.0000
1.6667 0.0556 0.0000
1.6667 0.1667 0.0000
1.6667 0.2778 0.0000
1.6667 0.3889 0.0000
1.6667 0.5000 0.0000
1.6667 0.6111 0.0000
1.6667 0.7222 0.0000
1.6667 0.8333 0.0000
1.6667 0.9444 0.0000
1.8889 0.0556 0.0000
1.8889 0.1667 0.0000
1.8889 0.2778 0.0000
1.8889 0.3889 0.0000
1.8889 0.5000 0.0000
1.8889 0.6111 0.0000
1.8889 0.7222 0.0000
1.8889 0.8333 0.0000
1.8889 0.9444 0.0000
0.0000 0.0556 0.0000
0.0556 0.0278 0.0000
0.0556 0.0833 0.0000
0.0000 0.1667 0.0000
0.0556 0.1389 0.0000
0.0556 0.1944 0.0000
0.0000 0.2778 0.0000
0.0556 0.2500 0.0000
0.0556 0.3056 0.0000
0.0000 0.3889 0.0000
0.0556 0.3611 0.0000
0.0556 0.4167 0.0000
0.0000 0.5000 0.0000
0.0556 0.4722 0.0000
0.0556 0.5278 0.0000
0.0000 0.6111 0.0000
0.0556 0.5833 0.0000
0.0556 0.6389 0.0000
0.0000 0.7222 0.0000
0.0556 0.6944 0.0000
0.0556 0.7500 0.0000
0.0000 0.8333 0.0000
0.0556 0.8056 0.0000
0.0556 0.8611 0.0000
0.0000 0.9444 0.0000
0.0556 0.9167 0.0000
0.0556 0.9722 0.0000
0.2222 0.0556 0.0000
0.2778 0.0278 0.0000
0.2778 0.0833 0.0000
0.2222 0.1667 0.0000
0.2778 0.1389 0.0000
0.2778 0.1944 0.0000
0.2222 0.2778 0.0000
0.2778 0.2500 0.0000
0.2778 0.3056 0.0000
0.2222 0.3889 0.0000
0.2778 0.3611 0.0000
0.2778 0.4167 0.0000
0.2222 0.5000 0.0000
0.2778 0.4722 0.0000
0.2778 0.5278 0.0000
0.2222 0.6111 0.0000
0.2778 0.5833 0.0000
0.2778 0.6389 0.0000
0.2222 0.7222 0.0000
0.2778 0.6944 0.0000
0.2778 0.7500 0.0000
0.2222 0.8333 0.0000
0.2778 0.8056 0.0000
0.2778 0.8611 0.0000
0.2222 0.9444 0.0000
0.2778 0.9167 0.0000
0.2778 0.9722 0.0000
0.4444 0.0556 0.0000
0.5000 0.0278 0.0000
0.5000 0.0833 0.0000
0.4444 0.1667 0.0000
0.5000 0.1389 0.0000
0.5000 0.1944 0.0000
0.4444 0.2778 0.0000
0.5000 0.2500 0.0000
0.5000 0.3056 0.0000
0.4444 0.3889 0.0000
0.5000 0.3611 0.0000
0.5000 0.4167 0.0000
0.4444 0.5000 0.0000
0.5000 0.4722 0.0000
0.5000 0.5278 0.0000
0.4444 0.6111 0.0000
0.5000 0.5833 0.0000
0.5000 0.6389 0.0000
0.4444 0.7222 0.0000
0.5000 0.6944 0.0000
0.5000 0.7500 0.0000
0.4444 0.8333 0.0000
0.5000 0.8056 0.0000
0.5000 0.8611 0.0000
0.4444 0.9444 0.0000
0.5000 0.9167 0.0000
0.5000 0.9722 0.0000
0.6667 0.0556 0.0000
0.7222 0.0278 0.0000
0.7222 0.0833 0.0000
0.6667 0.1667 0.0000
0.7222 0.1389 0.0000
0.7222 0.1944 0.0000
0.6667 0.2778 0.0000
0.7222 0.2500 0.0000
0.7222 0.3056 0.0000
0.6667 0.3889 0.0000
0.7222 0.3611 0.0000
0.7222 0.4167 0.0000
0.6667 0.5000 0.0000
0.7222 0.4722 0.0000
0.7222 0.5278 0.0000
0.6667 0.6111 0.0000
0.7222 0.5833 0.0000
0.7222 0.6389 0.0000
0.6667 0.7222 0.0000
0.7222 0.6944 0.0000
0.7222 0.7500 0.0000
0.6667 0.8333 0.0000
0.7222 0.8056 0.0000
0.7222 0.8611 0.0000
0.6667 0.9444 0.0000
0.7222 0.9167 0.0000
0.7222 0.9722 0.0000
0.8889 0.0556 0.0000
0.9444 0.0278 0.0000
0.9444 0.0833 0.0000
0.8889 0.1667 0.0000
0.9444 0.1389 0.0000
0.9444 0.1944 0.0000
0.8889 0.2778 0.0000
0.9444 0.2500 0.0000
0.9444 0.3056 0.0000
0.8889 0.3889 0.0000
0.9444 0.3611 0.0000
0.9444 0.4167 0.0000
0.8889 0.5000 0.0000
0.9444 0.4722 0.0000
0.9444 0.5278 0.0000
0.8889 0.6111 0.0000
0.9444 0.5833 0.0000
0.9444 0.6389 0.0000
0.8889 0.7222 0.0000
0.9444 0.6944 0.0000
0.9444 0.7500 0.0000
0.8889 0.8333 0.0000
0.9444 0.8056 0.0000
0.9444 0.8611 0.0000
0.8889 0.9444 0.0000
0.9444 0.9167 0.0000
0.9444 0.9722 0.0000
1.1111 0.0556 0.0000
1.1667 0.0278 0.0000
1.1667 0.0833 0.0000
1.1111 0.1667 0.0000
1.1667 0.1389 0.0000
1.1667 0.1944 0.0000
1.1111 0.2778 0.0000
1.1667 0.2500 0.0000
1.1667 0.3056 0.0000
1.1111 0.3889 0.0000
1.1667 0.3611 0.0000
1.1667 0.4167 0.0000
1.1111 0.5000 0.0000
1.1667 0.4722 0.0000
1.1667 0.5278 0.0000
1.1111 0.6111 0.0000
1.1667 0.5833 0.0000
1.1667 0.6389 0.0000
1.1111 0.7222 0.0000
1.1667 0.6944 0.0000
1.1667 0.7500 0.0000
1.1111 0.8333 0.0000
1.1667 0.8056 0.0000
1.1667 0.8611 0.0000
1.1111 0.9444 0.0000
1.1667 0.9167 0.0000
1.1667 0.9722 0.0000
1.3333 0.0556 0.0000
1.3889 0.0278 0.0000
1.3889 0.0833 0.0000
1.3333 0.1667 0.0000
1.3889 0.1389 0.0000
1.3889 0.1944 0.0000
1.3333 0.2778 0.0000
1.3889 0.2500 0.0000
1.3889 0.3056 0.0000
1.3333 0.3889 0.0000
1.3889 0.3611 0.0000
1.3889 0.4167 0.0000
1.3333 0.5000 0.0000
1.3889 0.4722 0.0000
1.3889 0.5278 0.0000
1.3333 0.6111 0.0000
1.3889 0.5833 0.0000
1.3889 0.6389 0.0000
1.3333 0.7222 0.0000
1.3889 0.6944 0.0000
1.3889 0.7500 0.0000
1.3333 0.8333 0.0000
1.3889 0.8056 0.0000
1.3889 0.8611 0.0000
1.3333 0.9444 0.0000
1.3889 0.9167 0.0000
1.3889 0.9722 0.0000
1.5556 0.0556 0.0000
1.6111 0.0278 0.0000
1.6111 0.0833 0.0000
1.5556 0.1667 0.0000
1.6111 0.1389 0.0000
1.6111 0.1944 0.0000
1.5556 0.2778 0.0000
1.6111 0.2500 0.0000
1.6111 0.3056 0.0000
1.5556 0.3889 0.0000
1.6111 0.3611 0.0000
1.6111 0.4167 0.0000
1.5556 0.5000 0.0000
1.6111 0.4722 0.0000
1.6111 0.5278 0.0000
1.5556 0.6111 0.0000
1.6111 0.5833 0.0000
1.6111 0.6389 0.0000
1.5556 0.7222 0.0000
1.6111 0.6944 0.0000
1.6111 0.7500 0.0000
1.5556 0.8333 0.0000
1.6111 0.8056 0.0000
1.6111 0.8611 0.0000
1.5556 0.9444 0.0000
1.6111 0.9167 0.0000
1.6111 0.9722 0.0000
1.7778 0.0556 0.0000
1.8333 0.0278 0.0000
1.8333 0.0833 0.0000
1.7778 0.1667 0.0000
1.8333 0.1389 0.0000
1.8333 0.1944 0.0000
1.7778 0.2778 0.0000
1.8333 0.2500 0.0000
1.8333 0.3056 0.0000
1.7778 0.3889 0.0000
1.8333 0.3611 0.0000
1.8333 0.4167 0.0000
1.7778 0.5000 0.0000
1.8333 0.4722 0.0000
1.8333 0.5278 0.0000
1.7778 0.6111 0.0000
1.8333 0.5833 0.0000
1.8333 0.6389 0.0000
1.7778 0.7222 0.0000
1.8333 0.6944 0.0000
1.8333 0.7500 0.0000
1.7778 0.8333 0.0000
1.8333 0.8056 0.0000
1.8333 0.8611 0.0000
1.7778 0.9444 0.0000
1.8333 0.9167 0.0000
1.8333 0.9722 0.0000
0.1111 0.1111 0.0000
0.1667 0.0833 0.0000
0.1111 0.2222 0.0000
0.1667 0.1944 0.0000
0.1111 0.3333 0.0000
0.1667 0.3056 0.0000
0.1111 0.4444 0.0000
0.1667 0.4167 0.0000
0.1111 0.5556 0.0000
0.1667 0.5278 0.0000
0.1111 0.6667 0.0000
0.1667 0.6389 0.0000
0.1111 0.7778 0.0000
0.1667 0.7500 0.0000
0.1111 0.8889 0.0000
0.1667 0.8611 0.0000
0.1111 1.0000 0.0000
0.1667 0.9722 0.0000
0.3333 0.1111 0.0000
0.3889 0.0833 0.0000
0.3333 0.2222 0.0000
0.3889 0.1944 0.0000
0.3333 0.3333 0.0000
0.3889 0.3056 0.0000
0.3333 0.4444 0.0000
0.3889 0.4167 0.0000
0.3333 0.5556 0.0000
0.3889 0.5278 0.0000
0.3333 0.6667 0.0000
0.3889 0.6389 0.0000
0.3333 0.7778 0.0000
0.3889 0.7500 0.0000
0.3333 0.8889 0.0000
0.3889 0.8611 0.0000
0.3333 1.0000 0.0000
0.3889 0.9722 0.0000
0.5556 0.1111 0.0000
[...]
         <PointData>
            <DataArray Name="fValues" NumberOfComponents="3" format="ascii" type="Float64">
-4.37653e-22  1.45884e-21        00000 
-1.13343e-21 -5.70652e-23        00000 
-2.04703e-21  3.83093e-21        00000 
       00000 -7.52524e-21        00000 
 1.77813e-21  5.57255e-22        00000 
 7.52524e-22 -5.01683e-22        00000 
-6.72826e-22 -4.09204e-22        00000 
-1.00246e-21  1.00246e-21        00000 
-6.29836e-22 -3.14918e-22        00000 
-1.16707e-21        00000        00000 
-1.73498e-05  1.73651e-05        00000 
 1.29986e-05  2.47436e-05        00000 
 1.92946e-05 -8.82864e-06        00000 
-1.49291e-05 -9.51994e-06        00000 
-3.57882e-07 -2.45950e-05        00000 
-3.94881e-06  4.89428e-06        00000 
 3.38271e-07 -3.90390e-06        00000 
 1.30800e-05  1.38838e-05        00000 
-4.11980e-06 -1.61230e-06        00000 
-4.51165e-06  1.93779e-05        00000 
-3.98590e-06  1.36354e-06        00000 
 2.95923e-05  1.03221e-05        00000 
 2.28729e-05 -7.45038e-06        00000 
-1.45542e-05 -3.23045e-05        00000 
 1.90858e-05 -1.29854e-05        00000 
 3.46419e-05  1.15343e-05        00000 
 3.71009e-05  1.69585e-05        00000 
 1.60612e-05 -2.27026e-05        00000 
 1.20846e-05 -4.82674e-06        00000 
 9.61789e-06 -5.16092e-06        00000 
 1.39838e-05 -1.27145e-06        00000 
 3.28303e-06  2.27257e-05        00000 
 1.07001e-05  8.62727e-06        00000 
-2.83524e-05 -1.23884e-05        00000 
 5.30680e-07 -1.84646e-05        00000 
 3.63977e-05  2.40779e-06        00000 
 6.71101e-06  1.85093e-05        00000 
-5.01155e-06 -8.37923e-07        00000 
-7.32780e-06 -1.12035e-05        00000 
-1.86734e-05  5.20817e-05        00000 
-2.01623e-05 -6.48747e-06        00000 
 1.76199e-07  5.27997e-05        00000 
-4.31253e-06 -1.51356e-05        00000 
 5.27742e-06  1.01350e-05        00000 
-6.64849e-06  2.33140e-05        00000 
-1.83449e-05  4.22970e-06        00000 
-4.25827e-06  3.68672e-05        00000 
 1.14762e-05  9.02577e-06        00000 
-3.34091e-05 -1.53879e-05        00000 
-1.01128e-05 -9.99048e-07        00000 
 1.43552e-05 -5.05250e-05        00000 
-1.25315e-05 -1.20428e-05        00000 
-7.75071e-06  2.34046e-05        00000 
-5.10221e-06  6.13261e-06        00000 
-1.26220e-05 -4.36708e-06        00000 
 1.21085e-05  1.41418e-05        00000 
 1.31671e-05  4.44468e-05        00000 
-1.52427e-06  7.35880e-06        00000 
-2.81869e-05 -2.87148e-05        00000 
-4.90781e-05  8.46552e-06        00000 
 1.78616e-06  1.36778e-05        00000 
 1.93967e-06  1.32924e-05        00000 
 3.20105e-06  9.03756e-06        00000 
 1.98516e-05  3.57548e-05        00000 
-5.15432e-07 -6.01578e-06        00000 
 1.48842e-05 -8.89479e-06        00000 
 1.15092e-05 -4.31621e-06        00000 
 1.97569e-06 -8.81419e-06        00000 
-1.74474e-05  1.77363e-05        00000 
 1.47156e-05  4.67731e-05        00000 
-1.01841e-05 -2.69061e-05        00000 
 7.98859e-07 -3.36323e-06        00000 
 4.32857e-05 -6.61571e-06        00000 
 3.06372e-05  1.67791e-05        00000 
 9.47494e-06  1.61777e-05        00000 
-1.41305e-05 -1.75086e-05        00000 
 4.28149e-06 -1.42393e-05        00000 
-1.58431e-05  2.81658e-05        00000 
 3.21243e-06 -1.90485e-05        00000 
-1.67701e-05 -2.88541e-05        00000 
 2.17486e-05 -8.53003e-05        00000 
 8.81984e-06 -1.63613e-05        00000 
 1.70818e-05 -6.49498e-06        00000 
 2.29635e-05 -5.37466e-06        00000 
 2.22273e-05 -4.43171e-06        00000 
 1.72151e-05  7.59392e-06        00000 
 9.04139e-06  3.72922e-05        00000 
 6.52213e-06  2.07988e-05        00000 
-4.20829e-05  3.17313e-05        00000 
-8.87405e-06  9.55315e-05        00000 
 4.81035e-06 -1.23519e-05        00000 
 3.12226e-05  2.19575e-06        00000 
 9.01357e-06 -8.31777e-06        00000 
 1.29090e-05 -3.06094e-06        00000 
 3.88892e-05 -2.24724e-05        00000 
 7.95251e-06 -1.09287e-05        00000 
-4.19810e-07  2.19728e-05        00000 
-5.14350e-06  2.62755e-05        00000 
-4.94507e-06  1.16409e-05        00000 
-5.04305e-06  2.26035e-07        00000 
-9.19773e-06  2.08860e-06        00000 
 1.41379e-05 -8.19844e-07        00000 
 2.04579e-05 -1.24574e-05        00000 
 3.34840e-06  1.20335e-05        00000 
-1.72057e-05  3.26750e-06        00000 
-8.25627e-06 -2.84830e-06        00000 
-6.11909e-06  3.42142e-06        00000 
-8.70403e-07  1.93453e-06        00000 
-7.49083e-06 -1.15834e-05        00000 
-5.38199e-07 -8.52012e-06        00000 
 2.41330e-05  1.84626e-05        00000 
 3.64004e-05  1.71215e-06        00000 
 6.52312e-06 -1.23247e-07        00000 
-7.42139e-06  1.09445e-06        00000 
 3.00986e-06  2.17716e-05        00000 
 3.73874e-07  1.10351e-05        00000 
 7.63293e-06 -3.23681e-06        00000 
 1.46961e-05  4.02553e-07        00000 
 1.70217e-05 -1.55509e-06        00000 
 7.08022e-06 -8.78736e-06        00000 
 6.64058e-06 -1.26788e-05        00000 
 2.82589e-06 -3.63034e-06        00000 
-4.32847e-06 -1.71204e-05        00000 
 1.30725e-05  1.04643e-05        00000 
-3.89827e-06 -6.79638e-06        00000 
 1.30510e-05  2.45043e-06        00000 
 1.97717e-05 -1.23019e-05        00000 
-2.87475e-06 -6.17950e-06        00000 
 1.48791e-06  5.30430e-06        00000 
-6.96150e-06 -1.47770e-06        00000 
 3.36277e-05  3.39280e-06        00000 
 6.91993e-06 -1.47923e-05        00000 
 1.92238e-06  2.84325e-07        00000 
 6.71604e-06 -1.97797e-05        00000 
-1.65441e-05 -1.19906e-05        00000 
-2.89081e-05 -4.79075e-06        00000 
-3.36740e-06  3.06841e-05        00000 
 1.61427e-05  1.87240e-05        00000 
-4.05649e-06  7.93830e-06        00000 
 3.19566e-06 -2.64619e-05        00000 
 1.77469e-06 -1.51799e-05        00000 
 1.29145e-06 -7.04787e-06        00000 
-3.34720e-05 -6.85740e-06        00000 
-2.45334e-05  4.45300e-06        00000 
-2.31737e-06  9.06044e-07        00000 
-1.99775e-05  2.77768e-06        00000 
-1.75330e-05 -1.40342e-06        00000 
-1.98178e-05 -5.72876e-06        00000 
 1.22558e-05 -5.61392e-06        00000 
 1.07476e-05  1.68095e-05        00000 
-9.56098e-06  7.25754e-06        00000 
-7.06468e-06  2.62985e-05        00000 
 6.34180e-06  2.44738e-06        00000 
-2.73185e-05 -8.05222e-06        00000 
 3.24776e-06  1.02790e-05        00000 
 4.09674e-06  9.19279e-06        00000 
-2.14197e-05  9.63106e-06        00000 
 8.38245e-06 -1.45626e-06        00000 
-3.76625e-05 -1.15421e-05        00000 
-2.91010e-05 -7.26838e-06        00000 
-5.93254e-06  8.18802e-06        00000 
-1.52081e-05  1.64931e-05        00000 
-1.26038e-05  1.94347e-05        00000 
 7.71907e-06  4.94599e-05        00000 
 1.70203e-05  8.17479e-07        00000 
 2.13883e-05 -8.41368e-06        00000 
 6.29196e-06 -1.93312e-05        00000 
 1.26386e-05 -1.15567e-05        00000 
 3.52804e-05  2.62116e-05        00000 
 4.62666e-05  1.33457e-05        00000 
 3.48035e-05 -6.48938e-06        00000 
-2.07647e-06  1.49851e-05        00000 
-1.28480e-05  1.89001e-05        00000 
 9.45880e-06  1.74957e-05        00000 
-1.18671e-06  4.43868e-06        00000 
 1.92277e-05 -1.52943e-07        00000 
 1.39204e-05  1.63025e-05        00000 
-7.61346e-06  1.57840e-05        00000 
-4.53335e-06  2.61177e-05        00000 
 1.22750e-05  4.95721e-05        00000 
-8.40596e-06 -8.65517e-06        00000 
 2.01003e-21 -3.84635e-21        00000 
 1.65707e-06 -1.17454e-05        00000 
 1.32289e-05 -2.19539e-05        00000 
-3.73512e-22  1.74379e-21        00000 
-3.52397e-06 -1.18480e-05        00000 
 5.29212e-06 -8.78768e-06        00000 
-9.52912e-22 -1.90582e-21        00000 
-1.57751e-05 -6.87754e-06        00000 
 6.60560e-06 -2.43698e-05        00000 
 1.60947e-21 -9.28759e-23        00000 
-1.96640e-05 -1.08007e-05        00000 
 1.95916e-05 -5.19686e-06        00000 
 3.81165e-21  1.90582e-21        00000 
 1.39243e-05  3.73472e-06        00000 
 1.32535e-05 -6.65475e-06        00000 
-1.07900e-21 -3.74345e-21        00000 
 3.59609e-06 -1.43941e-05        00000 
-6.36362e-06 -1.67909e-05        00000 
-4.76456e-22  9.52912e-22        00000 
-5.67081e-06  2.05671e-05        00000 
 6.93746e-06 -1.38679e-05        00000 
-4.76456e-22 -3.57342e-22        00000 
-7.06985e-06  8.27763e-06        00000 
-4.00517e-06 -2.02070e-06        00000 
 6.12158e-22 -9.38026e-22        00000 
-9.75292e-06  2.90009e-06        00000 
-7.72666e-06 -2.00972e-05        00000 
-1.26625e-05 -1.52306e-05        00000 
-4.40386e-06 -3.07261e-05        00000 
 9.69457e-06  2.22420e-05        00000 
 5.61463e-06 -1.70004e-05        00000 
 2.19921e-06  1.96450e-05        00000 
-2.11899e-05 -5.85768e-06        00000 
-1.69295e-05 -2.63048e-05        00000 
-7.20569e-06  8.48436e-06        00000 
 8.57438e-06 -1.80443e-05        00000 
-3.35865e-07 -3.42081e-06        00000 
 1.76682e-05 -1.44869e-05        00000 
-1.69915e-05 -2.13702e-05        00000 
-2.18302e-05 -1.17812e-05        00000 
-9.02032e-06  1.04582e-05        00000 
-5.70589e-06  2.37138e-05        00000 
-7.99533e-06 -1.88720e-05        00000 
 3.36212e-06 -2.01562e-06        00000 
-1.36269e-05  4.01174e-06        00000 
 3.15009e-06 -4.24959e-05        00000 
-1.40409e-05  7.55323e-06        00000 
-1.19734e-05  1.06288e-05        00000 
-5.49693e-06  1.02619e-05        00000 
 3.98931e-06  3.89321e-06        00000 
-7.82923e-06 -8.82234e-06        00000 
-1.18775e-05  2.00601e-05        00000 
-2.90076e-06  2.06213e-06        00000 
-1.39317e-05  1.67258e-05        00000 
 1.45403e-05 -1.17327e-05        00000 
 2.79119e-05 -1.84879e-05        00000 
 1.51372e-05 -9.34193e-06        00000 
 1.96797e-05 -1.57726e-05        00000 
 5.76213e-06 -5.61404e-06        00000 
-2.85787e-06 -1.49668e-05        00000 
-1.62691e-05 -1.25801e-05        00000 
 1.30720e-05  2.71747e-06        00000 
 2.08975e-05  9.48593e-07        00000 
 1.80080e-05 -1.97132e-06        00000 
 6.31185e-06 -8.81370e-06        00000 
-1.78649e-06 -1.54181e-05        00000 
 3.21362e-05 -3.43311e-06        00000 
-4.34388e-05  1.56329e-06        00000 
 4.80902e-06 -6.90107e-06        00000 
 2.31723e-05  7.97351e-06        00000 
-1.24100e-05  5.12104e-06        00000 
-2.82937e-05 -2.03940e-07        00000 
 5.51803e-06 -2.41401e-05        00000 
-1.88831e-05 -2.98906e-05        00000 
-3.00868e-05  9.17327e-06        00000 
 8.71171e-06 -1.91363e-05        00000 
-2.31865e-05  5.26916e-06        00000 
-5.79356e-06 -7.06502e-06        00000 
-3.03660e-06  3.65518e-05        00000 
 2.20559e-05 -1.15001e-05        00000 
 1.24723e-05 -2.68281e-05        00000 
-1.79091e-06  1.24521e-05        00000 
 2.59934e-05  1.34119e-05        00000 
 6.79465e-06  6.24089e-06        00000 
 1.07006e-05 -1.66609e-05        00000 
-7.91306e-06  8.91240e-06        00000 
-1.76833e-05 -1.70400e-05        00000 
-9.08924e-06 -1.21437e-05        00000 
 1.64382e-06  6.76490e-06        00000 
 8.14051e-06  4.35810e-06        00000 
-1.42363e-05  2.40338e-06        00000 
 2.84607e-06 -1.99996e-05        00000 
 3.68999e-06 -1.80658e-05        00000 
-2.03573e-05 -2.34369e-05        00000 
-7.53262e-06  1.05585e-05        00000 
 6.96202e-06  3.21794e-07        00000 
-8.96939e-06 -7.77367e-06        00000 
 2.77741e-06 -1.87743e-05        00000 
-4.84876e-06 -1.25556e-05        00000 
-2.90689e-05 -2.86374e-05        00000 
-1.56477e-06 -2.89528e-06        00000 
-4.52067e-05 -1.65462e-05        00000 
-1.42087e-05 -4.17825e-06        00000 
-1.24426e-05  1.45413e-05        00000 
 4.84947e-06 -7.06375e-06        00000 
-3.72712e-05  3.50401e-06        00000 
 3.58475e-05  2.61106e-05        00000 
 5.39700e-06 -3.08514e-05        00000 
-8.32743e-06  7.14305e-06        00000 
 5.59708e-06  2.21432e-05        00000 
-1.13522e-05  1.12955e-05        00000 
 4.29212e-05  1.99593e-05        00000 
 1.42023e-05  2.34898e-05        00000 
-1.40908e-05 -3.35807e-06        00000 
 1.58432e-05  1.23233e-05        00000 
 2.71208e-06  2.48633e-05        00000 
 5.49743e-06  1.76472e-05        00000 
 3.06852e-05  2.90956e-05        00000 
 2.43046e-05 -1.93515e-05        00000 
-1.10746e-05 -1.00948e-05        00000 
-1.50116e-05  1.16554e-05        00000 
-1.41353e-05 -1.74781e-05        00000 
-6.55837e-08 -4.97922e-06        00000 
-1.64950e-05  5.08584e-06        00000 
-1.51359e-06 -2.02592e-05        00000 
 2.77107e-06 -9.78377e-06        00000 
-6.35427e-06  1.83959e-05        00000 
 2.00767e-06 -9.43048e-06        00000 
 1.55149e-06  2.09341e-05        00000 
-4.92285e-05  2.01575e-05        00000 
 1.03511e-05 -1.67320e-05        00000 
-7.23633e-06 -1.92580e-05        00000 
-1.86309e-05  1.97004e-05        00000 
 2.50961e-05 -4.03909e-06        00000 
 1.49242e-06  2.30012e-06        00000 
-6.23857e-06  8.21276e-06        00000 
 6.78618e-06  4.04251e-05        00000 
 1.39679e-05 -2.16831e-05        00000 
 6.60159e-06 -2.43174e-05        00000 
-8.78380e-06  2.00896e-05        00000 
 2.08347e-06 -1.05981e-05        00000 
 1.42580e-05  2.37923e-05        00000 
-1.06068e-05  9.32606e-06        00000 
 4.13873e-06 -2.00258e-06        00000 
 7.52024e-06  2.64793e-05        00000 
 8.24621e-06 -7.25288e-06        00000 
-4.89087e-06  1.56977e-06        00000 
-7.24660e-06  3.00069e-05        00000 
-1.58807e-05  5.99816e-07        00000 
-2.68668e-05 -2.40131e-06        00000 
-2.60887e-06  2.33659e-05        00000 
 3.99729e-06 -1.76404e-05        00000 
-8.26281e-06  8.02378e-06        00000 
 5.98812e-06  3.64424e-05        00000 
-4.00239e-06 -5.60486e-07        00000 
-1.45067e-05 -3.30560e-06        00000 
-2.55412e-05  2.46360e-05        00000 
-1.86899e-05  7.06108e-06        00000 
 9.51302e-06 -1.82334e-05        00000 
-4.72299e-05  3.77746e-06        00000 
-2.02101e-05  6.61290e-06        00000 
-1.42927e-05 -3.92418e-05        00000 
-1.61615e-05  5.05818e-06        00000 
-7.22791e-06  1.37071e-05        00000 
-2.49110e-05  2.60203e-05        00000 
-2.44952e-06  4.05836e-05        00000 
 2.97007e-06 -1.42857e-05        00000 
 3.00580e-06  1.80382e-05        00000 
-2.42886e-05  3.00857e-05        00000 
 3.10729e-06  7.93838e-07        00000 
-9.38769e-06  9.88074e-07        00000 
-1.08609e-05 -7.10769e-06        00000 
-1.29365e-05 -9.01284e-06        00000 
-1.54235e-05 -2.58234e-06        00000 
-1.45050e-05  1.02876e-05        00000 
 1.77725e-05 -5.89770e-06        00000 
-2.82677e-05 -5.13738e-06        00000 
-8.45654e-06 -1.39433e-06        00000 
-3.09732e-05  6.73188e-06        00000 
 2.44532e-07  5.91140e-06        00000 
-5.78519e-06 -7.77172e-06        00000 
-1.83235e-05  2.01438e-05        00000 
-3.39793e-05 -1.27195e-06        00000 
-3.96966e-05 -2.00531e-06        00000 
-5.50253e-06  1.05915e-05        00000 
-1.70301e-05  2.88554e-05        00000 
-1.98415e-05 -1.37744e-05        00000 
 1.51683e-05  3.41514e-05        00000 
-1.37128e-07 -9.87356e-06        00000 
 9.01825e-06  5.41307e-06        00000 
-8.15287e-06  5.21541e-05        00000 
 4.27063e-06  8.23345e-06        00000 
 1.86913e-05  1.32139e-05        00000 
 8.45188e-06  2.58365e-05        00000 
-1.99336e-05  1.12574e-06        00000 
 4.32734e-05  1.90352e-05        00000 
 8.85609e-06 -1.91590e-06        00000 
 1.67411e-05 -7.17983e-06        00000 
 2.02770e-05  1.42480e-05        00000 
 1.68245e-05  2.65656e-05        00000 
-5.93085e-05 -1.17768e-05        00000 
-6.02693e-06 -4.33604e-06        00000 
-1.18728e-05  2.24320e-05        00000 
-3.21951e-05  1.17446e-05        00000 
 3.93097e-06  3.38569e-06        00000 
-1.23207e-05  2.43798e-05        00000 
-2.21617e-05 -6.89630e-06        00000 
 7.35547e-06  5.42263e-06        00000 
 2.33723e-06  3.28106e-05        00000 
-1.44550e-05  9.64999e-06        00000 
-1.77192e-05 -7.02191e-06        00000 
-6.45181e-06  4.10814e-06        00000 
-2.92569e-05  1.85500e-05        00000 
 1.32504e-05  4.69227e-06        00000 
-3.48348e-06 -1.69641e-06        00000 
-3.78245e-06  5.45151e-05        00000 
-4.06424e-06  1.08052e-05        00000 
 1.88542e-05  8.22870e-05        00000 
 8.85861e-06 -3.50189e-05        00000 
 4.39407e-06 -8.37272e-06        00000 
-7.41304e-06  6.61633e-06        00000 
 9.21945e-06 -1.38153e-05        00000 
 2.13381e-05  1.88249e-05        00000 
 3.28713e-06  3.57042e-05        00000 
-1.13927e-05  3.91514e-06        00000 
-1.25895e-07  4.92655e-07        00000 
-1.92353e-05  2.17595e-05        00000 
-1.28885e-06  1.87529e-05        00000 
 6.43559e-06  2.04775e-05        00000 
-3.11152e-06  2.54229e-05        00000 
-9.19027e-06  1.67969e-05        00000 
-7.64991e-06 -1.37780e-05        00000 
 8.91998e-07  4.34203e-06        00000 
 5.21746e-06  4.74810e-06        00000 
 9.18418e-06 -5.76029e-06        00000 
-2.30591e-05 -5.54270e-06        00000 
 2.23533e-05  1.35104e-05        00000 
 8.82771e-07  2.18060e-05        00000 
-5.10676e-06  1.20883e-05        00000 
 2.32054e-05 -3.10612e-05        00000 
 4.56157e-06 -9.12041e-06        00000 
-2.89934e-05  6.09193e-05        00000 
-2.83677e-06 -9.26600e-05        00000 
-1.62804e-05 -2.17972e-06        00000 
-1.13226e-05 -2.29847e-05        00000 
 2.01381e-05 -2.88951e-05        00000 
 1.51611e-05  9.25915e-06        00000 
 1.55933e-06  8.69523e-07        00000 
 6.56680e-06  2.81398e-06        00000 
-4.73452e-07 -8.14868e-06        00000 
-4.85356e-06 -1.08311e-05        00000 
-2.58450e-06 -4.34728e-06        00000 
-8.84540e-06  1.39714e-05        00000 
-4.66052e-06  2.28003e-05        00000 
-3.77103e-06  6.28824e-06        00000 
 1.48178e-05 -1.00470e-05        00000 
-1.53918e-05 -6.54390e-06        00000 
-7.23043e-06 -4.52710e-06        00000 
 2.30113e-05  1.31177e-05        00000 
-2.09666e-05  9.40425e-06        00000 
-4.61703e-06  9.28665e-06        00000 
 8.36452e-06 -7.28996e-06        00000 
 2.48810e-05 -8.53564e-06        00000 
 1.68278e-05  8.78429e-07        00000 
 2.14691e-05 -9.96550e-06        00000 
 8.92716e-07  6.13379e-06        00000 
 4.53859e-06 -3.27748e-06        00000 
-9.55854e-06  5.74060e-06        00000 
 1.21277e-05 -5.05036e-06        00000 
-8.62788e-06  1.17697e-05        00000 
-9.20962e-07  6.57249e-06        00000 
-1.53127e-05 -3.11970e-06        00000 
-4.36472e-06  7.35372e-07        00000 
-1.23050e-06  3.72977e-06        00000 
-6.42864e-06  1.24094e-06        00000 
-9.22460e-06 -2.68239e-05        00000 
 2.43550e-06 -1.87165e-06        00000 
 1.15620e-06 -1.40264e-05        00000 
 2.82948e-05  1.96332e-05        00000 
-2.77343e-06  7.56349e-06        00000 
-8.19367e-07 -1.16436e-05        00000 
 1.88127e-05 -9.52031e-06        00000 
-1.34679e-05  8.61301e-06        00000 
-1.15164e-05  1.32546e-05        00000 
 3.02492e-05  7.10645e-06        00000 
-1.02265e-05 -2.99924e-06        00000 
 1.04681e-05 -2.06319e-05        00000 
-4.59547e-06  4.87144e-06        00000 
 1.49848e-05  7.68976e-06        00000 
-6.49342e-06  8.70378e-06        00000 
 1.11897e-05  2.14281e-05        00000 
 2.27195e-06  9.87300e-06        00000 
-2.83886e-06  1.61266e-05        00000 
 1.59156e-05  1.48354e-05        00000 
 2.13934e-06 -5.83386e-06        00000 
 1.34142e-05  1.18515e-05        00000 
 3.06585e-07 -4.68341e-07        00000 
-1.48173e-05  4.25902e-05        00000 
 5.34842e-06 -1.35974e-05        00000 
 1.14567e-06  1.15171e-05        00000 
-8.40277e-06  3.06281e-05        00000 
-1.63459e-05  1.62471e-05        00000 
 1.92475e-06  1.99068e-05        00000 
 7.65963e-06  2.44920e-06        00000 
 9.87284e-06  8.66249e-06        00000 
 1.70580e-05  7.62049e-07        00000 
 1.33719e-05  2.77239e-05        00000 
 6.62777e-06  2.73461e-05        00000 
-3.01971e-05  3.16109e-05        00000 
-1.39216e-06 -1.59923e-05        00000 
-4.15596e-06  2.66006e-05        00000 
-2.01816e-05  1.75520e-05        00000 
-3.94215e-06  2.00603e-06        00000 
-3.48208e-06  3.38645e-05        00000 
-2.24939e-05 -2.34460e-05        00000 
-1.85013e-05  3.13401e-05        00000 