<?xml version="1.0" encoding="utf-8"?>
<VTKFile byte_order="LittleEndian" type="UnstructuredGrid" version="0.1">
   <UnstructuredGrid>
      <Piece NumberOfCells="1296" NumberOfPoints="685">
         <Points>
            <DataArray Name="Points" NumberOfComponents="3" format="ascii" type="Float32">
0.0000 0.0000 0.0000
0.0000 0.1111 0.0000
0.0000 0.2222 0.0000
0.0000 0.3333 0.0000
0.0000 0.4444 0.0000
0.0000 0.5556 0.0000
0.0000 0.6667 0.0000
0.0000 0.7778 0.0000
0.0000 0.8889 0.0000
0.0000 1.0000 0.0000
0.2222 0.0000 0.0000
0.2222 0.1111 0.0000
0.2222 0.2222 0.0000
0.2222 0.3333 0.0000
0.2222 0.4444 0.0000
0.2222 0.5556 0.0000
0.2222 0.6667 0.0000
0.2222 0.7778 0.0000
0.2222 0.8889 0.0000
0.2222 1.0000 0.0000
0.4444 0.0000 0.0000
0.4444 0.1111 0.0000
0.4444 0.2222 0.0000
0.4444 0.3333 0.0000
0.4444 0.4444 0.0000
0.4444 0.5556 0.0000
0.4444 0.6667 0.0000
0.4444 0.7778 0.0000
0.4444 0.8889 0.0000
0.4444 1.0000 0.0000
0.6667 0.0000 0.0000
0.6667 0.1111 0.0000
0.6667 0.2222 0.0000
0.6667 0.3333 0.0000
0.6667 0.4444 0.0000
0.6667 0.5556 0.0000
0.6667 0.6667 0.0000
0.6667 0.7778 0.0000
0.6667 0.8889 0.0000
0.6667 1.0000 0.0000
0.8889 0.0000 0.0000
0.8889 0.1111 0.0000
0.8889 0.2222 0.0000
0.8889 0.3333 0.0000
0.8889 0.4444 0.0000
0.8889 0.5556 0.0000
0.8889 0.6667 0.0000
0.8889 0.7778 0.0000
0.8889 0.8889 0.0000
0.8889 1.0000 0.0000
1.1111 0.0000 0.0000
1.1111 0.1111 0.0000
1.1111 0.2222 0.0000
1.1111 0.3333 0.0000
1.1111 0.4444 0.0000
1.1111 0.5556 0.0000
1.1111 0.6667 0.0000
1.1111 0.7778 0.0000
1.1111 0.8889 0.0000
1.1111 1.0000 0.0000
1.3333 0.0000 0.0000
1.3333 0.1111 0.0000
1.3333 0.2222 0.0000
1.3333 0.3333 0.0000
1.3333 0.4444 0.0000
1.3333 0.5556 0.0000
1.3333 0.6667 0.0000
1.3333 0.7778 0.0000
1.3333 0.8889 0.0000
1.3333 1.0000 0.0000
1.5556 0.0000 0.0000
1.5556 0.1111 0.0000
1.5556 0.2222 0.0000
1.5556 0.3333 0.0000
1.5556 0.4444 0.0000
1.5556 0.5556 0.0000
1.5556 0.6667 0.0000
1.5556 0.7778 0.0000
1.5556 0.8889 0.0000
1.5556 1.0000 0.0000
1.7778 0.0000 0.0000
1.7778 0.1111 0.0000
1.7778 0.2222 0.0000
1.7778 0.3333 0.0000
1.7778 0.4444 0.0000
1.7778 0.5556 0.0000
1.7778 0.6667 0.0000
1.7778 0.7778 0.0000
1.7778 0.8889 0.0000
1.7778 1.0000 0.0000
2.0000 0.0000 0.0000
2.0000 0.1111 0.0000
2.0000 0.2222 0.0000
2.0000 0.3333 0.0000
2.0000 0.4444 0.0000
2.0000 0.5556 0.0000
2.0000 0.6667 0.0000
2.0000 0.7778 0.0000
2.0000 0.8889 0.0000
2.0000 1.0000 0.0000
0.1111 0.0556 0.0000
0.1111 0.1667 0.0000
0.1111 0.2778 0.0000
0.1111 0.3889 0.0000
0.1111 0.5000 0.0000
0.1111 0.6111 0.0000
0.1111 0.7222 0.0000
0.1111 0.8333 0.0000
0.1111 0.9444 0.0000
0.3333 0.0556 0.0000
0.3333 0.1667 0.0000
0.3333 0.2778 0.0000
0.3333 0.3889 0.0000
0.3333 0.5000 0.0000
0.3333 0.6111 0.0000
0.3333 0.7222 0.0000
0.3333 0.8333 0.0000
0.3333 0.9444 0.0000
0.5556 0.0556 0.0000
0.5556 0.1667 0.0000
0.5556 0.2778 0.0000
0.5556 0.3889 0.0000
0.5556 0.5000 0.0000
0.5556 0.6111 0.0000
0.5556 0.7222 0.0000
0.5556 0.8333 0.0000
0.5556 0.9444 0.0000
0.7778 0.0556 0.0000
0.7778 0.1667 0.0000
0.7778 0.2778 0.0000
0.7778 0.3889 0.0000
0.7778 0.5000 0.0000
0.7778 0.6111 0.0000
0.7778 0.7222 0.0000
0.7778 0.8333 0.0000
0.7778 0.9444 0.0000
1.0000 0.0556 0.0000
1.0000 0.1667 0.0000
1.0000 0.2778 0.0000
1.0000 0.3889 0.0000
1.0000 0.5000 0.0000
1.0000 0.6111 0.0000
1.0000 0.7222 0.0000
1.0000 0.8333 0.0000
1.0000 0.9444 0.0000
1.2222 0.0556 0.0000
1.2222 0.1667 0.0000
1.2222 0.2778 0.0000
1.2222 0.3889 0.0000
1.2222 0.5000 0.0000
1.2222 0.6111 0.0000
1.2222 0.7222 0.0000
1.2222 0.8333 0.0000
1.2222 0.9444 0.0000
1.4444 0.0556 0.0000
1.4444 0.1667 0.0000
1.4444 0.2778 0.0000
1.4444 0.3889 0.0000
1.4444 0.5000 0.0000
1.4444 0.6111 0.0000
1.4444 0.7222 0.0000
1.4444 0.8333 0.0000
1.4444 0.9444 0.0000
1.6667 0.0556 0.0000
1.6667 0.1667 0.0000
1.6667 0.2778 0.0000
1.6667 0.3889 0.0000
1.6667 0.5000 0.0000
1.6667 0.6111 0.0000
1.6667 0.7222 0.0000
1.6667 0.8333 0.0000
1.6667 0.9444 0.0000
1.8889 0.0556 0.0000
1.8889 0.1667 0.0000
1.8889 0.2778 0.0000
1.8889 0.3889 0.0000
1.8889 0.5000 0.0000
1.8889 0.6111 0.0000
1.8889 0.7222 0.0000
1.8889 0.8333 0.0000
1.8889 0.9444 0.0000
0.0000 0.0556 0.0000
0.0556 0.0278 0.0000
0.0556 0.0833 0.0000
0.0000 0.1667 0.0000
0.0556 0.1389 0.0000
0.0556 0.1944 0.0000
0.0000 0.2778 0.0000
0.0556 0.2500 0.0000
0.0556 0.3056 0.0000
0.0000 0.3889 0.0000
0.0556 0.3611 0.0000
0.0556 0.4167 0.0000
0.0000 0.5000 0.0000
0.0556 0.4722 0.0000
0.0556 0.5278 0.0000
0.0000 0.6111 0.0000
0.0556 0.5833 0.0000
0.0556 0.6389 0.0000
0.0000 0.7222 0.0000
0.0556 0.6944 0.0000
0.0556 0.7500 0.0000
0.0000 0.8333 0.0000
0.0556 0.8056 0.0000
0.0556 0.8611 0.0000
0.0000 0.9444 0.0000
0.0556 0.9167 0.0000
0.0556 0.9722 0.0000
0.2222 0.0556 0.0000
0.2778 0.0278 0.0000
0.2778 0.0833 0.0000
0.2222 0.1667 0.0000
0.2778 0.1389 0.0000
0.2778 0.1944 0.0000
0.2222 0.2778 0.0000
0.2778 0.2500 0.0000
0.2778 0.3056 0.0000
0.2222 0.3889 0.0000
0.2778 0.3611 0.0000
0.2778 0.4167 0.0000
0.2222 0.5000 0.0000
0.2778 0.4722 0.0000
0.2778 0.5278 0.0000
0.2222 0.6111 0.0000
0.2778 0.5833 0.0000
0.2778 0.6389 0.0000
0.2222 0.7222 0.0000
0.2778 0.6944 0.0000
0.2778 0.7500 0.0000
0.2222 0.8333 0.0000
0.2778 0.8056 0.0000
0.2778 0.8611 0.0000
0.2222 0.9444 0.0000
0.2778 0.9167 0.0000
0.2778 0.9722 0.0000
0.4444 0.0556 0.0000
0.5000 0.0278 0.0000
0.5000 0.0833 0.0000
0.4444 0.1667 0.0000
0.5000 0.1389 0.0000
0.5000 0.1944 0.0000
0.4444 0.2778 0.0000
0.5000 0.2500 0.0000
0.5000 0.3056 0.0000
0.4444 0.3889 0.0000
0.5000 0.3611 0.0000
0.5000 0.4167 0.0000
0.4444 0.5000 0.0000
0.5000 0.4722 0.0000
0.5000 0.5278 0.0000
0.4444 0.6111 0.0000
0.5000 0.5833 0.0000
0.5000 0.6389 0.0000
0.4444 0.7222 0.0000
0.5000 0.6944 0.0000
0.5000 0.7500 0.0000
0.4444 0.8333 0.0000
0.5000 0.8056 0.0000
0.5000 0.8611 0.0000
0.4444 0.9444 0.0000
0.5000 0.9167 0.0000
0.5000 0.9722 0.0000
0.6667 0.0556 0.0000
0.7222 0.0278 0.0000
0.7222 0.0833 0.0000
0.6667 0.1667 0.0000
0.7222 0.1389 0.0000
0.7222 0.1944 0.0000
0.6667 0.2778 0.0000
0.7222 0.2500 0.0000
0.7222 0.3056 0.0000
0.6667 0.3889 0.0000
0.7222 0.3611 0.0000
0.7222 0.4167 0.0000
0.6667 0.5000 0.0000
0.7222 0.4722 0.0000
0.7222 0.5278 0.0000
0.6667 0.6111 0.0000
0.7222 0.5833 0.0000
0.7222 0.6389 0.0000
0.6667 0.7222 0.0000
0.7222 0.6944 0.0000
0.7222 0.7500 0.0000
0.6667 0.8333 0.0000
0.7222 0.8056 0.0000
0.7222 0.8611 0.0000
0.6667 0.9444 0.0000
0.7222 0.9167 0.0000
0.7222 0.9722 0.0000
0.8889 0.0556 0.0000
0.9444 0.0278 0.0000
0.9444 0.0833 0.0000
0.8889 0.1667 0.0000
0.9444 0.1389 0.0000
0.9444 0.1944 0.0000
0.8889 0.2778 0.0000
0.9444 0.2500 0.0000
0.9444 0.3056 0.0000
0.8889 0.3889 0.0000
0.9444 0.3611 0.0000
0.9444 0.4167 0.0000
0.8889 0.5000 0.0000
0.9444 0.4722 0.0000
0.9444 0.5278 0.0000
0.8889 0.6111 0.0000
0.9444 0.5833 0.0000
0.9444 0.6389 0.0000
0.8889 0.7222 0.0000
0.9444 0.6944 0.0000
0.9444 0.7500 0.0000
0.8889 0.8333 0.0000
0.9444 0.8056 0.0000
0.9444 0.8611 0.0000
0.8889 0.9444 0.0000
0.9444 0.9167 0.0000
0.9444 0.9722 0.0000
1.1111 0.0556 0.0000
1.1667 0.0278 0.0000
1.1667 0.0833 0.0000
1.1111 0.1667 0.0000
1.1667 0.1389 0.0000
1.1667 0.1944 0.0000
1.1111 0.2778 0.0000
1.1667 0.2500 0.0000
1.1667 0.3056 0.0000
1.1111 0.3889 0.0000
1.1667 0.3611 0.0000
1.1667 0.4167 0.0000
1.1111 0.5000 0.0000
1.1667 0.4722 0.0000
1.1667 0.5278 0.0000
1.1111 0.6111 0.0000
1.1667 0.5833 0.0000
1.1667 0.6389 0.0000
1.1111 0.7222 0.0000
1.1667 0.6944 0.0000
1.1667 0.7500 0.0000
1.1111 0.8333 0.0000
1.1667 0.8056 0.0000
1.1667 0.8611 0.0000
1.1111 0.9444 0.0000
1.1667 0.9167 0.0000
1.1667 0.9722 0.0000
1.3333 0.0556 0.0000
1.3889 0.0278 0.0000
1.3889 0.0833 0.0000
1.3333 0.1667 0.0000
1.3889 0.1389 0.0000
1.3889 0.1944 0.0000
1.3333 0.2778 0.0000
1.3889 0.2500 0.0000
1.3889 0.3056 0.0000
1.3333 0.3889 0.0000
1.3889 0.3611 0.0000
1.3889 0.4167 0.0000
1.3333 0.5000 0.0000
1.3889 0.4722 0.0000
1.3889 0.5278 0.0000
1.3333 0.6111 0.0000
1.3889 0.5833 0.0000
1.3889 0.6389 0.0000
1.3333 0.7222 0.0000
1.3889 0.6944 0.0000
1.3889 0.7500 0.0000
1.3333 0.8333 0.0000
1.3889 0.8056 0.0000
1.3889 0.8611 0.0000
1.3333 0.9444 0.0000
1.3889 0.9167 0.0000
1.3889 0.9722 0.0000
1.5556 0.0556 0.0000
1.6111 0.0278 0.0000
1.6111 0.0833 0.0000
1.5556 0.1667 0.0000
1.6111 0.1389 0.0000
1.6111 0.1944 0.0000
1.5556 0.2778 0.0000
1.6111 0.2500 0.0000
1.6111 0.3056 0.0000
1.5556 0.3889 0.0000
1.6111 0.3611 0.0000
1.6111 0.4167 0.0000
1.5556 0.5000 0.0000
1.6111 0.4722 0.0000
1.6111 0.5278 0.0000
1.5556 0.6111 0.0000
1.6111 0.5833 0.0000
1.6111 0.6389 0.0000
1.5556 0.7222 0.0000
1.6111 0.6944 0.0000
1.6111 0.7500 0.0000
1.5556 0.8333 0.0000
1.6111 0.8056 0.0000
1.6111 0.8611 0.0000
1.5556 0.9444 0.0000
1.6111 0.9167 0.0000
1.6111 0.9722 0.0000
1.7778 0.0556 0.0000
1.8333 0.0278 0.0000
1.8333 0.0833 0.0000
1.7778 0.1667 0.0000
1.8333 0.1389 0.0000
1.8333 0.1944 0.0000
1.7778 0.2778 0.0000
1.8333 0.2500 0.0000
1.8333 0.3056 0.0000
1.7778 0.3889 0.0000
1.8333 0.3611 0.0000
1.8333 0.4167 0.0000
1.7778 0.5000 0.0000
1.8333 0.4722 0.0000
1.8333 0.5278 0.0000
1.7778 0.6111 0.0000
1.8333 0.5833 0.0000
1.8333 0.6389 0.0000
1.7778 0.7222 0.0000
1.8333 0.6944 0.0000
1.8333 0.7500 0.0000
1.7778 0.8333 0.0000
1.8333 0.8056 0.0000
1.8333 0.8611 0.0000
1.7778 0.9444 0.0000
1.8333 0.9167 0.0000
1.8333 0.9722 0.0000
0.1111 0.1111 0.0000
0.1667 0.0833 0.0000
0.1111 0.2222 0.0000
0.1667 0.1944 0.0000
0.1111 0.3333 0.0000
0.1667 0.3056 0.0000
0.1111 0.4444 0.0000
0.1667 0.4167 0.0000
0.1111 0.5556 0.0000
0.1667 0.5278 0.0000
0.1111 0.6667 0.0000
0.1667 0.6389 0.0000
0.1111 0.7778 0.0000
0.1667 0.7500 0.0000
0.1111 0.8889 0.0000
0.1667 0.8611 0.0000
0.1111 1.0000 0.0000
0.1667 0.9722 0.0000
0.3333 0.1111 0.0000
0.3889 0.0833 0.0000
0.3333 0.2222 0.0000
0.3889 0.1944 0.0000
0.3333 0.3333 0.0000
0.3889 0.3056 0.0000
0.3333 0.4444 0.0000
0.3889 0.4167 0.0000
0.3333 0.5556 0.0000
0.3889 0.5278 0.0000
0.3333 0.6667 0.0000
0.3889 0.6389 0.0000
0.3333 0.7778 0.0000
0.3889 0.7500 0.0000
0.3333 0.8889 0.0000
0.3889 0.8611 0.0000
0.3333 1.0000 0.0000
0.3889 0.9722 0.0000
0.5556 0.1111 0.0000
[...]
         <PointData>
            <DataArray Name="fValues" NumberOfComponents="3" format="ascii" type="Float64">
-5.13513e-20        00000        00000 
 9.67197e-20 -2.52882e-19        00000 
-2.54339e-19  6.07204e-20        00000 
       00000 -1.60538e-19        00000 
 3.15868e-19  2.36241e-20        00000 
 3.91312e-20        00000        00000 
 2.51818e-21 -8.38554e-20        00000 
-8.01966e-20  4.81180e-20        00000 
-9.67428e-20 -4.03095e-21        00000 
-7.46927e-20  1.12039e-19        00000 
-1.03666e-03  1.91475e-04        00000 
 5.83822e-04  1.55390e-03        00000 
 1.02567e-03 -3.99610e-04        00000 
-7.96057e-04 -1.14408e-04        00000 
 1.60631e-04 -9.35287e-04        00000 
-7.87293e-05  4.78091e-04        00000 
-1.10505e-04 -4.85541e-06        00000 
 5.17178e-04  5.92413e-04        00000 
-3.63204e-04 -1.05203e-04        00000 
-2.19554e-04  7.14422e-04        00000 
 1.55389e-04  1.50243e-04        00000 
 1.49308e-03  2.39950e-04        00000 
 1.11974e-03 -1.00431e-03        00000 
-1.09722e-03 -1.89124e-03        00000 
 1.06763e-03 -7.94025e-04        00000 
 1.55767e-03  6.79016e-04        00000 
 1.47831e-03  9.66169e-04        00000 
 5.41917e-04 -1.52042e-03        00000 
 4.03608e-04 -4.68449e-04        00000 
 2.19483e-04 -8.08527e-04        00000 
 7.73719e-04  5.99910e-04        00000 
 2.88407e-04  1.38606e-03        00000 
 5.98363e-04  4.06645e-04        00000 
-1.53279e-03 -5.05785e-04        00000 
 4.43023e-04 -5.55148e-04        00000 
 2.07515e-03  4.15678e-04        00000 
 2.80994e-04  1.14516e-03        00000 
-4.64226e-04  6.38673e-05        00000 
-2.99481e-04 -2.85275e-04        00000 
-1.26189e-03  3.97074e-03        00000 
-1.21593e-03  1.31309e-04        00000 
-3.78693e-05  2.42227e-03        00000 
-3.36027e-04 -1.15444e-03        00000 
 3.48205e-04  5.42308e-04        00000 
-9.32963e-05  9.50665e-04        00000 
-1.03749e-03 -2.84271e-04        00000 
-6.20759e-05  1.78734e-03        00000 
 8.81495e-04  3.09865e-04        00000 
-1.36756e-03 -7.90143e-04        00000 
-8.50103e-04  4.20894e-04        00000 
 8.22016e-04 -2.96466e-03        00000 
-4.46749e-04 -3.53478e-04        00000 
-4.92559e-04  1.58659e-03        00000 
-4.63372e-04  5.16712e-04        00000 
-6.14194e-04 -2.60734e-04        00000 
 7.70088e-04  8.21120e-04        00000 
 7.22928e-04  2.55654e-03        00000 
-2.98420e-04  2.71028e-04        00000 
-1.80877e-03 -1.38808e-03        00000 
-2.42519e-03  1.20717e-04        00000 
 2.98553e-04 -5.35963e-04        00000 
 2.89403e-04  2.42215e-04        00000 
-1.06669e-04 -2.44326e-04        00000 
 8.55953e-04  1.81535e-03        00000 
 3.07449e-05 -1.97850e-04        00000 
 9.25085e-04 -2.21726e-04        00000 
 5.10958e-04  4.50867e-05        00000 
 1.73002e-04 -1.10557e-04        00000 
-1.21694e-03  6.75685e-04        00000 
 4.47774e-04  1.00631e-03        00000 
-7.47678e-05 -4.37977e-04        00000 
 2.56267e-05  4.70852e-04        00000 
 2.04624e-03  1.94736e-04        00000 
 1.69926e-03  1.32012e-03        00000 
 4.12004e-04  9.78000e-04        00000 
-3.48650e-04 -8.49229e-04        00000 
 7.57430e-04 -8.11724e-04        00000 
-5.44524e-04  1.61550e-03        00000 
 3.74235e-04 -1.06619e-03        00000 
-4.05416e-04 -1.64297e-03        00000 
 1.40289e-03 -3.33677e-03        00000 
 7.03937e-04 -9.52811e-04        00000 
 5.36541e-04 -2.39564e-05        00000 
 7.74713e-04 -8.16365e-05        00000 
 1.41716e-03  3.04773e-04        00000 
 1.03444e-03  3.69853e-04        00000 
 4.72310e-04  1.65827e-03        00000 
 4.51127e-04  7.41276e-04        00000 
-1.99456e-03  1.15347e-03        00000 
-2.10203e-04  5.57777e-03        00000 
 1.68478e-03 -3.79597e-04        00000 
 1.62270e-03  1.66127e-04        00000 
 4.96848e-04 -9.78614e-05        00000 
 8.71487e-04 -2.99442e-05        00000 
 2.63091e-03 -9.53771e-04        00000 
 1.08968e-03 -1.51079e-04        00000 
 4.67080e-04  1.46900e-03        00000 
 2.25896e-04  1.46864e-03        00000 
 3.64333e-04  7.48325e-04        00000 
 9.60462e-05  9.26836e-05        00000 
-4.87753e-04  4.92084e-04        00000 
 1.11825e-03  2.24763e-04        00000 
 1.09948e-03 -4.55226e-04        00000 
-1.15201e-04  8.27372e-04        00000 
-7.53476e-04  4.60216e-04        00000 
-4.88378e-04 -2.09949e-04        00000 
-1.60199e-04  2.52063e-04        00000 
-1.75867e-04  2.02084e-04        00000 
-7.59481e-04 -3.48412e-04        00000 
-2.39244e-04 -4.61058e-04        00000 
 1.64335e-03  8.16104e-04        00000 
 2.01737e-03 -2.41969e-05        00000 
 1.01948e-04 -5.23961e-04        00000 
-5.72693e-04 -1.69877e-04        00000 
 2.22523e-04  1.39084e-03        00000 
-3.32914e-05  1.09129e-03        00000 
 4.49293e-04  3.35567e-05        00000 
 8.00161e-04 -9.49107e-05        00000 
 9.76067e-04  1.46116e-05        00000 
 4.35103e-04 -5.40116e-04        00000 
 1.40322e-04 -7.58146e-04        00000 
 5.13852e-05  7.23449e-05        00000 
-9.50887e-05 -9.01177e-04        00000 
 1.19062e-03  1.04908e-03        00000 
 1.66593e-04  4.31658e-04        00000 
 1.01136e-03  3.45075e-04        00000 
 1.70724e-03 -5.93794e-04        00000 
-5.14027e-04 -8.63071e-04        00000 
-4.07684e-04  2.77940e-04        00000 
-8.70077e-04  2.03731e-04        00000 
 1.22914e-03  1.04951e-04        00000 
 3.09516e-05 -1.18703e-03        00000 
-4.27055e-05 -4.38533e-04        00000 
 4.92940e-04 -1.31547e-03        00000 
-4.99469e-04 -6.91269e-04        00000 
-1.45938e-03 -7.57442e-04        00000 
-2.40192e-04  1.05467e-03        00000 
 6.73850e-04  1.31283e-03        00000 
-3.49747e-04  1.01791e-03        00000 
 2.43328e-04 -1.20135e-03        00000 
 2.32132e-04 -8.15027e-04        00000 
-8.20719e-05 -9.68653e-04        00000 
-1.79748e-03 -4.54486e-04        00000 
-9.45992e-04  2.44587e-04        00000 
 3.12450e-04  3.79753e-04        00000 
-1.18135e-03  3.47406e-04        00000 
-1.04568e-03 -1.18349e-04        00000 
-1.03512e-03 -5.34167e-04        00000 
 9.05352e-04 -8.57146e-04        00000 
 8.70961e-04 -1.92384e-05        00000 
-4.48622e-05  3.01006e-05        00000 
-3.29940e-04  8.49658e-04        00000 
 5.81960e-04 -3.06663e-05        00000 
-1.52486e-03 -4.46539e-04        00000 
-3.53909e-05  7.37944e-04        00000 
 2.78692e-04  2.39882e-04        00000 
-1.35505e-03  5.53863e-04        00000 
 6.97612e-04 -2.79061e-04        00000 
-2.02493e-03 -1.12641e-03        00000 
-1.75517e-03 -1.47274e-03        00000 
-2.50200e-04 -1.34944e-04        00000 
-8.87781e-04  8.25590e-04        00000 
-1.05203e-03  1.21673e-03        00000 
 6.87622e-04  2.70127e-03        00000 
 4.85737e-04  2.96834e-04        00000 
 5.20193e-04 -4.36267e-04        00000 
 2.53724e-04 -9.57745e-04        00000 
 3.83723e-04 -2.93458e-04        00000 
 1.37356e-03  1.38693e-03        00000 
 2.11837e-03  7.39647e-04        00000 
 1.82667e-03 -5.09901e-04        00000 
 5.59736e-04  3.80403e-04        00000 
-4.33542e-04  3.97378e-04        00000 
 3.24062e-04  1.06363e-03        00000 
-2.49417e-04  3.61608e-05        00000 
 1.06087e-03  2.84812e-05        00000 
 1.07532e-03  1.02926e-03        00000 
-1.52364e-04  1.42448e-03        00000 
-5.96649e-05  1.47712e-03        00000 
 6.31938e-04  2.59744e-03        00000 
-1.81293e-04 -6.54345e-04        00000 
 6.99996e-20 -1.61041e-19        00000 
-1.12264e-04  2.10237e-04        00000 
 7.24213e-04 -1.36528e-03        00000 
-3.34988e-21 -1.01201e-20        00000 
-3.21752e-04 -5.58903e-04        00000 
 3.17312e-04 -3.28096e-04        00000 
-1.21973e-19 -2.43945e-19        00000 
-1.50141e-03 -3.27542e-04        00000 
 2.61627e-04 -1.06508e-03        00000 
 8.34173e-21 -1.25910e-19        00000 
-9.44739e-04 -9.62187e-04        00000 
 1.16647e-03 -2.51123e-04        00000 
 9.14796e-20        00000        00000 
 4.05110e-04  3.10714e-04        00000 
 6.37850e-04 -7.42208e-06        00000 
-4.33007e-20  4.44691e-20        00000 
-1.09828e-05 -6.66846e-04        00000 
-3.51596e-04 -8.62964e-04        00000 
-4.57398e-20 -1.21973e-19        00000 
-3.60082e-04  1.05229e-03        00000 
 3.22836e-04 -6.93600e-04        00000 
       00000 -5.33631e-20        00000 
-7.45041e-04  5.48375e-04        00000 
-7.05387e-04 -1.36722e-04        00000 
 3.35142e-20 -4.70407e-20        00000 
-6.31500e-04  3.43887e-04        00000 
-4.68279e-04 -8.31615e-04        00000 
-1.18353e-03  4.46685e-05        00000 
-6.81289e-04 -2.63049e-04        00000 
 4.61667e-04  1.03132e-03        00000 
-1.46346e-04 -4.75572e-04        00000 
 2.39608e-04  1.58593e-03        00000 
-1.47855e-03 -3.62890e-04        00000 
-1.14682e-03 -1.42806e-03        00000 
-6.10886e-04  7.26917e-04        00000 
 6.38435e-06 -1.12453e-03        00000 
-5.28411e-04 -2.51219e-05        00000 
 9.26716e-04 -4.59489e-04        00000 
-1.28394e-03 -1.28910e-03        00000 
-1.62745e-03 -4.85408e-04        00000 
-4.44507e-04  7.35422e-04        00000 
-8.14936e-04  1.56284e-03        00000 
-6.09687e-04 -1.20116e-03        00000 
 8.82670e-05  2.73811e-04        00000 
-7.27062e-04  6.30444e-04        00000 
-1.87841e-04 -2.52178e-03        00000 
-7.49735e-04  8.47604e-04        00000 
-9.53970e-04  4.32498e-04        00000 
-8.13428e-04  6.77271e-04        00000 
 2.82226e-04  1.64265e-04        00000 
-8.54979e-04 -2.29111e-04        00000 
-8.75978e-04  1.31834e-03        00000 
-3.74519e-04 -1.50110e-04        00000 
-9.64074e-04  1.52949e-03        00000 
 6.41082e-04 -9.80664e-04        00000 
 1.52630e-03 -1.56206e-03        00000 
 4.19413e-04 -1.54542e-04        00000 
 7.21188e-04 -1.02380e-03        00000 
 4.01283e-04 -4.22146e-04        00000 
-6.86992e-04 -1.03016e-03        00000 
-7.95055e-04 -9.16645e-04        00000 
 3.15372e-04  1.51371e-04        00000 
 6.66901e-04 -2.29670e-04        00000 
 1.19673e-03  1.44591e-04        00000 
 6.27279e-05 -3.27738e-04        00000 
-3.84447e-05 -1.09915e-03        00000 
 2.01741e-03  3.15737e-04        00000 
-2.01539e-03  1.56419e-04        00000 
 2.21261e-04 -4.88266e-04        00000 
 1.05270e-03  5.98749e-04        00000 
-6.09685e-04  1.26235e-04        00000 
-1.85130e-03  2.34703e-04        00000 
 1.45091e-04 -1.19903e-03        00000 
-1.34803e-03 -1.84317e-03        00000 
-1.53478e-03  8.59634e-04        00000 
 5.91445e-04 -1.03646e-03        00000 
-1.32754e-03 -7.89021e-07        00000 
-2.79384e-04 -2.39486e-04        00000 
 2.59826e-05  2.20716e-03        00000 
 1.29957e-03 -8.65456e-04        00000 
 8.36526e-04 -1.33502e-03        00000 
-4.00531e-04  2.78686e-04        00000 
 9.96056e-04 -1.10952e-04        00000 
 3.88513e-04  7.21042e-04        00000 
 4.64749e-04 -9.13971e-04        00000 
-4.16664e-04  8.01703e-04        00000 
-8.31425e-04 -9.76616e-04        00000 
-7.46656e-04 -5.38344e-04        00000 
 2.53359e-04  5.01241e-04        00000 
 5.89631e-04  6.91116e-04        00000 
-1.23284e-03  3.33708e-05        00000 
 2.82441e-04 -1.16688e-03        00000 
 3.29612e-04 -9.13162e-04        00000 
-1.23384e-03 -9.57289e-04        00000 
-4.57679e-04  5.42652e-04        00000 
 1.56095e-04 -2.63236e-04        00000 
-5.30378e-04 -5.75766e-04        00000 
-2.21773e-04 -1.14612e-03        00000 
-3.39252e-04 -4.95322e-04        00000 
-1.83579e-03 -1.99286e-03        00000 
-4.28485e-04 -1.14001e-04        00000 
-2.68421e-03 -9.68107e-04        00000 
-4.80168e-04 -4.74018e-04        00000 
-9.22413e-04  1.11967e-03        00000 
 9.53104e-05 -3.18978e-04        00000 
-1.79789e-03  5.61557e-04        00000 
 2.02157e-03  2.46841e-03        00000 
 3.42511e-04 -2.13020e-03        00000 
-7.39141e-04  2.63809e-04        00000 
 2.12908e-04  1.09853e-03        00000 
-6.64281e-04  3.83314e-04        00000 
 2.19183e-03  1.08943e-03        00000 
 7.46312e-04  1.37437e-03        00000 
-1.14004e-03 -5.47762e-04        00000 
 1.01287e-04  4.38630e-04        00000 
-3.88013e-04  1.49637e-03        00000 
-4.19694e-04  1.45822e-03        00000 
 1.12257e-03  1.51667e-03        00000 
 6.89461e-04 -9.92115e-04        00000 
-9.71290e-04 -5.49787e-04        00000 
-9.53583e-04  2.15747e-04        00000 
-8.45857e-04 -5.77533e-04        00000 
-4.32822e-04 -7.47877e-04        00000 
-1.19797e-03 -2.90313e-04        00000 
-1.72334e-04 -8.64859e-04        00000 
-4.20825e-04 -8.19916e-04        00000 
-4.68453e-04  1.88945e-04        00000 
-2.76527e-04 -1.20552e-04        00000 
-1.91225e-04  1.17353e-03        00000 
-2.76319e-03  6.49751e-04        00000 
 6.07473e-04 -5.73897e-04        00000 
-5.19659e-05 -6.62568e-04        00000 
-1.02188e-03  8.65442e-04        00000 
 1.86337e-03 -6.76299e-05        00000 
 4.41890e-04  2.80139e-04        00000 
-6.18439e-04  4.10283e-04        00000 
 1.03499e-04  3.24767e-03        00000 
 2.86238e-04 -9.05744e-04        00000 
 3.49812e-04 -1.13205e-03        00000 
-5.54075e-04  1.86327e-03        00000 
 1.16272e-05 -3.18528e-04        00000 
 4.25680e-04  1.03924e-03        00000 
-6.75950e-04  1.19608e-03        00000 
-1.85807e-04  5.07165e-06        00000 
 3.50151e-04  9.83089e-04        00000 
 4.46407e-04 -2.49252e-04        00000 
-2.91611e-04  2.05623e-04        00000 
 5.25996e-05  1.62261e-03        00000 
-7.13302e-04 -1.83884e-05        00000 
-1.49380e-03 -5.30659e-04        00000 
 3.50256e-04  1.05036e-03        00000 
 4.63866e-04 -1.20494e-03        00000 
-4.12275e-04  1.90527e-04        00000 
 5.33226e-04  1.87031e-03        00000 
 6.61637e-05  2.64222e-05        00000 
-9.16816e-04 -3.17495e-04        00000 
-1.44597e-03  1.24612e-03        00000 
-1.00290e-03  1.11948e-04        00000 
 7.56540e-04 -7.93903e-04        00000 
-2.37880e-03  1.10615e-04        00000 
-1.10703e-03 -1.81219e-05        00000 
-6.29365e-04 -1.97055e-03        00000 
-8.79373e-04  3.08637e-04        00000 
 1.58784e-04  7.47561e-04        00000 
-1.32441e-03  1.06856e-03        00000 
-2.86217e-04  2.24700e-03        00000 
-3.98470e-05 -1.07187e-03        00000 
 9.85926e-05  8.85189e-04        00000 
-1.49051e-03  1.77250e-03        00000 
 1.51737e-04  1.55638e-04        00000 
-5.11212e-04 -2.13397e-05        00000 
-5.56381e-04  3.58307e-05        00000 
-3.83721e-04 -6.31854e-04        00000 
-1.04942e-03  2.34039e-04        00000 
-7.39547e-04  1.07515e-03        00000 
 1.04388e-03 -6.59607e-04        00000 
-1.77753e-03 -2.25113e-04        00000 
-2.52886e-04  5.16650e-04        00000 
-1.57130e-03  4.75824e-04        00000 
-2.56657e-05  2.65412e-04        00000 
-1.31116e-04  1.66821e-04        00000 
-7.35662e-04  1.28299e-03        00000 
-1.62311e-03 -8.39402e-05        00000 
-2.23285e-03  2.01130e-04        00000 
-1.59064e-04  1.07310e-03        00000 
-6.16027e-04  1.55471e-03        00000 
-1.41444e-03 -4.53296e-04        00000 
 9.10099e-04  1.79419e-03        00000 
 8.53025e-06 -5.20450e-05        00000 
 2.13272e-04  8.07742e-04        00000 
-4.01283e-04  2.65956e-03        00000 
 6.86748e-04  1.12628e-03        00000 
 7.07841e-04  1.14941e-03        00000 
 6.03707e-04  1.59416e-03        00000 
-6.65392e-04  5.20455e-05        00000 
 1.99409e-03  1.41340e-03        00000 
 2.29811e-04  2.07113e-04        00000 
 7.38895e-04 -2.98939e-04        00000 
 1.18781e-03  1.13885e-03        00000 
 2.22530e-04  9.67627e-04        00000 
-3.39656e-03 -3.00619e-04        00000 
-1.48107e-04 -2.32174e-04        00000 
-1.07150e-03  1.16842e-03        00000 
-1.73593e-03  9.04947e-04        00000 
 4.99793e-04 -3.27357e-04        00000 
-1.02253e-03  1.05860e-03        00000 
-1.10605e-03 -5.25964e-04        00000 
 6.76858e-04 -4.02821e-04        00000 
-8.24969e-06  1.42026e-03        00000 
-7.47976e-04  2.93504e-04        00000 
-5.60989e-04 -2.18701e-04        00000 
 5.11384e-05  1.56351e-04        00000 
-1.44875e-03  1.10283e-03        00000 
 1.45917e-03  1.00311e-03        00000 
 1.62459e-04  4.47274e-04        00000 
 1.69985e-04  3.18704e-03        00000 
 8.00809e-05  2.65161e-04        00000 
 1.20597e-03  2.44381e-03        00000 
 5.44113e-04 -1.36456e-03        00000 
 6.37891e-05  2.40926e-05        00000 
-2.07147e-04  1.89353e-04        00000 
 2.37365e-04 -7.23881e-04        00000 
 8.83860e-04  1.36622e-03        00000 
 3.84798e-04  2.22746e-03        00000 
-1.11879e-03  3.18469e-04        00000 
-3.75475e-04  2.05985e-04        00000 
-9.01248e-04  1.53793e-03        00000 
-1.77285e-04  7.67246e-04        00000 
 5.15935e-04  1.35582e-03        00000 
 2.78408e-04  1.40113e-03        00000 
-7.64666e-04  8.21236e-04        00000 
-3.68716e-04 -9.04156e-04        00000 
 2.04751e-04  4.60750e-04        00000 
-1.04628e-04  3.61445e-04        00000 
 2.04432e-04  8.03600e-05        00000 
-1.38174e-03 -2.41634e-04        00000 
 7.72863e-04  7.91490e-04        00000 
-1.12159e-04  7.97550e-04        00000 
-3.00343e-04  8.62255e-04        00000 
 1.13098e-03 -2.15706e-03        00000 
 9.42822e-04 -9.23170e-04        00000 
-8.14358e-04  3.55973e-03        00000 
 7.47520e-04 -6.01435e-03        00000 
-6.45512e-04  8.45829e-05        00000 
-7.33561e-04 -1.51936e-03        00000 
 1.26872e-03 -1.45855e-03        00000 
 1.18750e-03  1.04907e-03        00000 
-4.06162e-05 -1.88741e-04        00000 
 8.20455e-05  2.27597e-04        00000 
 1.46376e-05 -1.07940e-03        00000 
-2.80634e-04 -8.53435e-04        00000 
-1.31164e-04 -2.27133e-05        00000 
-5.70076e-04  5.48341e-04        00000 
-2.78388e-04  1.17358e-03        00000 
-1.97871e-04  5.14001e-04        00000 
 1.02031e-03 -4.87195e-04        00000 
-8.57094e-04 -4.50802e-04        00000 
-6.11394e-04  2.45977e-05        00000 
 1.21138e-03  6.72073e-04        00000 
-9.31444e-04  9.19609e-04        00000 
-9.01928e-05  9.50659e-04        00000 
 9.66548e-04 -5.70254e-04        00000 
 1.12888e-03 -1.25354e-03        00000 
 1.03038e-03 -8.14240e-06        00000 
 1.11688e-03 -6.89438e-04        00000 
-1.23179e-04  2.82693e-04        00000 
-1.84941e-04 -3.29859e-04        00000 
-4.50687e-04  1.32247e-04        00000 
 3.27848e-04 -1.70408e-04        00000 
-6.07468e-04  9.18650e-04        00000 
-1.12185e-04  5.62274e-04        00000 
-9.79746e-04  3.03971e-04        00000 
-5.22948e-04  1.53509e-04        00000 
-2.35197e-04  4.76000e-04        00000 
-5.86783e-04 -7.87024e-05        00000 
-7.61947e-04 -1.46175e-03        00000 
 3.44751e-04  2.65698e-05        00000 
-1.07370e-04 -1.62691e-03        00000 
 1.56068e-03  1.87651e-03        00000 
-1.85484e-04  6.27673e-04        00000 
 1.23378e-04 -3.16978e-04        00000 
 7.38725e-04 -2.69198e-04        00000 
-1.20831e-04  9.43953e-04        00000 
-3.63430e-04  7.75794e-04        00000 
 1.64090e-03  6.80371e-04        00000 
-3.78738e-04 -3.12200e-04        00000 
 6.81264e-04 -1.06574e-03        00000 
-4.76752e-04  1.31464e-04        00000 
 1.12550e-03  7.64174e-04        00000 
-3.94242e-04  5.95104e-04        00000 
 4.78248e-04  1.11830e-03        00000 
 2.54665e-04  6.59340e-04        00000 
-3.66323e-05  8.32155e-04        00000 
 8.55764e-04  7.41828e-04        00000 
 4.42855e-04 -5.58822e-04        00000 
 4.12652e-04  9.48112e-04        00000 
 1.03485e-04 -5.49608e-04        00000 
-2.35141e-04  2.74290e-03        00000 
 1.34924e-04 -6.22106e-04        00000 
 2.82342e-04  1.03021e-03        00000 
-8.61933e-04  2.02148e-03        00000 
-1.13595e-03  8.30788e-04        00000 
-5.62950e-04  7.51765e-04        00000 
 3.43130e-04 -4.16963e-04        00000 
 2.38147e-04  1.05849e-05        00000 
 9.58018e-04 -2.69413e-04        00000 
 5.16853e-04  1.19699e-03        00000 
 1.72455e-04  1.21601e-03        00000 
-2.29407e-03  1.26416e-03        00000 
-1.21416e-04 -5.40349e-04        00000 
 1.81407e-05  8.06046e-04        00000 
-8.91012e-04  1.23486e-03        00000 
-1.82189e-04 -2.28124e-04        00000 
 6.50007e-05  2.45278e-03        00000 
-7.75206e-04 -1.86543e-03        00000 
-6.98484e-04  1.46202e-03        00000 