<?xml version="1.0" encoding="utf-8"?>
<VTKFile byte_order="LittleEndian" type="UnstructuredGrid" version="0.1">
   <UnstructuredGrid>
      <Piece NumberOfCells="1296" NumberOfPoints="685">
         <Points>
            <DataArray Name="Points" NumberOfComponents="3" format="ascii" type="Float32">
0.0000 0.0000 0.0000
0.0000 0.1111 0.0000
0.0000 0.2222 0.0000
0.0000 0.3333 0.0000
0.0000 0.4444 0.0000
0.0000 0.5556 0.0000
0.0000 0.6667 0.0000
0.0000 0.7778 0.0000
0.0000 0.8889 0.0000
0.0000 1.0000 0.0000
0.2222 0.0000 0.0000
0.2222 0.1111 0.0000
0.2222 0.2222 0.0000
0.2222 0.3333 0.0000
0.2222 0.4444 0.0000
0.2222 0.5556 0.0000
0.2222 0.6667 0.0000
0.2222 0.7778 0.0000
0.2222 0.8889 0.0000
0.2222 1.0000 0.0000
0.4444 0.0000 0.0000
0.4444 0.1111 0.0000
0.4444 0.2222 0.0000
0.4444 0.3333 0.0000
0.4444 0.4444 0.0000
0.4444 0.5556 0.0000
0.4444 0.6667 0.0000
0.4444 0.7778 0.0000
0.4444 0.8889 0.0000
0.4444 1.0000 0.0000
0.6667 0.0000 0.0000
0.6667 0.1111 0.0000
0.6667 0.2222 0.0000
0.6667 0.3333 0.0000
0.6667 0.4444 0.0000
0.6667 0.5556 0.0000
0.6667 0.6667 0.0000
0.6667 0.7778 0.0000
0.6667 0.8889 0.0000
0.6667 1.0000 0.0000
0.8889 0.0000 0.0000
0.8889 0.1111 0.0000
0.8889 0.2222 0.0000
0.8889 0.3333 0.0000
0.8889 0.4444 0.0000
0.8889 0.5556 0.0000
0.8889 0.6667 0.0000
0.8889 0.7778 0.0000
0.8889 0.8889 0.0000
0.8889 1.0000 0.0000
1.1111 0.0000 0.0000
1.1111 0.1111 0.0000
1.1111 0.2222 0.0000
1.1111 0.3333 0.0000
1.1111 0.4444 0.0000
1.1111 0.5556 0.0000
1.1111 0.6667 0.0000
1.1111 0.7778 0.0000
1.1111 0.8889 0.0000
1.1111 1.0000 0.0000
1.3333 0.0000 0.0000
1.3333 0.1111 0.0000
1.3333 0.2222 0.0000
1.3333 0.3333 0.0000
1.3333 0.4444 0.0000
1.3333 0.5556 0.0000
1.3333 0.6667 0.0000
1.3333 0.7778 0.0000
1.3333 0.8889 0.0000
1.3333 1.0000 0.0000
1.5556 0.0000 0.0000
1.5556 0.1111 0.0000
1.5556 0.2222 0.0000
1.5556 0.3333 0.0000
1.5556 0.4444 0.0000
1.5556 0.5556 0.0000
1.5556 0.6667 0.0000
1.5556 0.7778 0.0000
1.5556 0.8889 0.0000
1.5556 1.0000 0.0000
1.7778 0.0000 0.0000
1.7778 0.1111 0.0000
1.7778 0.2222 0.0000
1.7778 0.3333 0.0000
1.7778 0.4444 0.0000
1.7778 0.5556 0.0000
1.7778 0.6667 0.0000
1.7778 0.7778 0.0000
1.7778 0.8889 0.0000
1.7778 1.0000 0.0000
2.0000 0.0000 0.0000
2.0000 0.1111 0.0000
2.0000 0.2222 0.0000
2.0000 0.3333 0.0000
2.0000 0.4444 0.0000
2.0000 0.5556 0.0000
2.0000 0.6667 0.0000
2.0000 0.7778 0.0000
2.0000 0.8889 0.0000
2.0000 1.0000 0.0000
0.1111 0.0556 0.0000
0.1111 0.1667 0.0000
0.1111 0.2778 0.0000
0.1111 0.3889 0.0000
0.1111 0.5000 0.0000
0.1111 0.6111 0.0000
0.1111 0.7222 0.0000
0.1111 0.8333 0.0000
0.1111 0.9444 0.0000
0.3333 0.0556 0.0000
0.3333 0.1667 0.0000
0.3333 0.2778 0.0000
0.3333 0.3889 0.0000
0.3333 0.5000 0.0000
0.3333 0.6111 0.0000
0.3333 0.7222 0.0000
0.3333 0.8333 0.0000
0.3333 0.9444 0.0000
0.5556 0.0556 0.0000
0.5556 0.1667 0.0000
0.5556 0.2778 0.0000
0.5556 0.3889 0.0000
0.5556 0.5000 0.0000
0.5556 0.6111 0.0000
0.5556 0.7222 0.0000
0.5556 0.8333 0.0000
0.5556 0.9444 0.0000
0.7778 0.0556 0.0000
0.7778 0.1667 0.0000
0.7778 0.2778 0.0000
0.7778 0.3889 0.0000
0.7778 0.5000 0.0000
0.7778 0.6111 0.0000
0.7778 0.7222 0.0000
0.7778 0.8333 0.0000
0.7778 0.9444 0.0000
1.0000 0.0556 0.0000
1.0000 0.1667 0.0000
1.0000 0.2778 0.0000
1.0000 0.3889 0.0000
1.0000 0.5000 0.0000
1.0000 0.6111 0.0000
1.0000 0.7222 0.0000
1.0000 0.8333 0.0000
1.0000 0.9444 0.0000
1.2222 0.0556 0.0000
1.2222 0.1667 0.0000
1.2222 0.2778 0.0000
1.2222 0.3889 0.0000
1.2222 0.5000 0.0000
1.2222 0.6111 0.0000
1.2222 0.7222 0.0000
1.2222 0.8333 0.0000
1.2222 0.9444 0.0000
1.4444 0.0556 0.0000
1.4444 0.1667 0.0000
1.4444 0.2778 0.0000
1.4444 0.3889 0.0000
1.4444 0.5000 0.0000
1.4444 0.6111 0.0000
1.4444 0.7222 0.0000
1.4444 0.8333 0.0000
1.4444 0.9444 0.0000
1.6667 0.0556 0.0000
1.6667 0.1667 0.0000
1.6667 0.2778 0.0000
1.6667 0.3889 0.0000
1.6667 0.5000 0.0000
1.6667 0.6111 0.0000
1.6667 0.7222 0.0000
1.6667 0.8333 0.0000
1.6667 0.9444 0.0000
1.8889 0.0556 0.0000
1.8889 0.1667 0.0000
1.8889 0.2778 0.0000
1.8889 0.3889 0.0000
1.8889 0.5000 0.0000
1.8889 0.6111 0.0000
1.8889 0.7222 0.0000
1.8889 0.8333 0.0000
1.8889 0.9444 0.0000
0.0000 0.0556 0.0000
0.0556 0.0278 0.0000
0.0556 0.0833 0.0000
0.0000 0.1667 0.0000
0.0556 0.1389 0.0000
0.0556 0.1944 0.0000
0.0000 0.2778 0.0000
0.0556 0.2500 0.0000
0.0556 0.3056 0.0000
0.0000 0.3889 0.0000
0.0556 0.3611 0.0000
0.0556 0.4167 0.0000
0.0000 0.5000 0.0000
0.0556 0.4722 0.0000
0.0556 0.5278 0.0000
0.0000 0.6111 0.0000
0.0556 0.5833 0.0000
0.0556 0.6389 0.0000
0.0000 0.7222 0.0000
0.0556 0.6944 0.0000
0.0556 0.7500 0.0000
0.0000 0.8333 0.0000
0.0556 0.8056 0.0000
0.0556 0.8611 0.0000
0.0000 0.9444 0.0000
0.0556 0.9167 0.0000
0.0556 0.9722 0.0000
0.2222 0.0556 0.0000
0.2778 0.0278 0.0000
0.2778 0.0833 0.0000
0.2222 0.1667 0.0000
0.2778 0.1389 0.0000
0.2778 0.1944 0.0000
0.2222 0.2778 0.0000
0.2778 0.2500 0.0000
0.2778 0.3056 0.0000
0.2222 0.3889 0.0000
0.2778 0.3611 0.0000
0.2778 0.4167 0.0000
0.2222 0.5000 0.0000
0.2778 0.4722 0.0000
0.2778 0.5278 0.0000
0.2222 0.6111 0.0000
0.2778 0.5833 0.0000
0.2778 0.6389 0.0000
0.2222 0.7222 0.0000
0.2778 0.6944 0.0000
0.2778 0.7500 0.0000
0.2222 0.8333 0.0000
0.2778 0.8056 0.0000
0.2778 0.8611 0.0000
0.2222 0.9444 0.0000
0.2778 0.9167 0.0000
0.2778 0.9722 0.0000
0.4444 0.0556 0.0000
0.5000 0.0278 0.0000
0.5000 0.0833 0.0000
0.4444 0.1667 0.0000
0.5000 0.1389 0.0000
0.5000 0.1944 0.0000
0.4444 0.2778 0.0000
0.5000 0.2500 0.0000
0.5000 0.3056 0.0000
0.4444 0.3889 0.0000
0.5000 0.3611 0.0000
0.5000 0.4167 0.0000
0.4444 0.5000 0.0000
0.5000 0.4722 0.0000
0.5000 0.5278 0.0000
0.4444 0.6111 0.0000
0.5000 0.5833 0.0000
0.5000 0.6389 0.0000
0.4444 0.7222 0.0000
0.5000 0.6944 0.0000
0.5000 0.7500 0.0000
0.4444 0.8333 0.0000
0.5000 0.8056 0.0000
0.5000 0.8611 0.0000
0.4444 0.9444 0.0000
0.5000 0.9167 0.0000
0.5000 0.9722 0.0000
0.6667 0.0556 0.0000
0.7222 0.0278 0.0000
0.7222 0.0833 0.0000
0.6667 0.1667 0.0000
0.7222 0.1389 0.0000
0.7222 0.1944 0.0000
0.6667 0.2778 0.0000
0.7222 0.2500 0.0000
0.7222 0.3056 0.0000
0.6667 0.3889 0.0000
0.7222 0.3611 0.0000
0.7222 0.4167 0.0000
0.6667 0.5000 0.0000
0.7222 0.4722 0.0000
0.7222 0.5278 0.0000
0.6667 0.6111 0.0000
0.7222 0.5833 0.0000
0.7222 0.6389 0.0000
0.6667 0.7222 0.0000
0.7222 0.6944 0.0000
0.7222 0.7500 0.0000
0.6667 0.8333 0.0000
0.7222 0.8056 0.0000
0.7222 0.8611 0.0000
0.6667 0.9444 0.0000
0.7222 0.9167 0.0000
0.7222 0.9722 0.0000
0.8889 0.0556 0.0000
0.9444 0.0278 0.0000
0.9444 0.0833 0.0000
0.8889 0.1667 0.0000
0.9444 0.1389 0.0000
0.9444 0.1944 0.0000
0.8889 0.2778 0.0000
0.9444 0.2500 0.0000
0.9444 0.3056 0.0000
0.8889 0.3889 0.0000
0.9444 0.3611 0.0000
0.9444 0.4167 0.0000
0.8889 0.5000 0.0000
0.9444 0.4722 0.0000
0.9444 0.5278 0.0000
0.8889 0.6111 0.0000
0.9444 0.5833 0.0000
0.9444 0.6389 0.0000
0.8889 0.7222 0.0000
0.9444 0.6944 0.0000
0.9444 0.7500 0.0000
0.8889 0.8333 0.0000
0.9444 0.8056 0.0000
0.9444 0.8611 0.0000
0.8889 0.9444 0.0000
0.9444 0.9167 0.0000
0.9444 0.9722 0.0000
1.1111 0.0556 0.0000
1.1667 0.0278 0.0000
1.1667 0.0833 0.0000
1.1111 0.1667 0.0000
1.1667 0.1389 0.0000
1.1667 0.1944 0.0000
1.1111 0.2778 0.0000
1.1667 0.2500 0.0000
1.1667 0.3056 0.0000
1.1111 0.3889 0.0000
1.1667 0.3611 0.0000
1.1667 0.4167 0.0000
1.1111 0.5000 0.0000
1.1667 0.4722 0.0000
1.1667 0.5278 0.0000
1.1111 0.6111 0.0000
1.1667 0.5833 0.0000
1.1667 0.6389 0.0000
1.1111 0.7222 0.0000
1.1667 0.6944 0.0000
1.1667 0.7500 0.0000
1.1111 0.8333 0.0000
1.1667 0.8056 0.0000
1.1667 0.8611 0.0000
1.1111 0.9444 0.0000
1.1667 0.9167 0.0000
1.1667 0.9722 0.0000
1.3333 0.0556 0.0000
1.3889 0.0278 0.0000
1.3889 0.0833 0.0000
1.3333 0.1667 0.0000
1.3889 0.1389 0.0000
1.3889 0.1944 0.0000
1.3333 0.2778 0.0000
1.3889 0.2500 0.0000
1.3889 0.3056 0.0000
1.3333 0.3889 0.0000
1.3889 0.3611 0.0000
1.3889 0.4167 0.0000
1.3333 0.5000 0.0000
1.3889 0.4722 0.0000
1.3889 0.5278 0.0000
1.3333 0.6111 0.0000
1.3889 0.5833 0.0000
1.3889 0.6389 0.0000
1.3333 0.7222 0.0000
1.3889 0.6944 0.0000
1.3889 0.7500 0.0000
1.3333 0.8333 0.0000
1.3889 0.8056 0.0000
1.3889 0.8611 0.0000
1.3333 0.9444 0.0000
1.3889 0.9167 0.0000
1.3889 0.9722 0.0000
1.5556 0.0556 0.0000
1.6111 0.0278 0.0000
1.6111 0.0833 0.0000
1.5556 0.1667 0.0000
1.6111 0.1389 0.0000
1.6111 0.1944 0.0000
1.5556 0.2778 0.0000
1.6111 0.2500 0.0000
1.6111 0.3056 0.0000
1.5556 0.3889 0.0000
1.6111 0.3611 0.0000
1.6111 0.4167 0.0000
1.5556 0.5000 0.0000
1.6111 0.4722 0.0000
1.6111 0.5278 0.0000
1.5556 0.6111 0.0000
1.6111 0.5833 0.0000
1.6111 0.6389 0.0000
1.5556 0.7222 0.0000
1.6111 0.6944 0.0000
1.6111 0.7500 0.0000
1.5556 0.8333 0.0000
1.6111 0.8056 0.0000
1.6111 0.8611 0.0000
1.5556 0.9444 0.0000
1.6111 0.9167 0.0000
1.6111 0.9722 0.0000
1.7778 0.0556 0.0000
1.8333 0.0278 0.0000
1.8333 0.0833 0.0000
1.7778 0.1667 0.0000
1.8333 0.1389 0.0000
1.8333 0.1944 0.0000
1.7778 0.2778 0.0000
1.8333 0.2500 0.0000
1.8333 0.3056 0.0000
1.7778 0.3889 0.0000
1.8333 0.3611 0.0000
1.8333 0.4167 0.0000
1.7778 0.5000 0.0000
1.8333 0.4722 0.0000
1.8333 0.5278 0.0000
1.7778 0.6111 0.0000
1.8333 0.5833 0.0000
1.8333 0.6389 0.0000
1.7778 0.7222 0.0000
1.8333 0.6944 0.0000
1.8333 0.7500 0.0000
1.7778 0.8333 0.0000
1.8333 0.8056 0.0000
1.8333 0.8611 0.0000
1.7778 0.9444 0.0000
1.8333 0.9167 0.0000
1.8333 0.9722 0.0000
0.1111 0.1111 0.0000
0.1667 0.0833 0.0000
0.1111 0.2222 0.0000
0.1667 0.1944 0.0000
0.1111 0.3333 0.0000
0.1667 0.3056 0.0000
0.1111 0.4444 0.0000
0.1667 0.4167 0.0000
0.1111 0.5556 0.0000
0.1667 0.5278 0.0000
0.1111 0.6667 0.0000
0.1667 0.6389 0.0000
0.1111 0.7778 0.0000
0.1667 0.7500 0.0000
0.1111 0.8889 0.0000
0.1667 0.8611 0.0000
0.1111 1.0000 0.0000
0.1667 0.9722 0.0000
0.3333 0.1111 0.0000
0.3889 0.0833 0.0000
0.3333 0.2222 0.0000
0.3889 0.1944 0.0000
0.3333 0.3333 0.0000
0.3889 0.3056 0.0000
0.3333 0.4444 0.0000
0.3889 0.4167 0.0000
0.3333 0.5556 0.0000
0.3889 0.5278 0.0000
0.3333 0.6667 0.0000
0.3889 0.6389 0.0000
0.3333 0.7778 0.0000
0.3889 0.7500 0.0000
0.3333 0.8889 0.0000
0.3889 0.8611 0.0000
0.3333 1.0000 0.0000
0.3889 0.9722 0.0000
0.5556 0.1111 0.0000
[...]
         <PointData>
            <DataArray Name="fValues" NumberOfComponents="3" format="ascii" type="Float64">
 1.16707e-21  1.45884e-21        00000 
-1.10195e-21  2.83358e-22        00000 
 1.05671e-21  6.88574e-24        00000 
 1.63047e-21 -2.50841e-21        00000 
 1.06766e-21 -4.74552e-21        00000 
 1.56776e-22  2.50841e-21        00000 
-1.02301e-22 -6.25610e-22        00000 
-3.13268e-22  1.00246e-21        00000 
-1.02348e-22 -2.51934e-22        00000 
-2.91769e-22        00000        00000 
-1.71761e-06 -5.68379e-06        00000 
 5.77184e-07  3.54275e-06        00000 
 9.31329e-06 -8.54574e-06        00000 
 4.61667e-06  1.67225e-06        00000 
 8.96543e-07 -8.22996e-06        00000 
 4.22791e-06 -7.33487e-06        00000 
 2.89884e-06 -1.66932e-06        00000 
-6.59795e-07 -6.98748e-06        00000 
-1.40633e-06 -5.26555e-06        00000 
-4.33872e-06 -7.81647e-06        00000 
 7.04906e-06 -1.91037e-07        00000 
-4.91710e-06  7.39373e-06        00000 
-1.97653e-06 -1.98452e-07        00000 
-9.79873e-07  7.59400e-06        00000 
-3.80143e-06  3.45172e-06        00000 
-1.10510e-07  3.16522e-07        00000 
-3.91218e-07  1.68260e-06        00000 
 4.83142e-07 -6.22483e-06        00000 
-1.55955e-06 -8.13548e-06        00000 
-3.12387e-06 -1.40931e-05        00000 
-7.83414e-06  9.26808e-06        00000 
-5.81428e-06 -1.30006e-06        00000 
 3.78740e-07 -8.27437e-06        00000 
 5.92823e-06 -1.07803e-05        00000 
 1.97771e-06 -1.51182e-05        00000 
 4.74438e-06 -1.24825e-05        00000 
 4.59492e-06 -1.49855e-05        00000 
-4.69483e-07 -1.24437e-05        00000 
 2.54164e-07 -8.17753e-06        00000 
-5.82434e-06 -1.54188e-05        00000 
-5.96662e-06  5.15766e-06        00000 
 3.28689e-07  1.19778e-06        00000 
 1.22361e-05 -1.32782e-06        00000 
 7.53904e-06  6.98637e-07        00000 
 1.11652e-05 -3.25344e-06        00000 
 1.71361e-05 -2.26627e-06        00000 
 1.03189e-05 -7.40053e-06        00000 
 9.61756e-06 -5.73958e-06        00000 
 1.00772e-06 -8.18164e-06        00000 
-1.59977e-06 -1.79120e-05        00000 
-7.72955e-06  4.87923e-06        00000 
-1.14111e-05  3.03241e-06        00000 
-1.05961e-05 -9.43342e-06        00000 
-1.08374e-05 -1.25579e-05        00000 
-4.59160e-06 -1.09672e-05        00000 
-2.05969e-07 -8.03274e-06        00000 
 4.77108e-06 -1.43675e-05        00000 
 6.36591e-06 -5.29912e-06        00000 
-2.69981e-07 -3.77537e-06        00000 
-3.73042e-06  1.85888e-05        00000 
-1.33111e-05 -1.59408e-05        00000 
 3.60296e-06 -5.11792e-07        00000 
 1.21623e-05 -5.96641e-06        00000 
 6.69864e-06 -1.83916e-07        00000 
 1.05400e-05 -1.23625e-06        00000 
 1.50057e-05  5.51147e-06        00000 
 1.34538e-05  2.87659e-06        00000 
 1.76327e-05  1.34792e-05        00000 
 5.85998e-06  8.92613e-06        00000 
-4.79481e-06  2.48965e-05        00000 
 2.39770e-06  1.51899e-05        00000 
 1.10704e-06  3.60547e-06        00000 
 7.69146e-06 -1.34619e-06        00000 
 7.76439e-08  6.66010e-07        00000 
 2.26575e-06 -3.20024e-07        00000 
 1.17164e-06  1.35208e-06        00000 
 1.54537e-06 -7.39813e-06        00000 
 6.52918e-07 -4.80020e-06        00000 
-5.07259e-06 -1.99291e-06        00000 
-2.31068e-07  8.61284e-06        00000 
-3.07997e-06  4.46640e-06        00000 
-1.23414e-05  1.01326e-05        00000 
-5.10199e-06 -1.38276e-06        00000 
-1.04811e-05  3.51930e-06        00000 
-7.04533e-06 -8.15263e-07        00000 
-7.58236e-06  6.58945e-06        00000 
 4.72623e-06  4.24243e-06        00000 
 1.04046e-06  1.21695e-05        00000 
-2.40235e-06  1.76001e-05        00000 
-6.52800e-06  1.88418e-05        00000 
-2.42299e-06 -2.64471e-08        00000 
-7.05627e-06  9.64474e-08        00000 
-6.16990e-06 -1.74443e-06        00000 
-1.03866e-05 -5.41554e-06        00000 
-1.19094e-05 -8.11736e-06        00000 
-8.21565e-06 -7.00458e-06        00000 
 5.21560e-07 -1.04075e-05        00000 
-7.44577e-07 -4.98895e-06        00000 
-2.50134e-06 -5.61756e-06        00000 
 1.64060e-06 -1.00370e-06        00000 
-1.04807e-06 -1.62048e-06        00000 
-6.00964e-06  7.87564e-06        00000 
-4.13835e-06  2.38648e-06        00000 
-6.63226e-06 -2.70484e-06        00000 
-7.40626e-06  5.88137e-06        00000 
-4.13626e-06 -1.83790e-06        00000 
-4.64655e-06 -1.77285e-07        00000 
-6.89137e-06  1.28437e-06        00000 
-6.26396e-06 -4.89895e-06        00000 
-4.32370e-06 -6.48307e-06        00000 
-2.44469e-06 -2.24576e-06        00000 
-9.40096e-08  3.77192e-06        00000 
-1.49867e-06 -2.01036e-06        00000 
 3.11179e-06  7.07941e-07        00000 
 1.75324e-06 -2.44910e-06        00000 
 4.29616e-07  9.40599e-07        00000 
-4.64316e-07  2.44105e-06        00000 
-4.04069e-06  4.32129e-06        00000 
-5.50866e-06  8.23166e-06        00000 
-5.07123e-06  5.02208e-06        00000 
-8.89644e-07  6.70300e-06        00000 
-1.96396e-06  3.83954e-06        00000 
 1.25722e-06  7.46737e-06        00000 
-8.04445e-06  8.78905e-07        00000 
-3.52682e-06  3.64655e-06        00000 
-4.50567e-06  4.54628e-07        00000 
-1.74457e-06  1.81332e-06        00000 
-8.81550e-06 -3.28631e-07        00000 
-7.63274e-06  1.49573e-06        00000 
-3.81693e-06  3.03203e-06        00000 
-2.17869e-06  1.39535e-05        00000 
-7.56143e-06  8.05134e-06        00000 
-8.93298e-06  7.67893e-06        00000 
-4.09594e-06  2.31296e-06        00000 
-5.69783e-06 -1.62046e-06        00000 
-1.11681e-05  5.23125e-06        00000 
-1.15374e-06  3.96049e-06        00000 
-1.85771e-07  1.22462e-05        00000 
 7.02135e-07  1.38271e-05        00000 
-3.89682e-06  1.25038e-05        00000 
-7.96597e-07  5.99162e-06        00000 
-3.01152e-06  1.19175e-05        00000 
-3.60045e-06  5.66656e-06        00000 
-6.10977e-07  4.42395e-06        00000 
-4.45081e-06  1.02779e-05        00000 
-3.99769e-06 -7.04843e-07        00000 
-4.71285e-06 -2.16671e-06        00000 
 4.68633e-06 -4.38032e-06        00000 
-9.81458e-06 -2.34496e-06        00000 
-6.84725e-06 -3.67036e-06        00000 
-3.35879e-06 -5.56422e-07        00000 
-1.81339e-06  6.93164e-07        00000 
 3.57738e-06  1.26799e-06        00000 
-1.41602e-05 -3.46412e-06        00000 
-2.69760e-06  1.17482e-06        00000 
 2.97148e-06  2.47482e-06        00000 
 1.04601e-05  1.53437e-06        00000 
 9.41536e-06  9.63596e-06        00000 
 1.05409e-05  6.14218e-06        00000 
 1.20433e-05  6.28498e-06        00000 
 1.19976e-05  2.90288e-06        00000 
 1.44039e-05  1.74175e-06        00000 
 4.66655e-06  3.07165e-06        00000 
 6.93617e-06 -2.93508e-06        00000 
-8.53228e-08 -2.05788e-06        00000 
 5.39945e-06 -1.00448e-05        00000 
 1.44324e-06 -1.10991e-05        00000 
 3.06631e-06 -5.99413e-06        00000 
 4.03310e-06 -9.60743e-06        00000 
 3.97650e-06 -6.18961e-06        00000 
-3.75814e-06 -2.86392e-06        00000 
-4.82752e-06 -4.44528e-06        00000 
 2.28224e-06  7.42303e-06        00000 
 3.20526e-06  4.08191e-06        00000 
 2.72383e-06  1.07654e-06        00000 
 6.58547e-06 -5.86668e-06        00000 
 6.05738e-06 -7.47284e-07        00000 
 9.91800e-06  8.29530e-06        00000 
 1.27568e-05  1.36997e-05        00000 
 5.71640e-06  1.26601e-05        00000 
 7.87047e-06  8.81105e-06        00000 
 1.38149e-22 -3.00341e-22        00000 
 5.12500e-06  5.59472e-06        00000 
 6.66430e-06 -2.79638e-06        00000 
-1.12903e-21 -2.39376e-22        00000 
 7.88067e-06 -3.86217e-06        00000 
 1.03993e-05 -5.23040e-06        00000 
 2.85874e-21  4.76456e-22        00000 
 6.06535e-06 -1.00272e-05        00000 
 9.87598e-06 -1.12834e-05        00000 
 6.02842e-23 -1.61991e-22        00000 
 3.26429e-06 -1.37048e-05        00000 
 5.12880e-06 -6.54242e-06        00000 
 1.54848e-21 -4.76456e-21        00000 
 2.52758e-06 -1.30962e-05        00000 
 6.96471e-06 -4.14699e-06        00000 
-3.10513e-22  2.01009e-21        00000 
 3.05434e-07 -1.31567e-05        00000 
-2.61228e-06 -6.01839e-07        00000 
 4.76456e-22        00000        00000 
-5.25854e-06 -8.12458e-06        00000 
-2.52938e-06 -4.86375e-06        00000 
 5.06235e-22  4.76456e-22        00000 
-5.14925e-06 -7.75919e-06        00000 
 2.44604e-07 -7.35885e-06        00000 
 2.67430e-22  7.61167e-22        00000 
 8.37021e-07 -4.76901e-06        00000 
 1.82999e-06 -3.19709e-07        00000 
 4.43756e-07 -2.50873e-06        00000 
 2.70308e-06  2.74748e-06        00000 
 9.87263e-07 -2.54119e-06        00000 
 1.04627e-05  1.67526e-06        00000 
-5.97392e-06 -5.38760e-07        00000 
-1.18597e-05  5.65672e-06        00000 
 6.66401e-06  1.75047e-06        00000 
-7.58734e-06  1.54275e-06        00000 
-7.68358e-07  4.14415e-06        00000 
 5.63968e-06 -5.76721e-07        00000 
-5.60253e-06 -4.32029e-06        00000 
-6.22728e-06 -6.78719e-06        00000 
 2.45334e-06  2.67205e-06        00000 
-6.91356e-06 -5.02513e-06        00000 
-3.51220e-06  5.20838e-07        00000 
 2.56986e-07  3.82477e-06        00000 
-3.27216e-06 -1.16363e-06        00000 
-2.00322e-06  7.75823e-07        00000 
 5.10376e-06  2.55076e-06        00000 
-5.79646e-06  4.13975e-07        00000 
-4.64438e-06 -2.05159e-06        00000 
-6.32972e-06  3.62257e-06        00000 
-6.23180e-06 -1.82417e-06        00000 
-9.11337e-07  1.67821e-06        00000 
-2.44426e-06 -1.16087e-06        00000 
-2.70635e-07 -1.06686e-05        00000 
 3.11367e-06  1.87450e-05        00000 
-3.83910e-06  7.68878e-06        00000 
 1.02005e-06  1.09762e-05        00000 
-8.51270e-07  8.95958e-06        00000 
-1.87210e-06  4.02821e-06        00000 
-1.02911e-05  1.07778e-05        00000 
-1.21277e-05  5.50662e-06        00000 
 5.34463e-07  5.72273e-09        00000 
-1.03611e-05 -4.33267e-06        00000 
-9.90315e-06  2.47528e-06        00000 
-3.56769e-06  5.38000e-06        00000 
-6.23671e-06 -2.22647e-06        00000 
-5.43187e-06 -6.16909e-06        00000 
-2.05675e-06 -1.43430e-06        00000 
-9.44562e-06 -2.40561e-06        00000 
-9.15880e-06 -4.10446e-06        00000 
-5.54887e-06  2.52303e-06        00000 
-7.03279e-06 -6.70170e-06        00000 
-2.88407e-06 -1.69497e-06        00000 
 2.42484e-06 -1.27729e-06        00000 
-1.02645e-05  8.44290e-08        00000 
-1.05673e-05 -9.64068e-06        00000 
-3.54811e-06 -3.05389e-06        00000 
-9.01795e-06 -5.99556e-06        00000 
-3.92820e-06 -8.03993e-06        00000 
 5.80458e-06 -4.61799e-06        00000 
-2.00611e-06 -9.27028e-06        00000 
-2.12343e-06  6.34321e-06        00000 
-4.56685e-06  3.59473e-06        00000 
-6.05026e-06 -8.78941e-06        00000 
 2.48896e-06  8.96874e-06        00000 
-4.69343e-08  1.04080e-06        00000 
-3.88269e-06 -1.07102e-06        00000 
-2.60981e-06  1.61454e-06        00000 
 2.92672e-06  4.81634e-06        00000 
-1.23049e-06 -5.78407e-06        00000 
-2.37462e-06 -1.56955e-07        00000 
 6.66572e-06  8.23435e-06        00000 
 8.24975e-07 -5.42538e-06        00000 
 3.40992e-06 -6.00887e-06        00000 
 3.85860e-06  4.16398e-06        00000 
 7.30801e-06 -4.35263e-06        00000 
 1.22772e-06 -9.82345e-08        00000 
 2.37178e-08  6.81588e-06        00000 
 3.03561e-06 -3.96181e-06        00000 
 3.60782e-07 -4.24629e-06        00000 
 1.07469e-05  3.53256e-06        00000 
 2.38549e-06 -1.70754e-06        00000 
-1.40232e-07 -1.51933e-05        00000 
-1.96008e-06 -3.86247e-06        00000 
-5.39569e-07 -1.51749e-06        00000 
 1.15586e-06 -8.36835e-06        00000 
-2.04626e-06 -3.62675e-07        00000 
 2.12093e-06 -2.07333e-05        00000 
-1.11376e-06  1.55904e-05        00000 
-1.60165e-06 -2.70295e-06        00000 
-3.43097e-06 -5.74966e-07        00000 
 6.02984e-06  5.20247e-06        00000 
 1.10105e-05  7.18956e-06        00000 
-8.11353e-06  5.32405e-06        00000 
-1.06806e-05  7.46025e-06        00000 
 2.70875e-06  9.22714e-06        00000 
-9.84669e-06  3.37159e-06        00000 
-5.76868e-06  8.14463e-06        00000 
 1.91468e-06  1.71255e-05        00000 
 4.44048e-07  3.17903e-06        00000 
-6.65328e-06 -6.13042e-06        00000 
 1.02141e-05  1.31381e-05        00000 
-1.51657e-06  7.35317e-06        00000 
-8.02440e-06 -4.41572e-06        00000 
 1.07308e-05  6.80071e-06        00000 
-5.03414e-06  1.32220e-06        00000 
-3.07157e-07 -4.63006e-06        00000 
 8.42628e-06  5.29863e-06        00000 
-1.01042e-06  6.62541e-06        00000 
-3.79677e-06 -8.61955e-06        00000 
 7.13415e-06 -1.30433e-06        00000 
-7.14363e-06 -1.10046e-06        00000 
-1.13687e-05 -8.58723e-06        00000 
 3.56520e-06  4.24611e-06        00000 
-4.08002e-06 -1.09468e-05        00000 
-7.71059e-06  1.65298e-05        00000 
-3.29788e-06  1.37631e-05        00000 
-9.66801e-06  1.10886e-05        00000 
-3.63553e-06 -3.57238e-06        00000 
-7.89938e-06  1.68034e-05        00000 
-2.96723e-06  4.70522e-06        00000 
-7.75718e-06 -8.28252e-06        00000 
-6.22286e-06  1.26475e-05        00000 
 3.71023e-06  1.42010e-06        00000 
-4.54018e-06 -1.08953e-05        00000 
-4.09424e-06  1.44999e-05        00000 
 5.36354e-06  1.18280e-06        00000 
-2.87179e-06 -2.61146e-05        00000 
-2.97897e-07  8.75936e-06        00000 
 3.67323e-06  3.16986e-06        00000 
-6.78706e-06 -1.36833e-05        00000 
-2.11580e-06  1.10028e-05        00000 
 2.08696e-06 -7.28020e-07        00000 
-3.48611e-06 -1.04773e-05        00000 
 9.48032e-06  1.14797e-05        00000 
 6.30818e-06  1.22886e-05        00000 
-2.73772e-06 -1.02025e-05        00000 
-3.72374e-07  4.39999e-06        00000 
 3.34334e-06  1.02042e-06        00000 
-3.92886e-06 -1.06120e-05        00000 
-1.08428e-06  7.16633e-07        00000 
 3.04448e-07  1.08793e-05        00000 
-8.31563e-06 -1.92862e-05        00000 
-5.93804e-06  1.77321e-06        00000 
-6.88290e-06  1.59316e-05        00000 
-8.23033e-06 -7.26810e-06        00000 
 1.09656e-05  1.49679e-06        00000 
-6.65881e-06  1.04933e-06        00000 
-1.05762e-05 -2.23599e-06        00000 
 7.52611e-06 -2.04149e-06        00000 
-8.17769e-06 -4.67130e-06        00000 
-8.54348e-06 -1.38778e-06        00000 
 3.58955e-06  6.17428e-06        00000 
-9.79119e-06 -2.46351e-06        00000 
-8.47331e-06 -5.28368e-06        00000 
 1.10139e-05 -1.23927e-06        00000 
-1.48644e-05  1.17977e-06        00000 
-9.17671e-06 -3.21646e-07        00000 
 6.95909e-06  4.64229e-06        00000 
-8.67162e-06  2.85925e-06        00000 
-1.00272e-05  1.09481e-06        00000 
 1.72964e-05  2.10450e-06        00000 
-1.18046e-05  2.02454e-05        00000 
-7.40354e-06  3.00168e-06        00000 
 1.21631e-05  1.84387e-06        00000 
-4.99297e-06  1.02851e-05        00000 
 7.48905e-09  1.55172e-06        00000 
 8.28639e-07 -1.88855e-06        00000 
-3.16021e-06  1.07751e-05        00000 
-5.56889e-07 -1.07795e-05        00000 
-5.29812e-06 -1.13753e-05        00000 
-4.82015e-06 -1.95168e-05        00000 
-3.37586e-06  1.25785e-05        00000 
 1.92618e-06 -1.23045e-05        00000 
-4.85389e-06 -1.51206e-06        00000 
-4.51046e-06  2.56103e-06        00000 
 4.94119e-06 -1.10052e-05        00000 
-9.95009e-06  1.27003e-06        00000 
-8.43909e-06 -3.61859e-06        00000 
-8.36120e-06 -8.42047e-06        00000 
-5.37557e-06  2.30549e-06        00000 
-8.00583e-06 -9.71079e-06        00000 
-6.08341e-08 -5.39970e-06        00000 
-1.17197e-05 -3.38749e-07        00000 
-6.98084e-06 -5.69450e-06        00000 
-3.45040e-06 -5.15062e-06        00000 
-1.11561e-06  8.40853e-07        00000 
 1.49526e-06 -8.49714e-06        00000 
 2.24975e-06 -1.90368e-06        00000 
-6.09923e-07  2.20679e-06        00000 
-4.63837e-06 -1.05457e-05        00000 
-2.12114e-06 -7.87811e-07        00000 
-2.97667e-07  3.22442e-06        00000 
 1.32000e-06 -8.25689e-06        00000 
-6.39089e-06 -1.05733e-06        00000 
-1.75960e-06 -2.86851e-06        00000 
 3.29602e-06 -9.69101e-06        00000 
-2.59241e-06 -5.08906e-06        00000 
-9.81815e-06  3.71239e-06        00000 
 3.30976e-06  1.24801e-06        00000 
-2.86445e-06 -5.84057e-06        00000 
-4.26467e-06  2.65706e-06        00000 
-1.09662e-06  4.26235e-06        00000 
 4.52982e-06 -4.38713e-06        00000 
-9.43487e-06  5.74327e-07        00000 
-1.83737e-06 -1.72787e-06        00000 
-4.30300e-06 -5.67432e-06        00000 
-1.33949e-05 -3.89908e-06        00000 
-1.35352e-05 -2.30242e-06        00000 
-1.82194e-06 -7.02922e-06        00000 
-1.71557e-05 -1.05017e-05        00000 
-6.26313e-06  4.12447e-06        00000 
-3.67257e-06 -1.24363e-05        00000 
-1.33730e-05 -6.79006e-06        00000 
-6.10452e-07  1.05651e-05        00000 
 1.72765e-06 -8.41866e-06        00000 
-1.15814e-05 -4.71907e-06        00000 
 2.52946e-06  1.53380e-05        00000 
 6.31488e-06 -6.73441e-06        00000 
-7.38227e-06  2.37426e-06        00000 
 2.00390e-06 -2.86291e-07        00000 
 4.04104e-06 -1.96312e-06        00000 
-9.82877e-06  1.32776e-05        00000 
-1.67280e-06 -1.72596e-05        00000 
-4.30489e-06  7.30579e-07        00000 
-3.82257e-06  5.10293e-06        00000 
-5.57359e-06  2.10958e-06        00000 
 8.21008e-06  1.08598e-05        00000 
-3.54927e-06 -2.97167e-06        00000 
 1.70960e-06  9.47313e-06        00000 
-7.83673e-06  1.27944e-06        00000 
 1.06371e-06  7.57093e-06        00000 
-8.89558e-06 -2.07800e-06        00000 
 3.97668e-06  7.91150e-06        00000 
-1.24404e-06 -1.94854e-06        00000 
 3.74667e-06  4.50451e-06        00000 
-4.73699e-06 -2.48277e-06        00000 
 2.78337e-06  5.52456e-06        00000 
-7.42680e-06  2.09478e-07        00000 
 9.09712e-07  3.16379e-06        00000 
-7.90701e-06 -1.68797e-06        00000 
-3.33555e-06 -3.93667e-06        00000 
 7.07408e-07 -3.16462e-06        00000 
-2.92777e-06  3.81191e-06        00000 
-2.47569e-06  8.01025e-06        00000 
-4.31092e-06  9.09463e-06        00000 
 1.93520e-06 -2.21942e-06        00000 
-6.87716e-06  1.14416e-05        00000 
 3.17906e-06  2.50958e-06        00000 
-1.11787e-06  1.62978e-05        00000 
 6.15678e-06 -1.90751e-06        00000 
-7.14871e-06  1.04481e-05        00000 
 3.18507e-06 -1.37044e-06        00000 
-4.84885e-06  4.19882e-06        00000 
 3.77603e-06 -2.49884e-06        00000 
-1.08095e-05  9.19017e-06        00000 
-3.21658e-06  3.19903e-08        00000 
-7.75398e-06 -1.66000e-07        00000 
 1.16232e-06 -1.30266e-05        00000 
-7.53839e-06  1.21621e-05        00000 
 7.32094e-07  9.48741e-06        00000 
-5.44879e-06  1.63965e-05        00000 
-6.40886e-06  4.92754e-06        00000 
-6.35115e-06  1.43866e-05        00000 
-7.16592e-07 -5.89121e-07        00000 
-8.45636e-06  1.72105e-05        00000 
 3.14748e-06 -2.53439e-06        00000 
 1.99512e-06  1.89452e-05        00000 
-5.53340e-06 -8.68632e-06        00000 
-8.29164e-06  1.08941e-05        00000 
-6.89042e-06 -5.95374e-06        00000 
-1.32614e-07  1.80885e-06        00000 
-5.10942e-06 -6.84892e-06        00000 
-4.90948e-06  7.01706e-06        00000 
-1.07220e-05 -8.75784e-07        00000 
-1.56530e-06 -6.31852e-06        00000 
 1.95495e-07 -8.13216e-06        00000 
-5.03430e-06 -2.08362e-06        00000 
-5.89174e-06 -2.06685e-06        00000 
-5.09026e-06  7.05745e-06        00000 
-2.93747e-06  5.41893e-06        00000 
 1.24134e-06  9.73614e-06        00000 
-2.38787e-06  1.31519e-07        00000 
-3.51707e-06  5.59068e-06        00000 
 1.36293e-06 -1.48674e-06        00000 
-3.18824e-06  1.32736e-05        00000 
-3.31847e-06 -1.00330e-06        00000 
-4.70713e-06  6.94476e-06        00000 
-3.08177e-06 -7.93530e-06        00000 
 3.15639e-06  2.66834e-06        00000 
-2.21890e-06 -6.25396e-06        00000 
-4.60906e-06  1.26311e-06        00000 
-9.93670e-06 -6.47339e-06        00000 
-1.23725e-05  3.54614e-06        00000 
-2.46906e-06 -2.73358e-05        00000 
-1.24479e-05  1.61145e-05        00000 
-5.12056e-08 -5.34442e-06        00000 