<?xml version="1.0" encoding="utf-8"?>
<VTKFile byte_order="LittleEndian" type="UnstructuredGrid" version="0.1">
   <UnstructuredGrid>
      <Piece NumberOfCells="1296" NumberOfPoints="685">
         <Points>
            <DataArray Name="Points" NumberOfComponents="3" format="ascii" type="Float32">
0.0000 0.0000 0.0000
0.0000 0.1111 0.0000
0.0000 0.2222 0.0000
0.0000 0.3333 0.0000
0.0000 0.4444 0.0000
0.0000 0.5556 0.0000
0.0000 0.6667 0.0000
0.0000 0.7778 0.0000
0.0000 0.8889 0.0000
0.0000 1.0000 0.0000
0.2222 0.0000 0.0000
0.2222 0.1111 0.0000
0.2222 0.2222 0.0000
0.2222 0.3333 0.0000
0.2222 0.4444 0.0000
0.2222 0.5556 0.0000
0.2222 0.6667 0.0000
0.2222 0.7778 0.0000
0.2222 0.8889 0.0000
0.2222 1.0000 0.0000
0.4444 0.0000 0.0000
0.4444 0.1111 0.0000
0.4444 0.2222 0.0000
0.4444 0.3333 0.0000
0.4444 0.4444 0.0000
0.4444 0.5556 0.0000
0.4444 0.6667 0.0000
0.4444 0.7778 0.0000
0.4444 0.8889 0.0000
0.4444 1.0000 0.0000
0.6667 0.0000 0.0000
0.6667 0.1111 0.0000
0.6667 0.2222 0.0000
0.6667 0.3333 0.0000
0.6667 0.4444 0.0000
0.6667 0.5556 0.0000
0.6667 0.6667 0.0000
0.6667 0.7778 0.0000
0.6667 0.8889 0.0000
0.6667 1.0000 0.0000
0.8889 0.0000 0.0000
0.8889 0.1111 0.0000
0.8889 0.2222 0.0000
0.8889 0.3333 0.0000
0.8889 0.4444 0.0000
0.8889 0.5556 0.0000
0.8889 0.6667 0.0000
0.8889 0.7778 0.0000
0.8889 0.8889 0.0000
0.8889 1.0000 0.0000
1.1111 0.0000 0.0000
1.1111 0.1111 0.0000
1.1111 0.2222 0.0000
1.1111 0.3333 0.0000
1.1111 0.4444 0.0000
1.1111 0.5556 0.0000
1.1111 0.6667 0.0000
1.1111 0.7778 0.0000
1.1111 0.8889 0.0000
1.1111 1.0000 0.0000
1.3333 0.0000 0.0000
1.3333 0.1111 0.0000
1.3333 0.2222 0.0000
1.3333 0.3333 0.0000
1.3333 0.4444 0.0000
1.3333 0.5556 0.0000
1.3333 0.6667 0.0000
1.3333 0.7778 0.0000
1.3333 0.8889 0.0000
1.3333 1.0000 0.0000
1.5556 0.0000 0.0000
1.5556 0.1111 0.0000
1.5556 0.2222 0.0000
1.5556 0.3333 0.0000
1.5556 0.4444 0.0000
1.5556 0.5556 0.0000
1.5556 0.6667 0.0000
1.5556 0.7778 0.0000
1.5556 0.8889 0.0000
1.5556 1.0000 0.0000
1.7778 0.0000 0.0000
1.7778 0.1111 0.0000
1.7778 0.2222 0.0000
1.7778 0.3333 0.0000
1.7778 0.4444 0.0000
1.7778 0.5556 0.0000
1.7778 0.6667 0.0000
1.7778 0.7778 0.0000
1.7778 0.8889 0.0000
1.7778 1.0000 0.0000
2.0000 0.0000 0.0000
2.0000 0.1111 0.0000
2.0000 0.2222 0.0000
2.0000 0.3333 0.0000
2.0000 0.4444 0.0000
2.0000 0.5556 0.0000
2.0000 0.6667 0.0000
2.0000 0.7778 0.0000
2.0000 0.8889 0.0000
2.0000 1.0000 0.0000
0.1111 0.0556 0.0000
0.1111 0.1667 0.0000
0.1111 0.2778 0.0000
0.1111 0.3889 0.0000
0.1111 0.5000 0.0000
0.1111 0.6111 0.0000
0.1111 0.7222 0.0000
0.1111 0.8333 0.0000
0.1111 0.9444 0.0000
0.3333 0.0556 0.0000
0.3333 0.1667 0.0000
0.3333 0.2778 0.0000
0.3333 0.3889 0.0000
0.3333 0.5000 0.0000
0.3333 0.6111 0.0000
0.3333 0.7222 0.0000
0.3333 0.8333 0.0000
0.3333 0.9444 0.0000
0.5556 0.0556 0.0000
0.5556 0.1667 0.0000
0.5556 0.2778 0.0000
0.5556 0.3889 0.0000
0.5556 0.5000 0.0000
0.5556 0.6111 0.0000
0.5556 0.7222 0.0000
0.5556 0.8333 0.0000
0.5556 0.9444 0.0000
0.7778 0.0556 0.0000
0.7778 0.1667 0.0000
0.7778 0.2778 0.0000
0.7778 0.3889 0.0000
0.7778 0.5000 0.0000
0.7778 0.6111 0.0000
0.7778 0.7222 0.0000
0.7778 0.8333 0.0000
0.7778 0.9444 0.0000
1.0000 0.0556 0.0000
1.0000 0.1667 0.0000
1.0000 0.2778 0.0000
1.0000 0.3889 0.0000
1.0000 0.5000 0.0000
1.0000 0.6111 0.0000
1.0000 0.7222 0.0000
1.0000 0.8333 0.0000
1.0000 0.9444 0.0000
1.2222 0.0556 0.0000
1.2222 0.1667 0.0000
1.2222 0.2778 0.0000
1.2222 0.3889 0.0000
1.2222 0.5000 0.0000
1.2222 0.6111 0.0000
1.2222 0.7222 0.0000
1.2222 0.8333 0.0000
1.2222 0.9444 0.0000
1.4444 0.0556 0.0000
1.4444 0.1667 0.0000
1.4444 0.2778 0.0000
1.4444 0.3889 0.0000
1.4444 0.5000 0.0000
1.4444 0.6111 0.0000
1.4444 0.7222 0.0000
1.4444 0.8333 0.0000
1.4444 0.9444 0.0000
1.6667 0.0556 0.0000
1.6667 0.1667 0.0000
1.6667 0.2778 0.0000
1.6667 0.3889 0.0000
1.6667 0.5000 0.0000
1.6667 0.6111 0.0000
1.6667 0.7222 0.0000
1.6667 0.8333 0.0000
1.6667 0.9444 0.0000
1.8889 0.0556 0.0000
1.8889 0.1667 0.0000
1.8889 0.2778 0.0000
1.8889 0.3889 0.0000
1.8889 0.5000 0.0000
1.8889 0.6111 0.0000
1.8889 0.7222 0.0000
1.8889 0.8333 0.0000
1.8889 0.9444 0.0000
0.0000 0.0556 0.0000
0.0556 0.0278 0.0000
0.0556 0.0833 0.0000
0.0000 0.1667 0.0000
0.0556 0.1389 0.0000
0.0556 0.1944 0.0000
0.0000 0.2778 0.0000
0.0556 0.2500 0.0000
0.0556 0.3056 0.0000
0.0000 0.3889 0.0000
0.0556 0.3611 0.0000
0.0556 0.4167 0.0000
0.0000 0.5000 0.0000
0.0556 0.4722 0.0000
0.0556 0.5278 0.0000
0.0000 0.6111 0.0000
0.0556 0.5833 0.0000
0.0556 0.6389 0.0000
0.0000 0.7222 0.0000
0.0556 0.6944 0.0000
0.0556 0.7500 0.0000
0.0000 0.8333 0.0000
0.0556 0.8056 0.0000
0.0556 0.8611 0.0000
0.0000 0.9444 0.0000
0.0556 0.9167 0.0000
0.0556 0.9722 0.0000
0.2222 0.0556 0.0000
0.2778 0.0278 0.0000
0.2778 0.0833 0.0000
0.2222 0.1667 0.0000
0.2778 0.1389 0.0000
0.2778 0.1944 0.0000
0.2222 0.2778 0.0000
0.2778 0.2500 0.0000
0.2778 0.3056 0.0000
0.2222 0.3889 0.0000
0.2778 0.3611 0.0000
0.2778 0.4167 0.0000
0.2222 0.5000 0.0000
0.2778 0.4722 0.0000
0.2778 0.5278 0.0000
0.2222 0.6111 0.0000
0.2778 0.5833 0.0000
0.2778 0.6389 0.0000
0.2222 0.7222 0.0000
0.2778 0.6944 0.0000
0.2778 0.7500 0.0000
0.2222 0.8333 0.0000
0.2778 0.8056 0.0000
0.2778 0.8611 0.0000
0.2222 0.9444 0.0000
0.2778 0.9167 0.0000
0.2778 0.9722 0.0000
0.4444 0.0556 0.0000
0.5000 0.0278 0.0000
0.5000 0.0833 0.0000
0.4444 0.1667 0.0000
0.5000 0.1389 0.0000
0.5000 0.1944 0.0000
0.4444 0.2778 0.0000
0.5000 0.2500 0.0000
0.5000 0.3056 0.0000
0.4444 0.3889 0.0000
0.5000 0.3611 0.0000
0.5000 0.4167 0.0000
0.4444 0.5000 0.0000
0.5000 0.4722 0.0000
0.5000 0.5278 0.0000
0.4444 0.6111 0.0000
0.5000 0.5833 0.0000
0.5000 0.6389 0.0000
0.4444 0.7222 0.0000
0.5000 0.6944 0.0000
0.5000 0.7500 0.0000
0.4444 0.8333 0.0000
0.5000 0.8056 0.0000
0.5000 0.8611 0.0000
0.4444 0.9444 0.0000
0.5000 0.9167 0.0000
0.5000 0.9722 0.0000
0.6667 0.0556 0.0000
0.7222 0.0278 0.0000
0.7222 0.0833 0.0000
0.6667 0.1667 0.0000
0.7222 0.1389 0.0000
0.7222 0.1944 0.0000
0.6667 0.2778 0.0000
0.7222 0.2500 0.0000
0.7222 0.3056 0.0000
0.6667 0.3889 0.0000
0.7222 0.3611 0.0000
0.7222 0.4167 0.0000
0.6667 0.5000 0.0000
0.7222 0.4722 0.0000
0.7222 0.5278 0.0000
0.6667 0.6111 0.0000
0.7222 0.5833 0.0000
0.7222 0.6389 0.0000
0.6667 0.7222 0.0000
0.7222 0.6944 0.0000
0.7222 0.7500 0.0000
0.6667 0.8333 0.0000
0.7222 0.8056 0.0000
0.7222 0.8611 0.0000
0.6667 0.9444 0.0000
0.7222 0.9167 0.0000
0.7222 0.9722 0.0000
0.8889 0.0556 0.0000
0.9444 0.0278 0.0000
0.9444 0.0833 0.0000
0.8889 0.1667 0.0000
0.9444 0.1389 0.0000
0.9444 0.1944 0.0000
0.8889 0.2778 0.0000
0.9444 0.2500 0.0000
0.9444 0.3056 0.0000
0.8889 0.3889 0.0000
0.9444 0.3611 0.0000
0.9444 0.4167 0.0000
0.8889 0.5000 0.0000
0.9444 0.4722 0.0000
0.9444 0.5278 0.0000
0.8889 0.6111 0.0000
0.9444 0.5833 0.0000
0.9444 0.6389 0.0000
0.8889 0.7222 0.0000
0.9444 0.6944 0.0000
0.9444 0.7500 0.0000
0.8889 0.8333 0.0000
0.9444 0.8056 0.0000
0.9444 0.8611 0.0000
0.8889 0.9444 0.0000
0.9444 0.9167 0.0000
0.9444 0.9722 0.0000
1.1111 0.0556 0.0000
1.1667 0.0278 0.0000
1.1667 0.0833 0.0000
1.1111 0.1667 0.0000
1.1667 0.1389 0.0000
1.1667 0.1944 0.0000
1.1111 0.2778 0.0000
1.1667 0.2500 0.0000
1.1667 0.3056 0.0000
1.1111 0.3889 0.0000
1.1667 0.3611 0.0000
1.1667 0.4167 0.0000
1.1111 0.5000 0.0000
1.1667 0.4722 0.0000
1.1667 0.5278 0.0000
1.1111 0.6111 0.0000
1.1667 0.5833 0.0000
1.1667 0.6389 0.0000
1.1111 0.7222 0.0000
1.1667 0.6944 0.0000
1.1667 0.7500 0.0000
1.1111 0.8333 0.0000
1.1667 0.8056 0.0000
1.1667 0.8611 0.0000
1.1111 0.9444 0.0000
1.1667 0.9167 0.0000
1.1667 0.9722 0.0000
1.3333 0.0556 0.0000
1.3889 0.0278 0.0000
1.3889 0.0833 0.0000
1.3333 0.1667 0.0000
1.3889 0.1389 0.0000
1.3889 0.1944 0.0000
1.3333 0.2778 0.0000
1.3889 0.2500 0.0000
1.3889 0.3056 0.0000
1.3333 0.3889 0.0000
1.3889 0.3611 0.0000
1.3889 0.4167 0.0000
1.3333 0.5000 0.0000
1.3889 0.4722 0.0000
1.3889 0.5278 0.0000
1.3333 0.6111 0.0000
1.3889 0.5833 0.0000
1.3889 0.6389 0.0000
1.3333 0.7222 0.0000
1.3889 0.6944 0.0000
1.3889 0.7500 0.0000
1.3333 0.8333 0.0000
1.3889 0.8056 0.0000
1.3889 0.8611 0.0000
1.3333 0.9444 0.0000
1.3889 0.9167 0.0000
1.3889 0.9722 0.0000
1.5556 0.0556 0.0000
1.6111 0.0278 0.0000
1.6111 0.0833 0.0000
1.5556 0.1667 0.0000
1.6111 0.1389 0.0000
1.6111 0.1944 0.0000
1.5556 0.2778 0.0000
1.6111 0.2500 0.0000
1.6111 0.3056 0.0000
1.5556 0.3889 0.0000
1.6111 0.3611 0.0000
1.6111 0.4167 0.0000
1.5556 0.5000 0.0000
1.6111 0.4722 0.0000
1.6111 0.5278 0.0000
1.5556 0.6111 0.0000
1.6111 0.5833 0.0000
1.6111 0.6389 0.0000
1.5556 0.7222 0.0000
1.6111 0.6944 0.0000
1.6111 0.7500 0.0000
1.5556 0.8333 0.0000
1.6111 0.8056 0.0000
1.6111 0.8611 0.0000
1.5556 0.9444 0.0000
1.6111 0.9167 0.0000
1.6111 0.9722 0.0000
1.7778 0.0556 0.0000
1.8333 0.0278 0.0000
1.8333 0.0833 0.0000
1.7778 0.1667 0.0000
1.8333 0.1389 0.0000
1.8333 0.1944 0.0000
1.7778 0.2778 0.0000
1.8333 0.2500 0.0000
1.8333 0.3056 0.0000
1.7778 0.3889 0.0000
1.8333 0.3611 0.0000
1.8333 0.4167 0.0000
1.7778 0.5000 0.0000
1.8333 0.4722 0.0000
1.8333 0.5278 0.0000
1.7778 0.6111 0.0000
1.8333 0.5833 0.0000
1.8333 0.6389 0.0000
1.7778 0.7222 0.0000
1.8333 0.6944 0.0000
1.8333 0.7500 0.0000
1.7778 0.8333 0.0000
1.8333 0.8056 0.0000
1.8333 0.8611 0.0000
1.7778 0.9444 0.0000
1.8333 0.9167 0.0000
1.8333 0.9722 0.0000
0.1111 0.1111 0.0000
0.1667 0.0833 0.0000
0.1111 0.2222 0.0000
0.1667 0.1944 0.0000
0.1111 0.3333 0.0000
0.1667 0.3056 0.0000
0.1111 0.4444 0.0000
0.1667 0.4167 0.0000
0.1111 0.5556 0.0000
0.1667 0.5278 0.0000
0.1111 0.6667 0.0000
0.1667 0.6389 0.0000
0.1111 0.7778 0.0000
0.1667 0.7500 0.0000
0.1111 0.8889 0.0000
0.1667 0.8611 0.0000
0.1111 1.0000 0.0000
0.1667 0.9722 0.0000
0.3333 0.1111 0.0000
0.3889 0.0833 0.0000
0.3333 0.2222 0.0000
0.3889 0.1944 0.0000
0.3333 0.3333 0.0000
0.3889 0.3056 0.0000
0.3333 0.4444 0.0000
0.3889 0.4167 0.0000
0.3333 0.5556 0.0000
0.3889 0.5278 0.0000
0.3333 0.6667 0.0000
0.3889 0.6389 0.0000
0.3333 0.7778 0.0000
0.3889 0.7500 0.0000
0.3333 0.8889 0.0000
0.3889 0.8611 0.0000
0.3333 1.0000 0.0000
0.3889 0.9722 0.0000
0.5556 0.1111 0.0000
[...]
         <PointData>
            <DataArray Name="fValues" NumberOfComponents="3" format="ascii" type="Float64">
-5.69860e-24  3.98902e-24        00000 
-1.91857e-23  1.30365e-23        00000 
 1.02364e-23  8.68402e-24        00000 
 2.74358e-23 -4.50730e-23        00000 
 1.41293e-22 -7.60816e-24        00000 
-3.13552e-23  3.91939e-23        00000 
-3.44282e-23  1.53697e-24        00000 
-2.44741e-23  2.93689e-23        00000 
 7.87295e-24  2.36189e-23        00000 
-1.82355e-23 -9.11777e-24        00000 
-5.17891e-08  5.20367e-07        00000 
-7.27378e-08  5.85874e-07        00000 
 3.15794e-07 -2.66704e-07        00000 
 6.11531e-08 -1.85116e-07        00000 
 8.07782e-09 -6.38480e-07        00000 
 5.52813e-08  3.28641e-07        00000 
 1.80959e-07  1.68325e-07        00000 
 3.82418e-07  1.67085e-07        00000 
-2.02865e-08 -1.05895e-08        00000 
 1.59158e-07  5.24891e-07        00000 
-1.40162e-08  8.68056e-07        00000 
 3.58214e-07  2.69702e-07        00000 
-1.09740e-07 -1.61555e-07        00000 
-8.82212e-07 -5.64439e-07        00000 
 2.46187e-07 -3.11269e-07        00000 
 1.46236e-07 -3.03543e-07        00000 
 7.02847e-08  2.72227e-07        00000 
 2.02241e-07 -2.41502e-07        00000 
 8.96722e-08  3.28856e-07        00000 
 4.62891e-07  8.80179e-07        00000 
 1.65460e-07  9.15938e-08        00000 
 5.87319e-08  1.06870e-07        00000 
 2.86524e-07  2.26942e-07        00000 
-6.39030e-07 -1.60709e-07        00000 
 4.49076e-07 -1.76282e-07        00000 
 4.73975e-07  1.38204e-07        00000 
-2.75679e-08  4.87188e-07        00000 
-3.28630e-07 -1.53390e-07        00000 
-1.72416e-08 -2.74738e-07        00000 
-1.55979e-07 -2.40483e-07        00000 
-5.09070e-07  2.93048e-07        00000 
 3.31869e-07  6.77305e-07        00000 
-1.13858e-07  1.01182e-08        00000 
-3.59948e-07 -2.35776e-07        00000 
-2.49873e-08  1.98474e-07        00000 
-5.10916e-07 -2.31419e-07        00000 
-3.72426e-07  4.18452e-07        00000 
-3.15507e-07 -9.11149e-08        00000 
-5.82447e-07 -2.91381e-07        00000 
-8.13642e-07 -1.10970e-08        00000 
 3.83310e-07 -7.75995e-07        00000 
-2.84217e-07 -1.72240e-07        00000 
 1.36685e-07  2.98242e-08        00000 
-2.28551e-08  7.87832e-08        00000 
-1.36977e-07 -1.03618e-07        00000 
-9.11078e-08  9.61670e-08        00000 
-3.66852e-07  2.39987e-07        00000 
-3.20340e-07  1.63225e-07        00000 
-4.79862e-07  1.14811e-07        00000 
-5.12083e-07  1.08582e-06        00000 
 1.80805e-07 -4.30325e-07        00000 
-3.50011e-07 -2.73082e-08        00000 
-8.55081e-08 -2.35377e-07        00000 
 1.95360e-07  4.69799e-07        00000 
 3.12598e-07  3.65896e-07        00000 
-2.40211e-08  1.12451e-07        00000 
 4.23316e-08  1.51298e-07        00000 
-4.62482e-07  2.34853e-08        00000 
-5.08015e-07  2.54250e-07        00000 
 1.36705e-07  1.62244e-06        00000 
-5.35906e-07 -7.78515e-07        00000 
 2.24862e-07 -1.13833e-07        00000 
-1.10841e-07 -8.62831e-08        00000 
-6.14576e-08 -1.72019e-07        00000 
-8.64420e-08  1.73752e-07        00000 
-1.27065e-07  8.25299e-08        00000 
-1.96392e-07  3.45613e-07        00000 
-4.39766e-08  4.28414e-07        00000 
 1.23952e-07  4.19609e-08        00000 
-1.82170e-07 -3.26783e-07        00000 
 2.30457e-08 -5.11354e-07        00000 
-1.23540e-07 -1.12111e-07        00000 
-4.40695e-07  3.04726e-08        00000 
-1.12974e-07 -2.56663e-08        00000 
-4.37463e-07 -3.24025e-07        00000 
-2.40356e-07 -1.11050e-07        00000 
-4.56453e-07  3.93182e-08        00000 
-3.27224e-07  5.02850e-07        00000 
-5.27667e-07  5.90895e-07        00000 
-2.83511e-07 -3.17908e-07        00000 
-9.90033e-08  3.88611e-07        00000 
 1.51579e-07  1.46838e-07        00000 
 3.71611e-07  2.26622e-08        00000 
 1.35113e-07  1.22752e-08        00000 
 3.19228e-07 -2.61262e-07        00000 
 2.89959e-08 -2.37790e-09        00000 
-5.15803e-09  3.84736e-07        00000 
-5.88965e-08  1.05164e-07        00000 
 2.83853e-07 -1.93123e-07        00000 
-5.14475e-07  1.61030e-07        00000 
 6.45832e-08 -8.93127e-08        00000 
 1.27042e-07  3.80727e-08        00000 
 3.67069e-07 -3.93668e-08        00000 
-4.26327e-08  4.18733e-07        00000 
-8.98060e-08  2.35016e-07        00000 
-2.39253e-07  7.47209e-08        00000 
-1.87833e-07  1.90659e-07        00000 
-1.28115e-07  2.62028e-07        00000 
 2.69771e-07  2.43219e-09        00000 
-2.95478e-07 -2.58543e-07        00000 
 4.54830e-07  1.46347e-07        00000 
 2.86760e-07 -5.30071e-08        00000 
 1.50026e-07 -4.63512e-08        00000 
 1.90158e-07 -9.28083e-08        00000 
-3.32391e-08  2.46397e-07        00000 
 2.25340e-07  2.76235e-07        00000 
-1.76371e-07 -6.88809e-08        00000 
-4.89827e-08 -1.75871e-07        00000 
 3.27391e-07  3.60267e-08        00000 
 1.57575e-08 -3.67521e-08        00000 
-2.13709e-07  3.87154e-08        00000 
-6.46674e-08 -1.93978e-07        00000 
-1.13641e-07  2.76827e-07        00000 
 6.44977e-07  1.09762e-07        00000 
 4.61091e-07 -4.31049e-07        00000 
 2.88988e-07 -1.95270e-07        00000 
 2.57845e-07 -3.63453e-07        00000 
-3.44930e-07 -1.18499e-07        00000 
 2.50807e-07  5.99310e-07        00000 
 2.00723e-08  2.57408e-07        00000 
 2.89611e-07  4.12129e-07        00000 
-3.34009e-07  3.39104e-07        00000 
 4.30548e-07  5.37710e-07        00000 
 6.62656e-07  3.26310e-07        00000 
 5.54594e-08 -1.55482e-07        00000 
 1.90712e-08 -1.02430e-08        00000 
 6.27882e-08  3.03902e-07        00000 
 7.14293e-07  5.96083e-07        00000 
 1.17316e-07  1.95390e-07        00000 
 1.80292e-07 -1.22771e-07        00000 
 2.53072e-07  3.91754e-07        00000 
 9.03757e-07  8.28577e-07        00000 
 2.98210e-07  6.00906e-07        00000 
 1.83140e-07  3.51268e-07        00000 
 2.01053e-07  2.25551e-07        00000 
-1.61501e-07  2.80577e-07        00000 
-1.04669e-07 -2.65666e-07        00000 
 2.74966e-07 -7.45879e-08        00000 
 3.63106e-07 -9.20206e-08        00000 
 1.91379e-07  2.43882e-07        00000 
 7.07345e-08  2.68672e-07        00000 
-4.84116e-07  9.51794e-08        00000 
-2.93294e-08  5.49837e-08        00000 
-2.05817e-07 -6.20551e-07        00000 
 2.60873e-07 -1.06852e-07        00000 
-5.63503e-07 -4.45095e-07        00000 
-1.11591e-07 -1.45015e-07        00000 
 2.66142e-07  4.83729e-09        00000 
-1.28668e-07  4.65421e-08        00000 
-6.14091e-07  6.66521e-08        00000 
-2.61110e-07 -1.28353e-07        00000 
-3.19473e-07  2.87436e-07        00000 
-4.71179e-07 -1.36402e-07        00000 
-1.25987e-07  6.34323e-07        00000 
 8.98050e-08  1.63653e-07        00000 
-1.86965e-07  4.56177e-07        00000 
-2.02949e-07  2.95676e-07        00000 
 1.77069e-07  3.18047e-07        00000 
-4.68213e-07  2.87287e-07        00000 
 2.19478e-08  4.08016e-07        00000 
 2.44086e-07  4.45090e-07        00000 
 2.13058e-08  5.92973e-07        00000 
-1.05109e-07  2.15776e-07        00000 
 1.95395e-08  7.42379e-07        00000 
 1.94453e-07  4.31024e-07        00000 
 1.06800e-07  5.60882e-07        00000 
-1.10502e-07  6.09576e-07        00000 
-4.18390e-07  3.26549e-07        00000 
 4.83236e-08  6.35449e-07        00000 
 5.78515e-08  6.67394e-07        00000 
 8.91948e-08  2.21754e-07        00000 
 5.25722e-23  7.88597e-25        00000 
-2.23446e-08 -2.29937e-07        00000 
 3.19483e-07  3.56317e-08        00000 
-6.12631e-23 -1.44734e-24        00000 
 4.13247e-07 -1.22114e-07        00000 
 6.74340e-08  3.03561e-08        00000 
-1.86116e-23  3.72231e-24        00000 
 6.58693e-08  5.61344e-08        00000 
 3.52051e-07 -1.17186e-07        00000 
-1.21491e-24  6.82697e-23        00000 
 1.22554e-07 -4.82541e-08        00000 
 2.96618e-07  4.57856e-07        00000 
 2.97785e-23  7.44463e-24        00000 
 4.99440e-07 -1.03969e-07        00000 
-4.91018e-08  2.64438e-07        00000 
-2.77628e-23 -1.51454e-23        00000 
 9.13790e-08 -2.07393e-07        00000 
-3.84423e-07 -7.34027e-08        00000 
 3.72231e-24  1.48893e-23        00000 
 5.67957e-08  1.61680e-07        00000 
-5.17672e-08 -1.63306e-07        00000 
-2.97785e-23  2.97785e-23        00000 
-1.98133e-07 -1.60983e-07        00000 
-1.97691e-07  2.41788e-07        00000 
-2.47584e-23 -8.18217e-24        00000 
-1.60342e-07  5.24980e-09        00000 
-2.93955e-08 -3.24120e-07        00000 
-4.16475e-07  5.77658e-08        00000 
 1.96862e-07 -5.22081e-07        00000 
 1.52704e-08  2.67211e-07        00000 
 6.78931e-08 -3.32776e-07        00000 
 2.12301e-07  3.51913e-07        00000 
-3.46223e-07 -2.18176e-07        00000 
 1.57270e-07 -4.37890e-07        00000 
 2.47429e-07  4.21018e-07        00000 
 5.12404e-07 -1.82055e-07        00000 
 2.22525e-07  2.95481e-07        00000 
 6.49707e-07 -4.65739e-07        00000 
 1.48608e-07 -4.49855e-07        00000 
-5.16222e-08 -1.90986e-08        00000 
 1.60372e-07 -7.57179e-08        00000 
 2.60985e-07  2.33014e-07        00000 
-1.02717e-07  3.06831e-07        00000 
 3.17681e-07 -1.57359e-07        00000 
 1.71382e-07 -1.05743e-07        00000 
 1.41132e-07 -3.10303e-07        00000 
 4.46835e-07 -2.85977e-08        00000 
 4.42169e-07  3.94563e-07        00000 
-8.12156e-09  7.66903e-08        00000 
 5.11211e-07  2.27430e-07        00000 
-2.23403e-07 -5.39288e-07        00000 
 2.20669e-07  2.63398e-07        00000 
 1.84467e-07  3.20346e-07        00000 
 2.17388e-07 -5.95416e-07        00000 
 3.04890e-07 -2.16988e-07        00000 
 6.43433e-07 -5.94074e-07        00000 
 4.99027e-07  2.74637e-07        00000 
 7.44364e-08 -3.82867e-07        00000 
-6.31291e-08 -7.73120e-08        00000 
-3.15084e-07 -1.30786e-07        00000 
-3.86068e-07  1.89543e-07        00000 
-8.02240e-08  9.36328e-08        00000 
 1.12072e-07 -1.02218e-07        00000 
 1.55312e-07  1.61709e-07        00000 
 2.30928e-07 -3.34576e-07        00000 
-7.22678e-08 -1.99856e-07        00000 
-1.23248e-08  1.58729e-07        00000 
-6.65386e-07 -3.97791e-07        00000 
-3.40843e-08 -8.09829e-08        00000 
-8.55602e-08 -1.39267e-07        00000 
-6.40391e-08 -3.37286e-07        00000 
 1.87266e-07  3.02906e-07        00000 
-1.20409e-07 -4.65205e-07        00000 
-2.17590e-07 -7.78752e-07        00000 
-3.63811e-07 -2.91037e-07        00000 
-4.51041e-08 -1.97234e-07        00000 
 1.91227e-07  4.69572e-08        00000 
 1.75720e-07  2.55060e-07        00000 
-2.91972e-07  7.27624e-07        00000 
 4.60930e-07  3.49397e-07        00000 
 5.19083e-07 -5.54464e-07        00000 
-1.58868e-07  1.36194e-07        00000 
-1.88539e-08  2.44262e-07        00000 
 3.59581e-07 -5.14971e-08        00000 
 1.83537e-08 -1.76788e-08        00000 
 1.67360e-07  2.17363e-07        00000 
 6.46162e-07  4.98325e-07        00000 
-3.58433e-07 -1.05429e-07        00000 
 3.10268e-07  2.82050e-07        00000 
 2.10632e-07  1.03085e-07        00000 
 1.21058e-07  2.91063e-07        00000 
 2.75209e-07  5.47838e-07        00000 
 1.26534e-07 -1.06777e-08        00000 
-2.04167e-07  2.04817e-07        00000 
 2.14723e-07  7.53664e-07        00000 
-6.05829e-08  1.25654e-07        00000 
-3.77756e-07  2.46382e-07        00000 
-1.01693e-07 -1.39849e-07        00000 
-5.75491e-08  3.43877e-07        00000 
-4.35676e-07 -9.67940e-08        00000 
 3.56470e-08  3.06025e-07        00000 
-2.45914e-07 -4.88764e-08        00000 
-2.90330e-07 -1.13169e-07        00000 
-2.04545e-07  2.13457e-07        00000 
-7.80006e-08  1.88729e-07        00000 
-3.68115e-07  3.10668e-07        00000 
 6.91215e-07 -2.51458e-07        00000 
 7.27873e-07  6.61826e-07        00000 
-9.09718e-07 -7.14312e-07        00000 
 8.70593e-08 -8.18415e-07        00000 
-4.69781e-07  6.88451e-07        00000 
 2.72901e-07  2.18184e-07        00000 
-2.74922e-08  2.13547e-07        00000 
-4.46141e-07  3.55031e-07        00000 
 8.65513e-08  2.63623e-08        00000 
-2.44294e-08  2.36957e-07        00000 
 9.97853e-08 -8.38997e-08        00000 
-5.52331e-08  1.92272e-07        00000 
 2.99055e-07 -4.33044e-08        00000 
-7.23045e-07 -4.27883e-07        00000 
-3.81658e-07  3.10488e-08        00000 
-6.04543e-08  2.03062e-07        00000 
-4.09876e-07 -2.68089e-07        00000 
-5.28309e-08 -3.47976e-08        00000 
 6.38665e-08  1.38031e-08        00000 
 7.72623e-07  3.20391e-07        00000 
 1.06709e-07 -5.41443e-08        00000 
 3.24236e-07  2.95028e-07        00000 
 5.01027e-07  5.51342e-07        00000 
-7.32130e-09  2.81249e-08        00000 
-4.58690e-08  6.81154e-08        00000 
 2.35073e-07 -1.80709e-07        00000 
 5.36329e-08  2.78913e-07        00000 
 2.73344e-07  5.99638e-08        00000 
 1.23981e-07  5.65943e-07        00000 
-2.32886e-07  1.72680e-07        00000 
 2.59024e-07  8.31567e-07        00000 
-4.96488e-08 -4.83252e-07        00000 
 2.18029e-07 -4.07865e-08        00000 
-1.01156e-07  1.32916e-07        00000 
-8.33373e-08  8.81428e-08        00000 
 2.33241e-07  3.38269e-08        00000 
-6.88638e-08  3.15402e-07        00000 
 9.43058e-08  4.77897e-08        00000 
-3.60182e-08  1.93889e-08        00000 
 6.54324e-08  2.75309e-08        00000 
-1.66688e-08 -5.09921e-07        00000 
-2.06955e-07 -1.39970e-07        00000 
 1.12768e-07  9.83690e-08        00000 
 1.34537e-07 -1.23102e-07        00000 
 1.73422e-07  1.16289e-07        00000 
 1.49249e-07  1.19713e-07        00000 
 1.89956e-07  1.83714e-07        00000 
-3.70090e-08  9.16706e-08        00000 
-2.65147e-07  1.43224e-07        00000 
-3.40027e-07  2.21354e-08        00000 
-1.70604e-09  1.49612e-07        00000 
-3.22988e-07  6.11729e-08        00000 
 1.11033e-07  4.22251e-08        00000 
-1.43815e-07  1.92188e-07        00000 
-1.39497e-07  4.74789e-07        00000 
-8.08005e-08 -1.16738e-06        00000 
-4.01843e-07  4.04074e-07        00000 
 2.95379e-07  9.16854e-07        00000 
-1.01815e-07  4.06469e-08        00000 
-4.59122e-07  4.53581e-07        00000 
-9.85854e-08 -1.68941e-07        00000 
 1.47380e-08  4.16318e-07        00000 
-4.42900e-07  1.30961e-07        00000 
 1.13881e-08 -1.80871e-07        00000 
-1.24042e-07  4.26065e-07        00000 
-4.65300e-07 -5.61155e-07        00000 
 3.94359e-07  2.47151e-07        00000 
 7.04155e-08  3.75978e-07        00000 
-3.24022e-07  3.03619e-08        00000 
 4.72597e-07  2.97756e-07        00000 
 1.35196e-07 -3.02318e-07        00000 
-2.53247e-07  1.21846e-07        00000 
 1.50386e-08  8.88061e-07        00000 
 3.19628e-07  6.79124e-08        00000 
-4.88540e-07  4.67080e-07        00000 
 2.06505e-07  8.14041e-07        00000 
-5.49077e-07  1.28618e-08        00000 
-8.89854e-07  4.35662e-07        00000 
 5.22076e-08  1.73587e-07        00000 
 2.28817e-07  3.58668e-07        00000 
-4.49666e-07 -1.57839e-07        00000 
 4.02793e-07  4.50680e-07        00000 
-1.01109e-08 -1.04416e-06        00000 
 3.41979e-07  4.57657e-07        00000 
-9.23731e-08  1.18789e-06        00000 
-1.68766e-07 -3.68695e-07        00000 
 5.46565e-07  9.67004e-08        00000 
-1.15874e-07  5.45016e-07        00000 
-4.68300e-08  7.17197e-08        00000 
 3.90221e-07  3.19515e-07        00000 
-5.34725e-07  8.62542e-10        00000 
 4.89158e-08  2.60553e-07        00000 
 2.41822e-07  1.39922e-07        00000 
 6.59803e-08  4.87357e-08        00000 
-2.27642e-07  4.81238e-07        00000 
-1.29723e-07 -1.22520e-07        00000 
-2.28571e-07 -2.40858e-07        00000 
 4.76675e-08  4.95291e-07        00000 
-2.07971e-07 -1.96481e-07        00000 
-1.18404e-07 -1.63692e-07        00000 
 2.26379e-07 -9.77927e-08        00000 
 3.10823e-07  6.23119e-07        00000 
 4.22455e-07  2.23695e-07        00000 
 7.11839e-07  2.38803e-08        00000 
-2.35043e-07 -1.20387e-07        00000 
 1.84528e-08  1.06551e-08        00000 
-1.40138e-07  3.60702e-07        00000 
-4.16614e-07  1.97083e-07        00000 
-1.68939e-07 -2.83964e-08        00000 
 2.50029e-07  4.54680e-07        00000 
-2.58637e-07 -7.11353e-08        00000 
 9.58488e-08  3.69694e-07        00000 
 7.08304e-07 -2.13390e-07        00000 
-5.54072e-07 -8.86603e-08        00000 
 5.31398e-07  3.77421e-08        00000 
 5.92271e-07 -1.27078e-07        00000 
-3.78077e-07  1.05302e-07        00000 
 2.51819e-07  2.72800e-07        00000 
 1.98021e-07 -2.64228e-08        00000 
-1.35424e-07  6.83444e-08        00000 
-1.49646e-07 -2.47587e-07        00000 
-2.00072e-08 -9.94625e-08        00000 
-8.30728e-08  2.62440e-07        00000 
-2.80736e-07 -9.49096e-09        00000 
 1.26144e-08  8.53883e-08        00000 
 5.27812e-08  2.47908e-07        00000 
-1.34533e-07 -7.69181e-08        00000 
 1.60431e-07  9.91559e-08        00000 
-1.36668e-07  7.78977e-07        00000 
-1.63531e-07 -7.39213e-08        00000 
 5.38158e-07  5.38397e-07        00000 
-3.52403e-07  6.12628e-07        00000 
-1.23217e-08  7.23315e-08        00000 
 6.24889e-07  4.92929e-07        00000 
-2.51172e-07  1.28355e-07        00000 
 9.58577e-08 -5.27225e-08        00000 
-1.45600e-07  2.81600e-07        00000 
-4.98885e-07 -2.30658e-08        00000 
-1.90426e-07 -4.24573e-07        00000 
 2.23153e-07 -2.32077e-07        00000 
 2.95374e-07 -3.69970e-07        00000 
 1.57993e-07  1.42106e-07        00000 
 3.65196e-08 -2.41640e-07        00000 
-3.54156e-09  1.35782e-07        00000 
 2.14572e-07  1.37069e-07        00000 
 7.99641e-08  3.44699e-07        00000 
 3.37958e-07  1.24675e-07        00000 
 2.11909e-07  4.37727e-07        00000 
 1.73009e-07  1.19287e-07        00000 
 3.54624e-07 -1.73861e-07        00000 
-4.18091e-08 -5.77137e-08        00000 
 1.16124e-07  9.48230e-08        00000 
 2.38398e-07  4.36061e-08        00000 
 4.68873e-07  3.04524e-07        00000 
 2.74597e-08 -1.58110e-07        00000 
 2.24605e-07  4.39519e-07        00000 
 4.12276e-07  1.73563e-07        00000 
 8.23004e-08  6.21269e-07        00000 
 2.57606e-07 -1.87653e-07        00000 
 9.17322e-08  7.92168e-07        00000 
 3.57557e-07  1.16063e-07        00000 
 2.76275e-07  6.07863e-07        00000 
 3.80328e-07  6.57700e-10        00000 
 2.74548e-07  6.63427e-07        00000 
 2.77191e-07  1.32551e-07        00000 
 1.30713e-07  4.59413e-07        00000 
-1.07845e-07  2.72989e-08        00000 
 3.83419e-07  4.78101e-07        00000 
-7.86861e-08  1.66230e-07        00000 
 7.73817e-09 -1.29895e-07        00000 
-5.72642e-08 -3.47175e-07        00000 
 5.28903e-08  5.02266e-07        00000 
 5.11380e-07 -6.45272e-07        00000 
 1.10073e-07  2.72815e-07        00000 
 1.39492e-07 -8.02239e-08        00000 
 2.85343e-07 -7.19260e-08        00000 
-1.73364e-07  3.45435e-07        00000 
-2.15534e-07  6.23740e-07        00000 
 1.39420e-07  2.61914e-07        00000 
-2.31327e-07 -3.05842e-07        00000 
 2.87180e-07 -3.13492e-07        00000 
 3.59844e-07 -4.16064e-09        00000 
 5.76868e-07  4.31735e-07        00000 
 1.52707e-07 -1.47009e-07        00000 
 3.63865e-07  1.76681e-07        00000 
 4.71892e-07 -1.87030e-07        00000 
-6.65434e-08 -1.11450e-07        00000 
 2.23284e-07  8.48308e-08        00000 
 2.71748e-07 -3.07443e-07        00000 
 6.92742e-07  8.21931e-08        00000 
 9.47934e-08  3.64814e-07        00000 
 1.11125e-07  2.04817e-07        00000 
 1.79747e-07 -4.20904e-07        00000 
 4.44680e-07  2.25853e-07        00000 
-3.03785e-07  4.89902e-07        00000 
 3.58760e-07  3.24594e-07        00000 
-1.45686e-07  5.48603e-08        00000 
 2.23718e-07 -5.85120e-07        00000 
-4.57200e-07 -5.09169e-07        00000 
 2.74103e-07 -3.55375e-07        00000 
 6.60130e-10 -3.27620e-08        00000 
 1.60935e-07 -5.94571e-08        00000 
-4.15725e-07 -4.81857e-08        00000 
-5.01478e-08 -5.97233e-07        00000 
-2.65355e-07 -6.13782e-08        00000 
-4.70936e-07  7.56076e-08        00000 
-6.28530e-08 -3.52208e-07        00000 
 3.45298e-07 -8.73288e-07        00000 
 1.93426e-07  5.31023e-07        00000 
-6.45284e-08  2.23085e-07        00000 