<?xml version="1.0" encoding="utf-8"?>
<VTKFile byte_order="LittleEndian" type="UnstructuredGrid" version="0.1">
   <UnstructuredGrid>
      <Piece NumberOfCells="1296" NumberOfPoints="685">
         <Points>
            <DataArray Name="Points" NumberOfComponents="3" format="ascii" type="Float32">
0.0000 0.0000 0.0000
0.0000 0.1111 0.0000
0.0000 0.2222 0.0000
0.0000 0.3333 0.0000
0.0000 0.4444 0.0000
0.0000 0.5556 0.0000
0.0000 0.6667 0.0000
0.0000 0.7778 0.0000
0.0000 0.8889 0.0000
0.0000 1.0000 0.0000
0.2222 0.0000 0.0000
0.2222 0.1111 0.0000
0.2222 0.2222 0.0000
0.2222 0.3333 0.0000
0.2222 0.4444 0.0000
0.2222 0.5556 0.0000
0.2222 0.6667 0.0000
0.2222 0.7778 0.0000
0.2222 0.8889 0.0000
0.2222 1.0000 0.0000
0.4444 0.0000 0.0000
0.4444 0.1111 0.0000
0.4444 0.2222 0.0000
0.4444 0.3333 0.0000
0.4444 0.4444 0.0000
0.4444 0.5556 0.0000
0.4444 0.6667 0.0000
0.4444 0.7778 0.0000
0.4444 0.8889 0.0000
0.4444 1.0000 0.0000
0.6667 0.0000 0.0000
0.6667 0.1111 0.0000
0.6667 0.2222 0.0000
0.6667 0.3333 0.0000
0.6667 0.4444 0.0000
0.6667 0.5556 0.0000
0.6667 0.6667 0.0000
0.6667 0.7778 0.0000
0.6667 0.8889 0.0000
0.6667 1.0000 0.0000
0.8889 0.0000 0.0000
0.8889 0.1111 0.0000
0.8889 0.2222 0.0000
0.8889 0.3333 0.0000
0.8889 0.4444 0.0000
0.8889 0.5556 0.0000
0.8889 0.6667 0.0000
0.8889 0.7778 0.0000
0.8889 0.8889 0.0000
0.8889 1.0000 0.0000
1.1111 0.0000 0.0000
1.1111 0.1111 0.0000
1.1111 0.2222 0.0000
1.1111 0.3333 0.0000
1.1111 0.4444 0.0000
1.1111 0.5556 0.0000
1.1111 0.6667 0.0000
1.1111 0.7778 0.0000
1.1111 0.8889 0.0000
1.1111 1.0000 0.0000
1.3333 0.0000 0.0000
1.3333 0.1111 0.0000
1.3333 0.2222 0.0000
1.3333 0.3333 0.0000
1.3333 0.4444 0.0000
1.3333 0.5556 0.0000
1.3333 0.6667 0.0000
1.3333 0.7778 0.0000
1.3333 0.8889 0.0000
1.3333 1.0000 0.0000
1.5556 0.0000 0.0000
1.5556 0.1111 0.0000
1.5556 0.2222 0.0000
1.5556 0.3333 0.0000
1.5556 0.4444 0.0000
1.5556 0.5556 0.0000
1.5556 0.6667 0.0000
1.5556 0.7778 0.0000
1.5556 0.8889 0.0000
1.5556 1.0000 0.0000
1.7778 0.0000 0.0000
1.7778 0.1111 0.0000
1.7778 0.2222 0.0000
1.7778 0.3333 0.0000
1.7778 0.4444 0.0000
1.7778 0.5556 0.0000
1.7778 0.6667 0.0000
1.7778 0.7778 0.0000
1.7778 0.8889 0.0000
1.7778 1.0000 0.0000
2.0000 0.0000 0.0000
2.0000 0.1111 0.0000
2.0000 0.2222 0.0000
2.0000 0.3333 0.0000
2.0000 0.4444 0.0000
2.0000 0.5556 0.0000
2.0000 0.6667 0.0000
2.0000 0.7778 0.0000
2.0000 0.8889 0.0000
2.0000 1.0000 0.0000
0.1111 0.0556 0.0000
0.1111 0.1667 0.0000
0.1111 0.2778 0.0000
0.1111 0.3889 0.0000
0.1111 0.5000 0.0000
0.1111 0.6111 0.0000
0.1111 0.7222 0.0000
0.1111 0.8333 0.0000
0.1111 0.9444 0.0000
0.3333 0.0556 0.0000
0.3333 0.1667 0.0000
0.3333 0.2778 0.0000
0.3333 0.3889 0.0000
0.3333 0.5000 0.0000
0.3333 0.6111 0.0000
0.3333 0.7222 0.0000
0.3333 0.8333 0.0000
0.3333 0.9444 0.0000
0.5556 0.0556 0.0000
0.5556 0.1667 0.0000
0.5556 0.2778 0.0000
0.5556 0.3889 0.0000
0.5556 0.5000 0.0000
0.5556 0.6111 0.0000
0.5556 0.7222 0.0000
0.5556 0.8333 0.0000
0.5556 0.9444 0.0000
0.7778 0.0556 0.0000
0.7778 0.1667 0.0000
0.7778 0.2778 0.0000
0.7778 0.3889 0.0000
0.7778 0.5000 0.0000
0.7778 0.6111 0.0000
0.7778 0.7222 0.0000
0.7778 0.8333 0.0000
0.7778 0.9444 0.0000
1.0000 0.0556 0.0000
1.0000 0.1667 0.0000
1.0000 0.2778 0.0000
1.0000 0.3889 0.0000
1.0000 0.5000 0.0000
1.0000 0.6111 0.0000
1.0000 0.7222 0.0000
1.0000 0.8333 0.0000
1.0000 0.9444 0.0000
1.2222 0.0556 0.0000
1.2222 0.1667 0.0000
1.2222 0.2778 0.0000
1.2222 0.3889 0.0000
1.2222 0.5000 0.0000
1.2222 0.6111 0.0000
1.2222 0.7222 0.0000
1.2222 0.8333 0.0000
1.2222 0.9444 0.0000
1.4444 0.0556 0.0000
1.4444 0.1667 0.0000
1.4444 0.2778 0.0000
1.4444 0.3889 0.0000
1.4444 0.5000 0.0000
1.4444 0.6111 0.0000
1.4444 0.7222 0.0000
1.4444 0.8333 0.0000
1.4444 0.9444 0.0000
1.6667 0.0556 0.0000
1.6667 0.1667 0.0000
1.6667 0.2778 0.0000
1.6667 0.3889 0.0000
1.6667 0.5000 0.0000
1.6667 0.6111 0.0000
1.6667 0.7222 0.0000
1.6667 0.8333 0.0000
1.6667 0.9444 0.0000
1.8889 0.0556 0.0000
1.8889 0.1667 0.0000
1.8889 0.2778 0.0000
1.8889 0.3889 0.0000
1.8889 0.5000 0.0000
1.8889 0.6111 0.0000
1.8889 0.7222 0.0000
1.8889 0.8333 0.0000
1.8889 0.9444 0.0000
0.0000 0.0556 0.0000
0.0556 0.0278 0.0000
0.0556 0.0833 0.0000
0.0000 0.1667 0.0000
0.0556 0.1389 0.0000
0.0556 0.1944 0.0000
0.0000 0.2778 0.0000
0.0556 0.2500 0.0000
0.0556 0.3056 0.0000
0.0000 0.3889 0.0000
0.0556 0.3611 0.0000
0.0556 0.4167 0.0000
0.0000 0.5000 0.0000
0.0556 0.4722 0.0000
0.0556 0.5278 0.0000
0.0000 0.6111 0.0000
0.0556 0.5833 0.0000
0.0556 0.6389 0.0000
0.0000 0.7222 0.0000
0.0556 0.6944 0.0000
0.0556 0.7500 0.0000
0.0000 0.8333 0.0000
0.0556 0.8056 0.0000
0.0556 0.8611 0.0000
0.0000 0.9444 0.0000
0.0556 0.9167 0.0000
0.0556 0.9722 0.0000
0.2222 0.0556 0.0000
0.2778 0.0278 0.0000
0.2778 0.0833 0.0000
0.2222 0.1667 0.0000
0.2778 0.1389 0.0000
0.2778 0.1944 0.0000
0.2222 0.2778 0.0000
0.2778 0.2500 0.0000
0.2778 0.3056 0.0000
0.2222 0.3889 0.0000
0.2778 0.3611 0.0000
0.2778 0.4167 0.0000
0.2222 0.5000 0.0000
0.2778 0.4722 0.0000
0.2778 0.5278 0.0000
0.2222 0.6111 0.0000
0.2778 0.5833 0.0000
0.2778 0.6389 0.0000
0.2222 0.7222 0.0000
0.2778 0.6944 0.0000
0.2778 0.7500 0.0000
0.2222 0.8333 0.0000
0.2778 0.8056 0.0000
0.2778 0.8611 0.0000
0.2222 0.9444 0.0000
0.2778 0.9167 0.0000
0.2778 0.9722 0.0000
0.4444 0.0556 0.0000
0.5000 0.0278 0.0000
0.5000 0.0833 0.0000
0.4444 0.1667 0.0000
0.5000 0.1389 0.0000
0.5000 0.1944 0.0000
0.4444 0.2778 0.0000
0.5000 0.2500 0.0000
0.5000 0.3056 0.0000
0.4444 0.3889 0.0000
0.5000 0.3611 0.0000
0.5000 0.4167 0.0000
0.4444 0.5000 0.0000
0.5000 0.4722 0.0000
0.5000 0.5278 0.0000
0.4444 0.6111 0.0000
0.5000 0.5833 0.0000
0.5000 0.6389 0.0000
0.4444 0.7222 0.0000
0.5000 0.6944 0.0000
0.5000 0.7500 0.0000
0.4444 0.8333 0.0000
0.5000 0.8056 0.0000
0.5000 0.8611 0.0000
0.4444 0.9444 0.0000
0.5000 0.9167 0.0000
0.5000 0.9722 0.0000
0.6667 0.0556 0.0000
0.7222 0.0278 0.0000
0.7222 0.0833 0.0000
0.6667 0.1667 0.0000
0.7222 0.1389 0.0000
0.7222 0.1944 0.0000
0.6667 0.2778 0.0000
0.7222 0.2500 0.0000
0.7222 0.3056 0.0000
0.6667 0.3889 0.0000
0.7222 0.3611 0.0000
0.7222 0.4167 0.0000
0.6667 0.5000 0.0000
0.7222 0.4722 0.0000
0.7222 0.5278 0.0000
0.6667 0.6111 0.0000
0.7222 0.5833 0.0000
0.7222 0.6389 0.0000
0.6667 0.7222 0.0000
0.7222 0.6944 0.0000
0.7222 0.7500 0.0000
0.6667 0.8333 0.0000
0.7222 0.8056 0.0000
0.7222 0.8611 0.0000
0.6667 0.9444 0.0000
0.7222 0.9167 0.0000
0.7222 0.9722 0.0000
0.8889 0.0556 0.0000
0.9444 0.0278 0.0000
0.9444 0.0833 0.0000
0.8889 0.1667 0.0000
0.9444 0.1389 0.0000
0.9444 0.1944 0.0000
0.8889 0.2778 0.0000
0.9444 0.2500 0.0000
0.9444 0.3056 0.0000
0.8889 0.3889 0.0000
0.9444 0.3611 0.0000
0.9444 0.4167 0.0000
0.8889 0.5000 0.0000
0.9444 0.4722 0.0000
0.9444 0.5278 0.0000
0.8889 0.6111 0.0000
0.9444 0.5833 0.0000
0.9444 0.6389 0.0000
0.8889 0.7222 0.0000
0.9444 0.6944 0.0000
0.9444 0.7500 0.0000
0.8889 0.8333 0.0000
0.9444 0.8056 0.0000
0.9444 0.8611 0.0000
0.8889 0.9444 0.0000
0.9444 0.9167 0.0000
0.9444 0.9722 0.0000
1.1111 0.0556 0.0000
1.1667 0.0278 0.0000
1.1667 0.0833 0.0000
1.1111 0.1667 0.0000
1.1667 0.1389 0.0000
1.1667 0.1944 0.0000
1.1111 0.2778 0.0000
1.1667 0.2500 0.0000
1.1667 0.3056 0.0000
1.1111 0.3889 0.0000
1.1667 0.3611 0.0000
1.1667 0.4167 0.0000
1.1111 0.5000 0.0000
1.1667 0.4722 0.0000
1.1667 0.5278 0.0000
1.1111 0.6111 0.0000
1.1667 0.5833 0.0000
1.1667 0.6389 0.0000
1.1111 0.7222 0.0000
1.1667 0.6944 0.0000
1.1667 0.7500 0.0000
1.1111 0.8333 0.0000
1.1667 0.8056 0.0000
1.1667 0.8611 0.0000
1.1111 0.9444 0.0000
1.1667 0.9167 0.0000
1.1667 0.9722 0.0000
1.3333 0.0556 0.0000
1.3889 0.0278 0.0000
1.3889 0.0833 0.0000
1.3333 0.1667 0.0000
1.3889 0.1389 0.0000
1.3889 0.1944 0.0000
1.3333 0.2778 0.0000
1.3889 0.2500 0.0000
1.3889 0.3056 0.0000
1.3333 0.3889 0.0000
1.3889 0.3611 0.0000
1.3889 0.4167 0.0000
1.3333 0.5000 0.0000
1.3889 0.4722 0.0000
1.3889 0.5278 0.0000
1.3333 0.6111 0.0000
1.3889 0.5833 0.0000
1.3889 0.6389 0.0000
1.3333 0.7222 0.0000
1.3889 0.6944 0.0000
1.3889 0.7500 0.0000
1.3333 0.8333 0.0000
1.3889 0.8056 0.0000
1.3889 0.8611 0.0000
1.3333 0.9444 0.0000
1.3889 0.9167 0.0000
1.3889 0.9722 0.0000
1.5556 0.0556 0.0000
1.6111 0.0278 0.0000
1.6111 0.0833 0.0000
1.5556 0.1667 0.0000
1.6111 0.1389 0.0000
1.6111 0.1944 0.0000
1.5556 0.2778 0.0000
1.6111 0.2500 0.0000
1.6111 0.3056 0.0000
1.5556 0.3889 0.0000
1.6111 0.3611 0.0000
1.6111 0.4167 0.0000
1.5556 0.5000 0.0000
1.6111 0.4722 0.0000
1.6111 0.5278 0.0000
1.5556 0.6111 0.0000
1.6111 0.5833 0.0000
1.6111 0.6389 0.0000
1.5556 0.7222 0.0000
1.6111 0.6944 0.0000
1.6111 0.7500 0.0000
1.5556 0.8333 0.0000
1.6111 0.8056 0.0000
1.6111 0.8611 0.0000
1.5556 0.9444 0.0000
1.6111 0.9167 0.0000
1.6111 0.9722 0.0000
1.7778 0.0556 0.0000
1.8333 0.0278 0.0000
1.8333 0.0833 0.0000
1.7778 0.1667 0.0000
1.8333 0.1389 0.0000
1.8333 0.1944 0.0000
1.7778 0.2778 0.0000
1.8333 0.2500 0.0000
1.8333 0.3056 0.0000
1.7778 0.3889 0.0000
1.8333 0.3611 0.0000
1.8333 0.4167 0.0000
1.7778 0.5000 0.0000
1.8333 0.4722 0.0000
1.8333 0.5278 0.0000
1.7778 0.6111 0.0000
1.8333 0.5833 0.0000
1.8333 0.6389 0.0000
1.7778 0.7222 0.0000
1.8333 0.6944 0.0000
1.8333 0.7500 0.0000
1.7778 0.8333 0.0000
1.8333 0.8056 0.0000
1.8333 0.8611 0.0000
1.7778 0.9444 0.0000
1.8333 0.9167 0.0000
1.8333 0.9722 0.0000
0.1111 0.1111 0.0000
0.1667 0.0833 0.0000
0.1111 0.2222 0.0000
0.1667 0.1944 0.0000
0.1111 0.3333 0.0000
0.1667 0.3056 0.0000
0.1111 0.4444 0.0000
0.1667 0.4167 0.0000
0.1111 0.5556 0.0000
0.1667 0.5278 0.0000
0.1111 0.6667 0.0000
0.1667 0.6389 0.0000
0.1111 0.7778 0.0000
0.1667 0.7500 0.0000
0.1111 0.8889 0.0000
0.1667 0.8611 0.0000
0.1111 1.0000 0.0000
0.1667 0.9722 0.0000
0.3333 0.1111 0.0000
0.3889 0.0833 0.0000
0.3333 0.2222 0.0000
0.3889 0.1944 0.0000
0.3333 0.3333 0.0000
0.3889 0.3056 0.0000
0.3333 0.4444 0.0000
0.3889 0.4167 0.0000
0.3333 0.5556 0.0000
0.3889 0.5278 0.0000
0.3333 0.6667 0.0000
0.3889 0.6389 0.0000
0.3333 0.7778 0.0000
0.3889 0.7500 0.0000
0.3333 0.8889 0.0000
0.3889 0.8611 0.0000
0.3333 1.0000 0.0000
0.3889 0.9722 0.0000
0.5556 0.1111 0.0000
[...]
         <PointData>
            <DataArray Name="fValues" NumberOfComponents="3" format="ascii" type="Float64">
       00000        00000        00000 
-2.97855e-26  5.38061e-26        00000 
-8.41745e-26 -5.33295e-26        00000 
-4.59304e-26 -4.59304e-26        00000 
-2.66604e-25 -3.24662e-26        00000 
 4.43994e-25 -1.53101e-25        00000 
 3.07395e-26  4.22668e-26        00000 
-1.37667e-25 -3.05926e-26        00000 
 5.53567e-25        00000        00000 
       00000        00000        00000 
-1.25076e-09  4.99747e-09        00000 
 2.49205e-09  5.27396e-10        00000 
 2.85898e-09 -1.67387e-09        00000 
-6.07278e-10 -1.25548e-09        00000 
 8.32419e-10 -1.10520e-09        00000 
 9.04246e-10  1.93126e-10        00000 
 8.83857e-10 -1.16046e-09        00000 
 1.85256e-09  2.30663e-10        00000 
-7.26385e-10 -1.07461e-10        00000 
 3.86419e-11 -1.45679e-09        00000 
-1.80764e-09 -5.32437e-10        00000 
 9.25891e-10  1.28827e-09        00000 
 3.03827e-09  5.10533e-10        00000 
 1.00027e-09 -4.95558e-10        00000 
 1.94738e-09  4.91593e-10        00000 
 3.07306e-09  1.36651e-09        00000 
 1.99308e-09  1.86912e-09        00000 
 1.70389e-09  9.39952e-10        00000 
 1.75417e-10  1.47407e-10        00000 
 6.32907e-10 -2.13581e-09        00000 
 1.09559e-09 -1.29968e-09        00000 
 3.05439e-10  2.28326e-09        00000 
 4.51984e-09  8.16678e-10        00000 
 4.91346e-10 -9.15123e-10        00000 
-1.38322e-09 -1.28413e-09        00000 
 2.36709e-09 -4.73230e-11        00000 
 1.53792e-10  2.33973e-09        00000 
 3.49655e-09  1.89007e-09        00000 
 1.22788e-09 -2.51033e-10        00000 
 2.25205e-10  5.28659e-09        00000 
 1.17088e-09 -2.57520e-09        00000 
-1.05025e-09  3.75644e-09        00000 
 1.40249e-09  9.07450e-11        00000 
 2.25786e-09  2.12748e-09        00000 
-1.58274e-09  2.20992e-09        00000 
-6.20072e-10  1.27371e-09        00000 
-1.74146e-09  4.00321e-09        00000 
 2.38989e-09  2.96102e-09        00000 
-8.25773e-10  1.35480e-09        00000 
 1.22768e-09  7.44213e-10        00000 
 1.05072e-09 -6.64758e-09        00000 
-5.52196e-11 -5.52924e-10        00000 
 6.55747e-10  1.41995e-09        00000 
 1.21310e-09 -1.10520e-09        00000 
 3.83523e-11  1.05796e-10        00000 
 2.29080e-09 -9.78180e-10        00000 
 1.67922e-09  5.40287e-10        00000 
 3.21837e-09  8.85405e-10        00000 
 1.14708e-10 -3.28627e-09        00000 
-9.54241e-11  4.08740e-10        00000 
 1.87036e-10 -1.97837e-09        00000 
 1.40025e-09  7.41243e-10        00000 
 2.36136e-09  2.36345e-09        00000 
 2.27403e-09  3.66916e-09        00000 
-1.93913e-09  2.95771e-10        00000 
 7.74388e-10 -1.73835e-09        00000 
 1.69942e-09 -5.59815e-10        00000 
 2.11346e-09 -4.28775e-10        00000 
 4.65239e-11 -4.14764e-10        00000 
 1.78678e-09  3.16511e-09        00000 
-1.17528e-09 -2.51648e-09        00000 
-1.24970e-09 -1.35066e-09        00000 
 3.97065e-09 -2.15701e-09        00000 
 1.07957e-09 -2.26747e-10        00000 
 1.32623e-09 -2.42072e-09        00000 
 4.34756e-11 -4.45173e-09        00000 
 6.66735e-10 -5.35252e-09        00000 
 1.49503e-09 -1.59386e-09        00000 
-5.49788e-10 -2.05838e-09        00000 
 1.89319e-09 -1.26966e-09        00000 
 1.29384e-09 -9.21889e-09        00000 
-5.80666e-10 -2.00454e-09        00000 
 1.99355e-09 -1.35041e-09        00000 
 2.23935e-09 -2.14221e-09        00000 
 2.48724e-09 -7.70684e-10        00000 
 3.52129e-09  7.88503e-10        00000 
 1.76944e-09  2.52202e-09        00000 
 3.29679e-09  1.13570e-09        00000 
-1.68565e-09  2.36987e-09        00000 
-4.08981e-11  9.08569e-09        00000 
-2.12639e-09 -3.95027e-09        00000 
-8.90479e-10 -1.33520e-09        00000 
-9.91914e-10 -3.35025e-09        00000 
-1.10756e-09 -1.88541e-09        00000 
 3.46139e-10 -3.81268e-09        00000 
-1.07162e-09 -4.89199e-09        00000 
-8.42803e-10 -3.17266e-09        00000 
-1.38507e-09 -2.85948e-10        00000 
-2.88759e-09 -1.89621e-09        00000 
-6.79065e-11 -6.65045e-10        00000 
-1.10541e-09 -7.63515e-10        00000 
 2.65442e-10  3.67562e-10        00000 
 1.00361e-09  6.31727e-10        00000 
 5.19892e-10  6.81195e-10        00000 
-1.57755e-09 -1.30955e-09        00000 
-2.04476e-10 -1.26989e-09        00000 
 7.86182e-11  3.31312e-10        00000 
 3.99296e-10 -2.72366e-10        00000 
-4.42405e-10  3.15000e-10        00000 
 2.23772e-10 -5.98107e-10        00000 
 5.32348e-10  1.38315e-09        00000 
 1.93244e-09 -2.77272e-10        00000 
 5.07147e-10  2.04614e-09        00000 
-1.89282e-09  1.64064e-09        00000 
-4.62258e-10  1.73548e-09        00000 
-2.77773e-10  4.90791e-10        00000 
 6.93655e-10  4.40587e-10        00000 
-7.89516e-10  2.45256e-09        00000 
 4.83971e-10 -7.30574e-10        00000 
 4.25592e-10 -4.86703e-10        00000 
 3.33631e-10 -1.74207e-09        00000 
 7.25381e-10 -5.98964e-10        00000 
 9.92853e-10 -2.53094e-09        00000 
-1.17934e-09  6.66772e-10        00000 
-3.30127e-09 -1.24833e-10        00000 
 1.60074e-09  1.29543e-09        00000 
 1.42509e-09 -5.52008e-10        00000 
-2.29959e-10 -7.88913e-11        00000 
 4.34899e-10 -3.90884e-10        00000 
 3.41623e-10 -1.45501e-09        00000 
 2.46798e-09 -9.39573e-10        00000 
 1.23137e-09 -1.71533e-09        00000 
 1.34599e-10  2.84128e-09        00000 
-1.19947e-09 -9.87161e-10        00000 
 5.44083e-11  1.22475e-09        00000 
-1.07258e-09  9.48087e-10        00000 
-1.09701e-09  2.70295e-09        00000 
 1.56850e-10 -7.75573e-10        00000 
-2.18937e-09 -4.87703e-10        00000 
-1.02646e-09 -2.68069e-09        00000 
-1.01009e-09 -4.93212e-10        00000 
-1.02195e-09  1.36205e-09        00000 
-2.15244e-09 -1.54556e-09        00000 
-1.69479e-09  7.25557e-10        00000 
 4.42419e-10  1.14186e-09        00000 
-1.60891e-09  7.95177e-10        00000 
 1.46880e-09 -8.18269e-10        00000 
-2.82517e-09 -1.18299e-09        00000 
-2.63381e-10 -1.36411e-10        00000 
 3.98829e-10  1.70262e-09        00000 
-1.97957e-09  5.01904e-10        00000 
-1.04847e-09  1.26889e-09        00000 
-3.65891e-10 -1.15158e-09        00000 
-1.72912e-10  3.05128e-10        00000 
-1.34786e-09  5.77858e-10        00000 
-4.28997e-10  1.44119e-09        00000 
-2.76072e-09  1.34982e-09        00000 
 3.77785e-10  1.25449e-09        00000 
-2.51092e-09  1.13420e-09        00000 
-1.45815e-09  5.17797e-10        00000 
 5.17284e-10  1.96541e-10        00000 
-1.30651e-10  2.48728e-10        00000 
 9.15117e-10  2.81812e-09        00000 
-1.66529e-10  1.73178e-09        00000 
 1.92481e-10 -1.54147e-09        00000 
 1.23760e-09 -1.44609e-09        00000 
 1.53247e-09 -3.95746e-09        00000 
 1.70048e-09 -4.32540e-09        00000 
 3.51818e-09 -2.63409e-09        00000 
 4.35268e-09 -1.02806e-09        00000 
 4.11278e-09 -2.60450e-09        00000 
 4.57259e-10 -1.49047e-09        00000 
-3.82045e-09  1.10788e-09        00000 
-2.27209e-09 -1.07544e-09        00000 
-2.64566e-09 -4.56394e-10        00000 
-3.13121e-10 -8.60252e-10        00000 
-4.08511e-10 -3.06182e-10        00000 
-7.76021e-10 -1.04976e-09        00000 
-2.02024e-09  1.34213e-09        00000 
 9.33516e-10  1.24349e-09        00000 
-6.52524e-10 -1.97989e-09        00000 
-5.53318e-26 -9.78293e-27        00000 
 2.68127e-09 -7.33613e-10        00000 
 7.60804e-10  2.84091e-10        00000 
-7.32126e-26  8.88825e-27        00000 
 4.28744e-10 -8.04969e-10        00000 
 2.49128e-10  1.79374e-09        00000 
-5.81611e-26 -1.74483e-25        00000 
-6.67085e-10  1.18852e-09        00000 
 6.35955e-11 -1.21665e-09        00000 
 2.26188e-25 -5.27501e-26        00000 
-1.78259e-10  4.63091e-10        00000 
 9.40321e-10 -1.30302e-09        00000 
 1.16322e-25 -2.68995e-25        00000 
 1.96588e-09  1.44330e-10        00000 
 2.51954e-09 -9.72701e-10        00000 
-6.32844e-26 -1.23367e-25        00000 
 4.57862e-10 -9.40930e-10        00000 
-1.76388e-11 -1.41024e-09        00000 
       00000  2.32645e-25        00000 
-9.47055e-10  2.00665e-09        00000 
-5.39727e-11 -5.38494e-10        00000 
 3.48967e-25  2.90806e-26        00000 
 1.04301e-09  4.71629e-10        00000 
 2.06728e-09  4.06481e-10        00000 
-3.43638e-25  6.07473e-26        00000 
 1.93063e-10 -3.82489e-10        00000 
-4.04527e-10 -5.82996e-10        00000 
 6.27216e-10 -3.74329e-09        00000 
 1.07830e-09 -8.44887e-09        00000 
 1.67085e-09  4.05851e-09        00000 
 9.11138e-10  2.72938e-10        00000 
 2.51033e-10  3.21078e-10        00000 
-2.18243e-09  6.13966e-10        00000 
 4.89154e-10 -3.03314e-09        00000 
-1.63466e-09 -2.36358e-09        00000 
 3.48549e-10 -9.65718e-10        00000 
 3.38148e-10 -1.46141e-09        00000 
-5.72727e-10 -1.98568e-09        00000 
-1.72374e-09 -2.32211e-09        00000 
 4.20420e-10 -9.56028e-10        00000 
-9.29629e-10 -1.97209e-11        00000 
 5.76683e-10 -4.83276e-10        00000 
 2.16492e-09 -9.63209e-10        00000 
-2.69326e-10 -2.17034e-09        00000 
-5.49466e-10 -1.42784e-09        00000 
 1.97567e-09 -2.32025e-09        00000 
-1.41855e-09  8.00554e-11        00000 
-2.13792e-09  5.05343e-10        00000 
 2.63995e-11 -1.90483e-11        00000 
-3.89714e-10  1.25081e-09        00000 
-1.24215e-10  1.18971e-09        00000 
-1.75053e-09  2.39422e-09        00000 
 5.28885e-10 -1.94927e-09        00000 
 5.05010e-10  4.20189e-09        00000 
-5.03258e-10  7.52223e-10        00000 
-6.26984e-10 -1.07241e-10        00000 
 2.59146e-10  6.42752e-10        00000 
 2.35619e-09  4.92425e-10        00000 
 1.49634e-10 -6.94186e-10        00000 
 6.40137e-10  4.08441e-10        00000 
-2.77548e-10 -1.84299e-09        00000 
 2.34645e-09  1.16090e-09        00000 
 3.75153e-09  1.07499e-09        00000 
 2.44653e-09 -1.57407e-09        00000 
 1.24158e-09 -1.29725e-09        00000 
 3.39068e-10 -1.16928e-09        00000 
 2.48759e-09 -8.28546e-10        00000 
-2.86778e-09  1.65935e-10        00000 
 6.67824e-11 -2.44042e-10        00000 
 1.60960e-09  1.37110e-09        00000 
-1.01071e-09  8.74772e-10        00000 
-1.98725e-09 -4.22196e-10        00000 
 1.50577e-09  2.55193e-10        00000 
-2.52501e-10  6.19314e-10        00000 
-6.22576e-10  3.11298e-09        00000 
 1.44586e-09  7.41149e-10        00000 
-4.14169e-10  1.92157e-09        00000 
 1.05316e-09  1.06368e-09        00000 
-1.85180e-09  2.91945e-09        00000 
 2.90835e-09 -1.76418e-09        00000 
-8.07796e-10 -4.10257e-10        00000 
 9.11589e-10  2.17197e-09        00000 
 2.78150e-09  3.69992e-09        00000 
-2.68098e-10  4.24947e-10        00000 
 2.43616e-09  1.25073e-10        00000 
-1.07231e-09  7.82884e-10        00000 
-3.00142e-09 -2.01329e-09        00000 
 1.65120e-09 -8.86419e-10        00000 
-8.14518e-10  2.35073e-11        00000 
-1.07598e-09  1.85731e-10        00000 
 4.63191e-10 -1.36487e-09        00000 
-1.61966e-09 -3.16362e-09        00000 
-2.51832e-09 -2.15528e-09        00000 
 6.53872e-10 -1.01510e-09        00000 
-3.71146e-09  1.08769e-09        00000 
-8.29593e-11  1.33222e-09        00000 
-2.94721e-10  1.47703e-09        00000 
-1.68386e-10 -1.01575e-09        00000 
-2.05569e-09 -8.11179e-10        00000 
-3.66653e-10  8.93181e-10        00000 
 3.84048e-10  2.59018e-09        00000 
-3.13326e-09  2.77376e-09        00000 
 2.35394e-09  3.52350e-09        00000 
-4.64805e-10  3.16541e-09        00000 
 6.07846e-10  5.49802e-10        00000 
-2.21088e-09  2.67785e-10        00000 
 2.18918e-09  1.68899e-09        00000 
 3.92352e-10 -3.33503e-09        00000 
 4.58171e-10  9.05430e-10        00000 
 7.29396e-10  3.67791e-09        00000 
 5.69007e-10  4.87507e-10        00000 
 1.81667e-09  8.30625e-11        00000 
-1.04761e-09  1.27127e-09        00000 
-1.13816e-09 -2.49355e-10        00000 
 1.71295e-09 -5.39847e-10        00000 
-8.17812e-10  4.74989e-10        00000 
 1.39865e-09  9.64296e-10        00000 
 7.77042e-10 -2.87736e-10        00000 
 1.05236e-09 -2.88622e-09        00000 
-8.51166e-10 -4.99170e-10        00000 
-1.22682e-09 -1.00174e-10        00000 
-2.94396e-09 -3.82677e-10        00000 
-3.34464e-10  1.31152e-09        00000 
-1.25132e-09  2.00416e-09        00000 
-1.90501e-09 -1.53469e-09        00000 
-9.03059e-10 -5.96801e-10        00000 
-1.50453e-09  1.38693e-09        00000 
 1.58313e-09 -6.65972e-11        00000 
 1.74857e-10  3.96168e-09        00000 
-1.62745e-09  3.57604e-09        00000 
 1.26020e-09 -7.00510e-11        00000 
-2.48800e-10 -2.82249e-10        00000 
-9.67856e-10  1.64473e-09        00000 
 1.77362e-09  1.50961e-09        00000 
-1.18803e-09  1.75606e-09        00000 
 1.79183e-09  1.98424e-09        00000 
-3.64215e-10  4.25377e-09        00000 
 4.20192e-10 -2.31603e-09        00000 
-1.27087e-10 -1.42494e-09        00000 
-1.39205e-09  6.00254e-11        00000 
-8.26660e-10 -1.06284e-09        00000 
 1.71371e-09  1.96676e-09        00000 
 5.27981e-11  1.03500e-09        00000 
 1.35238e-09 -1.46677e-09        00000 
 9.40866e-10  1.57559e-09        00000 
-4.21032e-10 -2.10580e-09        00000 
-6.59829e-10  6.08422e-10        00000 
-2.57117e-10 -4.15134e-10        00000 
-2.03679e-09 -1.15505e-10        00000 
-1.14895e-09  6.20077e-10        00000 
-5.44772e-11  1.21430e-09        00000 
-3.65894e-11 -1.21806e-09        00000 
-1.05384e-09 -1.02186e-09        00000 
 1.62476e-09  1.65728e-09        00000 
 5.50718e-10 -1.55777e-09        00000 
-1.09596e-09 -9.44824e-10        00000 
-8.74720e-10  1.37091e-09        00000 
-1.92356e-09 -1.44034e-09        00000 
-7.72471e-10 -1.98379e-09        00000 
-1.24006e-09 -2.48340e-09        00000 
-5.14541e-10 -8.85141e-10        00000 
-1.78900e-10 -3.19100e-09        00000 
-1.00392e-09 -2.77490e-10        00000 
-1.28817e-09  2.89832e-09        00000 
-5.08459e-10  1.42016e-09        00000 
 1.41390e-09  7.72824e-10        00000 
-1.77438e-09  3.91970e-10        00000 
-2.26372e-09  7.04861e-10        00000 
-7.92561e-10  2.34426e-09        00000 
-2.20615e-09  5.80962e-10        00000 
-1.99072e-09  1.69081e-09        00000 
-1.07418e-09 -9.98759e-10        00000 
-4.06035e-09 -9.40966e-10        00000 
-3.14180e-09 -1.51572e-09        00000 
-1.49186e-09 -8.38076e-10        00000 
-1.64563e-09  2.33312e-09        00000 
-3.50914e-09  1.58853e-09        00000 
 1.81547e-11 -8.45261e-10        00000 
-3.66538e-09 -1.73539e-09        00000 
-1.84645e-09  1.10441e-09        00000 
 1.14370e-09 -2.67420e-09        00000 
-1.91362e-09 -1.35890e-10        00000 
-1.52394e-09 -1.24341e-09        00000 
-1.13151e-09 -2.37470e-09        00000 
-1.44514e-09  2.56793e-10        00000 
-1.62904e-09  2.27780e-09        00000 
-1.04376e-10 -7.68958e-10        00000 
 8.68637e-10  1.60002e-09        00000 
-1.34027e-10 -5.68396e-10        00000 
 1.16977e-09 -2.09922e-11        00000 
-2.88261e-10  2.39101e-09        00000 
-1.87614e-09  9.21600e-11        00000 
 1.91203e-09 -1.86439e-10        00000 
-5.61351e-10  2.48830e-09        00000 
-4.51899e-09  2.26911e-10        00000 
 2.01911e-09 -3.09036e-10        00000 
-2.09182e-09  8.12507e-10        00000 
-2.29624e-09 -8.87743e-10        00000 
 1.83701e-09  1.21298e-09        00000 
 6.99360e-10  2.18120e-09        00000 
-5.83334e-09 -1.72279e-09        00000 
 7.40593e-10 -1.48230e-09        00000 
 7.31173e-11  2.50925e-09        00000 
-4.32988e-09 -5.86696e-10        00000 
 1.09689e-09 -1.00709e-09        00000 
-6.34587e-10  1.44697e-09        00000 
-4.38117e-09 -1.75695e-09        00000 
 1.78576e-09 -2.02342e-09        00000 
-2.08189e-09  1.92591e-09        00000 
-4.19989e-09  8.78683e-10        00000 
 3.80030e-10 -2.46879e-09        00000 
-1.84952e-09  9.01725e-10        00000 
-2.16298e-09  3.68024e-10        00000 
 1.95917e-09 -2.20245e-09        00000 
 6.27758e-10 -1.52846e-09        00000 
 3.99882e-10 -1.14319e-09        00000 
-5.02505e-10  4.29341e-10        00000 
-1.02609e-09  1.06471e-08        00000 
-3.14293e-09 -5.09859e-09        00000 
-1.22167e-09 -1.63928e-09        00000 
-2.86279e-09  2.02023e-09        00000 
-2.42078e-09 -4.87940e-10        00000 
 9.93338e-10 -1.45440e-09        00000 
-3.63054e-09  3.07817e-09        00000 
-1.68527e-09  8.82443e-10        00000 
-4.32528e-10  7.59378e-10        00000 
-2.78143e-09  2.82076e-09        00000 
-1.43584e-09  3.61651e-09        00000 
 6.03040e-11  1.18030e-09        00000 
-1.63412e-09  2.81406e-09        00000 
-2.53677e-09  2.03956e-09        00000 
-7.36300e-11  1.16098e-09        00000 
-1.03741e-09  2.34516e-09        00000 
-2.39335e-10  3.28453e-10        00000 
 2.31774e-09 -1.63138e-09        00000 
-2.52384e-09  6.73478e-10        00000 
 3.05320e-10  3.43743e-10        00000 
 1.12229e-09  1.74479e-10        00000 
-1.25757e-09  1.46450e-09        00000 
 1.19040e-09 -1.68433e-09        00000 
-1.66846e-10 -5.32905e-10        00000 
-3.45523e-09  2.89849e-09        00000 
-1.65546e-09 -9.46212e-09        00000 
-7.14685e-10 -1.43640e-10        00000 
-1.05416e-09  1.27049e-09        00000 
 4.81089e-10 -2.62890e-10        00000 
 1.43977e-09  8.64636e-10        00000 
-1.17850e-10  5.46145e-11        00000 
 1.77594e-10  1.10035e-09        00000 
-2.53982e-10  3.04996e-10        00000 
-8.90753e-10 -1.05183e-10        00000 
-1.90165e-09 -2.43079e-09        00000 
-7.16299e-10  2.87023e-09        00000 
-6.01731e-10  5.94150e-10        00000 
 1.05957e-09  5.84440e-10        00000 
 8.52767e-11  7.93335e-10        00000 
-7.20812e-11 -1.92137e-09        00000 
 3.56243e-10 -1.06965e-09        00000 
-6.37005e-10  9.91127e-10        00000 
-3.13538e-09 -3.07908e-09        00000 
 5.65052e-10  4.25375e-09        00000 
-1.11245e-09 -9.09848e-10        00000 
 9.36257e-10  1.96645e-09        00000 
 1.22883e-09 -2.18318e-09        00000 
 1.77764e-09  1.31785e-09        00000 
-6.15822e-10 -5.85277e-11        00000 
 9.14627e-10  1.61354e-09        00000 
-2.24811e-09  1.40634e-09        00000 
 3.00459e-10  6.28466e-10        00000 
-2.46989e-09 -5.60445e-10        00000 
 6.10121e-10  3.19082e-09        00000 
-1.41388e-09 -5.48652e-10        00000 
 7.39286e-10  2.90470e-09        00000 
-7.42407e-10  1.38198e-09        00000 
 1.12923e-09  1.96322e-09        00000 
-1.81739e-09 -1.97944e-09        00000 
-3.49535e-10  2.55461e-09        00000 
-2.28540e-09 -3.77742e-09        00000 
-1.14083e-09  6.18190e-09        00000 
-9.33598e-10  4.09054e-10        00000 
-1.23611e-09 -8.22552e-10        00000 
 2.19949e-09 -8.86845e-11        00000 
-2.26435e-09 -9.95020e-10        00000 
-1.64622e-09 -1.12752e-10        00000 
 1.66136e-09  7.32101e-10        00000 
-1.81542e-10  1.10573e-09        00000 
-8.37329e-10 -7.97992e-10        00000 
 3.05593e-10  2.69164e-11        00000 
-3.53822e-11  3.35939e-10        00000 
-1.93026e-09  2.07783e-09        00000 
 6.46571e-11  3.01591e-09        00000 
-3.05940e-10  2.00097e-09        00000 
-6.40884e-10  1.27119e-09        00000 
 1.86232e-09  3.37623e-10        00000 
-1.21706e-09  1.33365e-09        00000 
-1.31648e-09 -6.65175e-11        00000 
 3.26336e-10  3.78853e-10        00000 
-2.07060e-09  2.42489e-10        00000 
 1.48053e-09 -8.83629e-10        00000 
-1.00626e-10 -2.66076e-09        00000 
-4.78882e-10 -6.45593e-10        00000 
-2.85184e-09  2.59560e-10        00000 
 3.46659e-09  2.76362e-09        00000 
-1.82509e-09  2.84074e-09        00000 
 3.23732e-09  2.62691e-09        00000 
 8.63952e-10  1.81642e-09        00000 
 4.55904e-09  3.65172e-09        00000 
-2.17931e-10  4.68049e-09        00000 
 1.38871e-09  5.07115e-09        00000 
 1.41244e-10  9.58713e-11        00000 
 1.16914e-10  3.27833e-09        00000 
 1.61956e-09  8.86656e-10        00000 
 1.70461e-09  1.58937e-09        00000 
-7.14628e-10  5.14800e-09        00000 
-2.27790e-09 -5.32244e-10        00000 
-2.99613e-09  1.25228e-09        00000 