<?xml version="1.0" encoding="utf-8"?>
<VTKFile byte_order="LittleEndian" type="UnstructuredGrid" version="0.1">
   <UnstructuredGrid>
      <Piece NumberOfCells="1296" NumberOfPoints="685">
         <Points>
            <DataArray Name="Points" NumberOfComponents="3" format="ascii" type="Float32">
0.0000 0.0000 0.0000
0.0000 0.1111 0.0000
0.0000 0.2222 0.0000
0.0000 0.3333 0.0000
0.0000 0.4444 0.0000
0.0000 0.5556 0.0000
0.0000 0.6667 0.0000
0.0000 0.7778 0.0000
0.0000 0.8889 0.0000
0.0000 1.0000 0.0000
0.2222 0.0000 0.0000
0.2222 0.1111 0.0000
0.2222 0.2222 0.0000
0.2222 0.3333 0.0000
0.2222 0.4444 0.0000
0.2222 0.5556 0.0000
0.2222 0.6667 0.0000
0.2222 0.7778 0.0000
0.2222 0.8889 0.0000
0.2222 1.0000 0.0000
0.4444 0.0000 0.0000
0.4444 0.1111 0.0000
0.4444 0.2222 0.0000
0.4444 0.3333 0.0000
0.4444 0.4444 0.0000
0.4444 0.5556 0.0000
0.4444 0.6667 0.0000
0.4444 0.7778 0.0000
0.4444 0.8889 0.0000
0.4444 1.0000 0.0000
0.6667 0.0000 0.0000
0.6667 0.1111 0.0000
0.6667 0.2222 0.0000
0.6667 0.3333 0.0000
0.6667 0.4444 0.0000
0.6667 0.5556 0.0000
0.6667 0.6667 0.0000
0.6667 0.7778 0.0000
0.6667 0.8889 0.0000
0.6667 1.0000 0.0000
0.8889 0.0000 0.0000
0.8889 0.1111 0.0000
0.8889 0.2222 0.0000
0.8889 0.3333 0.0000
0.8889 0.4444 0.0000
0.8889 0.5556 0.0000
0.8889 0.6667 0.0000
0.8889 0.7778 0.0000
0.8889 0.8889 0.0000
0.8889 1.0000 0.0000
1.1111 0.0000 0.0000
1.1111 0.1111 0.0000
1.1111 0.2222 0.0000
1.1111 0.3333 0.0000
1.1111 0.4444 0.0000
1.1111 0.5556 0.0000
1.1111 0.6667 0.0000
1.1111 0.7778 0.0000
1.1111 0.8889 0.0000
1.1111 1.0000 0.0000
1.3333 0.0000 0.0000
1.3333 0.1111 0.0000
1.3333 0.2222 0.0000
1.3333 0.3333 0.0000
1.3333 0.4444 0.0000
1.3333 0.5556 0.0000
1.3333 0.6667 0.0000
1.3333 0.7778 0.0000
1.3333 0.8889 0.0000
1.3333 1.0000 0.0000
1.5556 0.0000 0.0000
1.5556 0.1111 0.0000
1.5556 0.2222 0.0000
1.5556 0.3333 0.0000
1.5556 0.4444 0.0000
1.5556 0.5556 0.0000
1.5556 0.6667 0.0000
1.5556 0.7778 0.0000
1.5556 0.8889 0.0000
1.5556 1.0000 0.0000
1.7778 0.0000 0.0000
1.7778 0.1111 0.0000
1.7778 0.2222 0.0000
1.7778 0.3333 0.0000
1.7778 0.4444 0.0000
1.7778 0.5556 0.0000
1.7778 0.6667 0.0000
1.7778 0.7778 0.0000
1.7778 0.8889 0.0000
1.7778 1.0000 0.0000
2.0000 0.0000 0.0000
2.0000 0.1111 0.0000
2.0000 0.2222 0.0000
2.0000 0.3333 0.0000
2.0000 0.4444 0.0000
2.0000 0.5556 0.0000
2.0000 0.6667 0.0000
2.0000 0.7778 0.0000
2.0000 0.8889 0.0000
2.0000 1.0000 0.0000
0.1111 0.0556 0.0000
0.1111 0.1667 0.0000
0.1111 0.2778 0.0000
0.1111 0.3889 0.0000
0.1111 0.5000 0.0000
0.1111 0.6111 0.0000
0.1111 0.7222 0.0000
0.1111 0.8333 0.0000
0.1111 0.9444 0.0000
0.3333 0.0556 0.0000
0.3333 0.1667 0.0000
0.3333 0.2778 0.0000
0.3333 0.3889 0.0000
0.3333 0.5000 0.0000
0.3333 0.6111 0.0000
0.3333 0.7222 0.0000
0.3333 0.8333 0.0000
0.3333 0.9444 0.0000
0.5556 0.0556 0.0000
0.5556 0.1667 0.0000
0.5556 0.2778 0.0000
0.5556 0.3889 0.0000
0.5556 0.5000 0.0000
0.5556 0.6111 0.0000
0.5556 0.7222 0.0000
0.5556 0.8333 0.0000
0.5556 0.9444 0.0000
0.7778 0.0556 0.0000
0.7778 0.1667 0.0000
0.7778 0.2778 0.0000
0.7778 0.3889 0.0000
0.7778 0.5000 0.0000
0.7778 0.6111 0.0000
0.7778 0.7222 0.0000
0.7778 0.8333 0.0000
0.7778 0.9444 0.0000
1.0000 0.0556 0.0000
1.0000 0.1667 0.0000
1.0000 0.2778 0.0000
1.0000 0.3889 0.0000
1.0000 0.5000 0.0000
1.0000 0.6111 0.0000
1.0000 0.7222 0.0000
1.0000 0.8333 0.0000
1.0000 0.9444 0.0000
1.2222 0.0556 0.0000
1.2222 0.1667 0.0000
1.2222 0.2778 0.0000
1.2222 0.3889 0.0000
1.2222 0.5000 0.0000
1.2222 0.6111 0.0000
1.2222 0.7222 0.0000
1.2222 0.8333 0.0000
1.2222 0.9444 0.0000
1.4444 0.0556 0.0000
1.4444 0.1667 0.0000
1.4444 0.2778 0.0000
1.4444 0.3889 0.0000
1.4444 0.5000 0.0000
1.4444 0.6111 0.0000
1.4444 0.7222 0.0000
1.4444 0.8333 0.0000
1.4444 0.9444 0.0000
1.6667 0.0556 0.0000
1.6667 0.1667 0.0000
1.6667 0.2778 0.0000
1.6667 0.3889 0.0000
1.6667 0.5000 0.0000
1.6667 0.6111 0.0000
1.6667 0.7222 0.0000
1.6667 0.8333 0.0000
1.6667 0.9444 0.0000
1.8889 0.0556 0.0000
1.8889 0.1667 0.0000
1.8889 0.2778 0.0000
1.8889 0.3889 0.0000
1.8889 0.5000 0.0000
1.8889 0.6111 0.0000
1.8889 0.7222 0.0000
1.8889 0.8333 0.0000
1.8889 0.9444 0.0000
0.0000 0.0556 0.0000
0.0556 0.0278 0.0000
0.0556 0.0833 0.0000
0.0000 0.1667 0.0000
0.0556 0.1389 0.0000
0.0556 0.1944 0.0000
0.0000 0.2778 0.0000
0.0556 0.2500 0.0000
0.0556 0.3056 0.0000
0.0000 0.3889 0.0000
0.0556 0.3611 0.0000
0.0556 0.4167 0.0000
0.0000 0.5000 0.0000
0.0556 0.4722 0.0000
0.0556 0.5278 0.0000
0.0000 0.6111 0.0000
0.0556 0.5833 0.0000
0.0556 0.6389 0.0000
0.0000 0.7222 0.0000
0.0556 0.6944 0.0000
0.0556 0.7500 0.0000
0.0000 0.8333 0.0000
0.0556 0.8056 0.0000
0.0556 0.8611 0.0000
0.0000 0.9444 0.0000
0.0556 0.9167 0.0000
0.0556 0.9722 0.0000
0.2222 0.0556 0.0000
0.2778 0.0278 0.0000
0.2778 0.0833 0.0000
0.2222 0.1667 0.0000
0.2778 0.1389 0.0000
0.2778 0.1944 0.0000
0.2222 0.2778 0.0000
0.2778 0.2500 0.0000
0.2778 0.3056 0.0000
0.2222 0.3889 0.0000
0.2778 0.3611 0.0000
0.2778 0.4167 0.0000
0.2222 0.5000 0.0000
0.2778 0.4722 0.0000
0.2778 0.5278 0.0000
0.2222 0.6111 0.0000
0.2778 0.5833 0.0000
0.2778 0.6389 0.0000
0.2222 0.7222 0.0000
0.2778 0.6944 0.0000
0.2778 0.7500 0.0000
0.2222 0.8333 0.0000
0.2778 0.8056 0.0000
0.2778 0.8611 0.0000
0.2222 0.9444 0.0000
0.2778 0.9167 0.0000
0.2778 0.9722 0.0000
0.4444 0.0556 0.0000
0.5000 0.0278 0.0000
0.5000 0.0833 0.0000
0.4444 0.1667 0.0000
0.5000 0.1389 0.0000
0.5000 0.1944 0.0000
0.4444 0.2778 0.0000
0.5000 0.2500 0.0000
0.5000 0.3056 0.0000
0.4444 0.3889 0.0000
0.5000 0.3611 0.0000
0.5000 0.4167 0.0000
0.4444 0.5000 0.0000
0.5000 0.4722 0.0000
0.5000 0.5278 0.0000
0.4444 0.6111 0.0000
0.5000 0.5833 0.0000
0.5000 0.6389 0.0000
0.4444 0.7222 0.0000
0.5000 0.6944 0.0000
0.5000 0.7500 0.0000
0.4444 0.8333 0.0000
0.5000 0.8056 0.0000
0.5000 0.8611 0.0000
0.4444 0.9444 0.0000
0.5000 0.9167 0.0000
0.5000 0.9722 0.0000
0.6667 0.0556 0.0000
0.7222 0.0278 0.0000
0.7222 0.0833 0.0000
0.6667 0.1667 0.0000
0.7222 0.1389 0.0000
0.7222 0.1944 0.0000
0.6667 0.2778 0.0000
0.7222 0.2500 0.0000
0.7222 0.3056 0.0000
0.6667 0.3889 0.0000
0.7222 0.3611 0.0000
0.7222 0.4167 0.0000
0.6667 0.5000 0.0000
0.7222 0.4722 0.0000
0.7222 0.5278 0.0000
0.6667 0.6111 0.0000
0.7222 0.5833 0.0000
0.7222 0.6389 0.0000
0.6667 0.7222 0.0000
0.7222 0.6944 0.0000
0.7222 0.7500 0.0000
0.6667 0.8333 0.0000
0.7222 0.8056 0.0000
0.7222 0.8611 0.0000
0.6667 0.9444 0.0000
0.7222 0.9167 0.0000
0.7222 0.9722 0.0000
0.8889 0.0556 0.0000
0.9444 0.0278 0.0000
0.9444 0.0833 0.0000
0.8889 0.1667 0.0000
0.9444 0.1389 0.0000
0.9444 0.1944 0.0000
0.8889 0.2778 0.0000
0.9444 0.2500 0.0000
0.9444 0.3056 0.0000
0.8889 0.3889 0.0000
0.9444 0.3611 0.0000
0.9444 0.4167 0.0000
0.8889 0.5000 0.0000
0.9444 0.4722 0.0000
0.9444 0.5278 0.0000
0.8889 0.6111 0.0000
0.9444 0.5833 0.0000
0.9444 0.6389 0.0000
0.8889 0.7222 0.0000
0.9444 0.6944 0.0000
0.9444 0.7500 0.0000
0.8889 0.8333 0.0000
0.9444 0.8056 0.0000
0.9444 0.8611 0.0000
0.8889 0.9444 0.0000
0.9444 0.9167 0.0000
0.9444 0.9722 0.0000
1.1111 0.0556 0.0000
1.1667 0.0278 0.0000
1.1667 0.0833 0.0000
1.1111 0.1667 0.0000
1.1667 0.1389 0.0000
1.1667 0.1944 0.0000
1.1111 0.2778 0.0000
1.1667 0.2500 0.0000
1.1667 0.3056 0.0000
1.1111 0.3889 0.0000
1.1667 0.3611 0.0000
1.1667 0.4167 0.0000
1.1111 0.5000 0.0000
1.1667 0.4722 0.0000
1.1667 0.5278 0.0000
1.1111 0.6111 0.0000
1.1667 0.5833 0.0000
1.1667 0.6389 0.0000
1.1111 0.7222 0.0000
1.1667 0.6944 0.0000
1.1667 0.7500 0.0000
1.1111 0.8333 0.0000
1.1667 0.8056 0.0000
1.1667 0.8611 0.0000
1.1111 0.9444 0.0000
1.1667 0.9167 0.0000
1.1667 0.9722 0.0000
1.3333 0.0556 0.0000
1.3889 0.0278 0.0000
1.3889 0.0833 0.0000
1.3333 0.1667 0.0000
1.3889 0.1389 0.0000
1.3889 0.1944 0.0000
1.3333 0.2778 0.0000
1.3889 0.2500 0.0000
1.3889 0.3056 0.0000
1.3333 0.3889 0.0000
1.3889 0.3611 0.0000
1.3889 0.4167 0.0000
1.3333 0.5000 0.0000
1.3889 0.4722 0.0000
1.3889 0.5278 0.0000
1.3333 0.6111 0.0000
1.3889 0.5833 0.0000
1.3889 0.6389 0.0000
1.3333 0.7222 0.0000
1.3889 0.6944 0.0000
1.3889 0.7500 0.0000
1.3333 0.8333 0.0000
1.3889 0.8056 0.0000
1.3889 0.8611 0.0000
1.3333 0.9444 0.0000
1.3889 0.9167 0.0000
1.3889 0.9722 0.0000
1.5556 0.0556 0.0000
1.6111 0.0278 0.0000
1.6111 0.0833 0.0000
1.5556 0.1667 0.0000
1.6111 0.1389 0.0000
1.6111 0.1944 0.0000
1.5556 0.2778 0.0000
1.6111 0.2500 0.0000
1.6111 0.3056 0.0000
1.5556 0.3889 0.0000
1.6111 0.3611 0.0000
1.6111 0.4167 0.0000
1.5556 0.5000 0.0000
1.6111 0.4722 0.0000
1.6111 0.5278 0.0000
1.5556 0.6111 0.0000
1.6111 0.5833 0.0000
1.6111 0.6389 0.0000
1.5556 0.7222 0.0000
1.6111 0.6944 0.0000
1.6111 0.7500 0.0000
1.5556 0.8333 0.0000
1.6111 0.8056 0.0000
1.6111 0.8611 0.0000
1.5556 0.9444 0.0000
1.6111 0.9167 0.0000
1.6111 0.9722 0.0000
1.7778 0.0556 0.0000
1.8333 0.0278 0.0000
1.8333 0.0833 0.0000
1.7778 0.1667 0.0000
1.8333 0.1389 0.0000
1.8333 0.1944 0.0000
1.7778 0.2778 0.0000
1.8333 0.2500 0.0000
1.8333 0.3056 0.0000
1.7778 0.3889 0.0000
1.8333 0.3611 0.0000
1.8333 0.4167 0.0000
1.7778 0.5000 0.0000
1.8333 0.4722 0.0000
1.8333 0.5278 0.0000
1.7778 0.6111 0.0000
1.8333 0.5833 0.0000
1.8333 0.6389 0.0000
1.7778 0.7222 0.0000
1.8333 0.6944 0.0000
1.8333 0.7500 0.0000
1.7778 0.8333 0.0000
1.8333 0.8056 0.0000
1.8333 0.8611 0.0000
1.7778 0.9444 0.0000
1.8333 0.9167 0.0000
1.8333 0.9722 0.0000
0.1111 0.1111 0.0000
0.1667 0.0833 0.0000
0.1111 0.2222 0.0000
0.1667 0.1944 0.0000
0.1111 0.3333 0.0000
0.1667 0.3056 0.0000
0.1111 0.4444 0.0000
0.1667 0.4167 0.0000
0.1111 0.5556 0.0000
0.1667 0.5278 0.0000
0.1111 0.6667 0.0000
0.1667 0.6389 0.0000
0.1111 0.7778 0.0000
0.1667 0.7500 0.0000
0.1111 0.8889 0.0000
0.1667 0.8611 0.0000
0.1111 1.0000 0.0000
0.1667 0.9722 0.0000
0.3333 0.1111 0.0000
0.3889 0.0833 0.0000
0.3333 0.2222 0.0000
0.3889 0.1944 0.0000
0.3333 0.3333 0.0000
0.3889 0.3056 0.0000
0.3333 0.4444 0.0000
0.3889 0.4167 0.0000
0.3333 0.5556 0.0000
0.3889 0.5278 0.0000
0.3333 0.6667 0.0000
0.3889 0.6389 0.0000
0.3333 0.7778 0.0000
0.3889 0.7500 0.0000
0.3333 0.8889 0.0000
0.3889 0.8611 0.0000
0.3333 1.0000 0.0000
0.3889 0.9722 0.0000
0.5556 0.1111 0.0000
[...]
         <PointData>
            <DataArray Name="fValues" NumberOfComponents="3" format="ascii" type="Float64">
-7.12326e-26  5.69860e-25        00000 
-2.45971e-25  2.19068e-25        00000 
 1.04227e-24 -6.70034e-26        00000 
 1.83722e-25 -1.22481e-24        00000 
 6.00737e-25  1.42581e-24        00000 
-2.44962e-25  4.89924e-25        00000 
-8.60706e-25  9.68294e-25        00000 
-6.11852e-25 -1.10133e-24        00000 
 3.69045e-25  2.46030e-25        00000 
-5.69860e-25 -1.78081e-25        00000 
-3.67653e-09  2.48152e-08        00000 
 1.49024e-10  1.10262e-08        00000 
 8.54616e-09 -4.32079e-09        00000 
-4.41771e-11 -4.22179e-09        00000 
 4.65189e-10 -1.86574e-08        00000 
-1.19030e-10  4.70514e-09        00000 
 5.14773e-09 -3.14790e-10        00000 
 9.87503e-09  5.68125e-09        00000 
 2.69323e-09 -2.00489e-09        00000 
 3.22575e-09  3.36364e-10        00000 
-3.86112e-09  2.22402e-08        00000 
 1.19921e-08  6.98184e-09        00000 
-2.92182e-09 -1.64567e-09        00000 
-1.91073e-08 -1.24037e-08        00000 
 1.69813e-09 -7.78175e-09        00000 
 1.81069e-09 -1.01424e-08        00000 
 4.44599e-09  4.39872e-09        00000 
 1.50344e-09 -4.05891e-09        00000 
-1.61152e-09  6.63880e-09        00000 
 1.09017e-08  1.80233e-08        00000 
 6.35963e-09 -5.54832e-09        00000 
 4.74900e-09  9.20135e-10        00000 
 9.41982e-09  1.03163e-08        00000 
-1.12417e-08 -3.12712e-09        00000 
 9.57766e-09 -5.97345e-09        00000 
 1.07586e-08  3.34006e-09        00000 
-3.47264e-10  1.13185e-08        00000 
-7.78054e-09 -3.21978e-09        00000 
-2.71962e-09 -5.22032e-09        00000 
-5.73589e-09  2.47215e-09        00000 
-1.23578e-08 -4.89567e-09        00000 
 1.11380e-08  1.94196e-08        00000 
-4.67281e-10 -1.97004e-09        00000 
-6.50100e-09 -3.66087e-09        00000 
-1.59162e-11  4.62163e-09        00000 
-1.36337e-08 -3.92497e-09        00000 
-7.68176e-09  9.87282e-09        00000 
-6.32028e-09  1.33912e-10        00000 
-1.64365e-08 -5.70022e-09        00000 
-1.62447e-08 -8.50378e-11        00000 
 1.09521e-08 -1.88091e-08        00000 
-5.32316e-09 -4.28714e-09        00000 
 3.15811e-09  2.43962e-09        00000 
-1.13489e-09  2.42369e-09        00000 
-5.30724e-09 -2.12294e-09        00000 
 2.82299e-10  5.45606e-09        00000 
-3.43751e-09  7.06390e-09        00000 
-3.45258e-09  9.26028e-09        00000 
-7.87161e-09  9.07896e-10        00000 
-1.30599e-08  2.65714e-08        00000 
 2.02820e-09  2.24929e-10        00000 
-9.14028e-09  4.50611e-09        00000 
-1.00275e-09  4.75147e-10        00000 
 6.47310e-09  1.35485e-08        00000 
 6.59685e-09  9.91542e-09        00000 
-1.31971e-09  4.65656e-09        00000 
 1.51579e-09  6.90017e-09        00000 
-9.69197e-09 -2.08286e-09        00000 
-1.09635e-08  4.36224e-09        00000 
 5.16723e-09  3.64595e-08        00000 
-1.22004e-08 -1.84831e-08        00000 
 3.47075e-09 -6.06681e-09        00000 
 1.28293e-09 -4.12659e-09        00000 
-3.10223e-09 -6.70964e-09        00000 
-2.25526e-10  2.37803e-09        00000 
-5.96248e-09  1.85437e-10        00000 
-7.70515e-09  6.63269e-09        00000 
-2.19563e-09  1.25279e-08        00000 
 2.15726e-09  8.52481e-10        00000 
-8.83273e-09 -6.36294e-09        00000 
 8.35882e-11 -1.93663e-08        00000 
-2.58933e-09 -1.51688e-09        00000 
-7.97456e-09  1.44894e-10        00000 
 1.27272e-10 -7.94245e-11        00000 
-9.55998e-09 -8.70470e-09        00000 
-6.78386e-09 -3.32625e-09        00000 
-1.08589e-08  2.01051e-09        00000 
-8.74979e-09  1.24537e-08        00000 
-1.67522e-08  1.60144e-08        00000 
-5.48797e-09  4.13763e-10        00000 
-3.17364e-10  5.61351e-09        00000 
 4.64848e-09  3.33345e-09        00000 
 8.83853e-09 -3.60502e-09        00000 
 3.49786e-09 -2.76552e-09        00000 
 9.03020e-09 -7.86659e-09        00000 
-1.94137e-09 -8.74067e-10        00000 
-1.98281e-09  1.21114e-08        00000 
-7.78101e-09  3.75810e-09        00000 
 1.74145e-09 -2.92189e-09        00000 
-1.55061e-08  2.61878e-09        00000 
 8.00424e-10 -3.06194e-09        00000 
 1.41047e-09 -1.18994e-09        00000 
 7.19463e-09 -6.19850e-10        00000 
-1.26446e-10  1.07670e-08        00000 
-4.05366e-09  2.97249e-09        00000 
-5.83807e-09  1.40409e-09        00000 
-4.60319e-09  4.74934e-09        00000 
-1.65298e-09  7.97930e-09        00000 
 6.81873e-09  9.01986e-10        00000 
-4.05771e-09 -8.63764e-09        00000 
 5.69206e-09  6.33235e-09        00000 
 6.23062e-09 -2.33165e-09        00000 
 3.45554e-09  1.36974e-09        00000 
 2.44576e-10 -8.92964e-10        00000 
-2.16430e-09  4.22009e-09        00000 
 3.09411e-09  2.71868e-09        00000 
-3.75457e-09 -2.13242e-09        00000 
-3.95506e-10 -1.65821e-09        00000 
 8.24985e-09  2.02235e-10        00000 
 1.57650e-09  1.04839e-09        00000 
-4.84546e-09  9.56344e-10        00000 
 9.26583e-10 -1.91328e-09        00000 
-7.44009e-10  8.53064e-09        00000 
 1.60417e-08  1.97813e-09        00000 
 9.87903e-09 -1.09953e-08        00000 
 9.56881e-09 -2.10413e-09        00000 
 5.40582e-09 -9.73538e-09        00000 
-5.72196e-09 -3.90941e-10        00000 
 9.25284e-09  1.33402e-08        00000 
 1.85580e-09  6.96551e-09        00000 
 1.16124e-08  1.39129e-08        00000 
-1.74279e-09  8.18139e-09        00000 
 9.63702e-09  1.42612e-08        00000 
 1.59170e-08  6.81128e-09        00000 
-8.01478e-10 -4.09452e-09        00000 
 2.60208e-09  1.90731e-10        00000 
 9.56921e-10  1.04223e-08        00000 
 1.96491e-08  1.21631e-08        00000 
 9.18007e-10  2.87485e-09        00000 
 5.52913e-09 -3.32124e-09        00000 
 6.41145e-09  9.87380e-09        00000 
 1.71035e-08  2.04368e-08        00000 
 4.39810e-09  1.22162e-08        00000 
-7.24611e-11  8.76655e-09        00000 
 1.26694e-09  5.29662e-09        00000 
-5.53154e-09  4.95078e-09        00000 
-3.06548e-09 -1.06555e-08        00000 
 5.83620e-09 -3.02663e-09        00000 
 8.76469e-09  4.98616e-10        00000 
 6.05729e-09  1.08872e-08        00000 
-3.95789e-09  4.38041e-09        00000 
-1.39874e-08  4.73545e-09        00000 
-5.65001e-09  1.18842e-09        00000 
-1.16448e-08 -1.40070e-08        00000 
 8.03733e-09 -2.60263e-09        00000 
-1.08006e-08 -1.23603e-08        00000 
-1.51786e-09 -3.19820e-09        00000 
 3.69002e-09 -2.23987e-09        00000 
-5.16891e-09  3.44458e-09        00000 
-1.67292e-08  4.42354e-09        00000 
-9.84519e-09 -2.99914e-09        00000 
-1.24701e-08  4.84798e-09        00000 
-1.09963e-08 -1.76303e-09        00000 
-1.54792e-09  1.31487e-08        00000 
 3.96415e-09  2.40581e-09        00000 
-2.38060e-09  8.24494e-09        00000 
-6.10476e-09  6.65665e-09        00000 
 4.10711e-09  4.75950e-09        00000 
-5.66018e-09  7.18642e-09        00000 
 3.07733e-09  7.74263e-09        00000 
 5.75091e-09  7.03136e-09        00000 
-4.99352e-09  1.39919e-08        00000 
 3.85118e-10  6.73685e-09        00000 
 5.69332e-09  1.67508e-08        00000 
 6.08514e-09  1.04992e-08        00000 
 4.99551e-09  1.29850e-08        00000 
-2.63753e-09  9.04393e-09        00000 
-1.30064e-08  2.49787e-09        00000 
-4.34937e-09  1.36191e-08        00000 
 2.87798e-10  1.50466e-08        00000 
 1.28171e-09  4.40468e-09        00000 
 6.21822e-25  4.46148e-25        00000 
 3.36409e-09 -1.32954e-08        00000 
 6.42066e-09  1.81086e-09        00000 
 7.56866e-25  1.11672e-26        00000 
 8.36247e-09 -3.01660e-09        00000 
-2.66515e-09  1.43819e-09        00000 
 9.30578e-25 -6.97934e-25        00000 
 4.49341e-09  4.84067e-09        00000 
 4.13579e-09 -6.29340e-09        00000 
 1.32522e-25  3.83364e-24        00000 
-1.90093e-09  2.09858e-09        00000 
 4.72108e-09  1.28294e-08        00000 
 4.65289e-25 -6.97934e-25        00000 
 1.19085e-08 -3.61773e-09        00000 
-2.99295e-10  5.14322e-09        00000 
-7.87127e-25 -3.94027e-25        00000 
 1.66598e-09 -5.51356e-09        00000 
-1.05741e-08 -3.08722e-09        00000 
       00000  9.30578e-25        00000 
 4.03097e-09  5.32718e-09        00000 
 1.67655e-09 -2.93009e-09        00000 
-1.16322e-25  3.48967e-25        00000 
-1.54052e-09 -2.60449e-09        00000 
-2.24840e-09  3.11518e-09        00000 
 1.26934e-24 -9.02932e-26        00000 
-5.57606e-09 -1.60576e-09        00000 
 2.18771e-10 -4.23643e-10        00000 
-4.35531e-09 -3.53326e-09        00000 
 5.62659e-09 -2.37392e-08        00000 
 1.82104e-09  7.33739e-09        00000 
 6.51789e-09 -6.49485e-09        00000 
 5.70412e-09  8.36134e-09        00000 
-7.32796e-09 -5.80389e-09        00000 
 3.38068e-09 -8.79976e-09        00000 
 5.62066e-09  7.56652e-09        00000 
 1.42288e-08 -5.25654e-09        00000 
 7.44596e-09  5.93039e-09        00000 
 1.56884e-08 -9.58303e-09        00000 
 3.84303e-09 -1.14470e-08        00000 
 2.75783e-09  1.97329e-09        00000 
 1.59972e-09 -4.30403e-09        00000 
 6.13012e-09  1.25561e-09        00000 
 5.46967e-10  8.22749e-09        00000 
 7.51971e-09 -4.89817e-09        00000 
 3.51112e-09 -5.08099e-09        00000 
 9.00534e-09 -6.88893e-09        00000 
 8.16253e-09 -8.27589e-10        00000 
 8.04201e-09  7.89638e-09        00000 
 1.50904e-09  1.72759e-09        00000 
 9.86000e-09  4.66556e-09        00000 
-3.57421e-09 -1.00267e-08        00000 
 5.64844e-09  5.26190e-09        00000 
 1.75785e-09  2.16503e-09        00000 
 2.57632e-09 -2.27962e-09        00000 
 9.24024e-09 -2.91548e-09        00000 
 1.24335e-08 -9.27204e-09        00000 
 1.62779e-08  5.30319e-09        00000 
 5.75919e-09 -5.54233e-09        00000 
 5.79114e-10 -2.04529e-09        00000 
-2.27248e-09 -1.85884e-09        00000 
-1.40878e-08  2.78580e-09        00000 
 3.41327e-09  2.01872e-09        00000 
 5.73215e-09 -2.56021e-09        00000 
 1.78592e-09 -5.09276e-10        00000 
 5.49021e-09 -8.28603e-09        00000 
-1.26507e-09 -5.67419e-09        00000 
-4.69914e-09 -1.16144e-09        00000 
-1.94007e-08 -9.45088e-09        00000 
-1.85510e-09 -1.88386e-10        00000 
-1.67898e-09 -4.28332e-09        00000 
-2.37937e-09 -6.65637e-09        00000 
 2.21390e-09  6.87022e-09        00000 
-2.93348e-09 -1.22490e-08        00000 
-4.10241e-09 -1.70575e-08        00000 
-8.69123e-09 -6.45909e-09        00000 
-3.25972e-09 -4.98768e-09        00000 
 2.47390e-09  6.96982e-09        00000 
 3.33782e-09  5.26828e-09        00000 
-5.92695e-09  1.84249e-08        00000 
 9.70472e-09  1.05747e-08        00000 
 7.60027e-09 -1.57695e-08        00000 
-1.92992e-09  7.72372e-09        00000 
 3.07064e-09  1.48678e-08        00000 
 6.14115e-09 -3.32406e-09        00000 
 1.81263e-09 -1.08096e-09        00000 
 3.83876e-09  5.47498e-09        00000 
 1.25127e-08  1.15309e-08        00000 
-7.42095e-09 -5.47146e-09        00000 
 3.68722e-09  6.70977e-09        00000 
 3.49134e-09  1.65397e-09        00000 
 5.98449e-09  8.65769e-09        00000 
 2.68612e-09  1.06649e-08        00000 
 5.30036e-10 -4.48299e-10        00000 
-5.78358e-09  3.62103e-10        00000 
 1.40862e-09  1.73171e-08        00000 
-1.06022e-09  6.59998e-09        00000 
-9.91323e-09  5.73925e-09        00000 
 3.69440e-10 -2.53245e-10        00000 
-5.21112e-11  5.45396e-09        00000 
-9.79545e-09 -3.02278e-09        00000 
 3.44485e-10  6.88008e-09        00000 
-4.15029e-09  1.38551e-09        00000 
-8.54249e-09 -2.05637e-09        00000 
-5.85321e-09  4.44359e-09        00000 
 1.65556e-10  2.08326e-09        00000 
-9.64848e-09  2.26676e-09        00000 
 1.41227e-08 -3.45343e-09        00000 
 2.02428e-08  7.14815e-09        00000 
-2.03287e-08 -1.15822e-08        00000 
 3.13912e-09 -9.15151e-09        00000 
-7.78093e-09  1.34643e-08        00000 
 8.77164e-09  3.37155e-09        00000 
 4.53902e-09  4.43730e-09        00000 
-8.94752e-09  1.13974e-08        00000 
 3.91402e-09  5.13130e-09        00000 
 4.99500e-09  7.97004e-09        00000 
 4.91747e-09  5.47615e-11        00000 
 3.17098e-09  3.39820e-09        00000 
 9.69439e-09 -1.38093e-09        00000 
-1.06617e-08 -1.02651e-08        00000 
-9.49512e-09 -8.64731e-11        00000 
 1.44485e-09  3.99920e-09        00000 
-3.99702e-09 -4.74381e-09        00000 
-1.99000e-09  2.47825e-09        00000 
 2.70394e-09  1.32064e-09        00000 
 1.57694e-08  4.02828e-09        00000 
-1.65983e-10  1.67035e-09        00000 
 8.08127e-09  3.81507e-09        00000 
 1.33315e-08  1.48698e-08        00000 
-3.57645e-09  5.82374e-09        00000 
-6.80473e-10 -7.83402e-10        00000 
 3.20294e-09 -4.73430e-09        00000 
 3.91934e-09  7.29988e-09        00000 
 1.73409e-09  1.22957e-09        00000 
 1.47074e-09  1.13602e-08        00000 
-4.63358e-09  1.18474e-08        00000 
 1.15687e-08  1.55270e-08        00000 
 9.41583e-10 -1.01079e-08        00000 
 7.52799e-09  4.93557e-10        00000 
-3.17493e-09  1.16949e-09        00000 
-3.85182e-09 -1.12701e-09        00000 
 3.85863e-09  3.22822e-09        00000 
-1.49538e-09  4.22089e-09        00000 
 5.52322e-09  1.27444e-09        00000 
-2.93093e-09  3.85039e-09        00000 
 1.19712e-10 -4.27302e-09        00000 
-7.01561e-10 -1.15713e-08        00000 
-8.66379e-09 -4.91141e-09        00000 
-1.47134e-09 -1.95559e-09        00000 
 3.52870e-09  7.09605e-10        00000 
-4.25274e-10  3.79579e-09        00000 
 3.46722e-09  3.86584e-09        00000 
 6.97290e-09  9.00683e-09        00000 
-1.24656e-09  2.71214e-09        00000 
-4.51317e-09  1.32768e-09        00000 
-5.69855e-09  4.43359e-09        00000 
-2.83856e-09  5.17871e-09        00000 
-6.60398e-09  2.24615e-09        00000 
 1.24462e-09  2.22500e-09        00000 
-6.83352e-09  6.02414e-09        00000 
-2.95861e-09  1.45856e-08        00000 
-2.18520e-09 -2.56500e-08        00000 
-5.27470e-09  5.78115e-09        00000 
 3.11707e-09  1.83146e-08        00000 
-1.20670e-09  1.42791e-09        00000 
-6.59844e-09  8.41710e-09        00000 
 1.89769e-09 -3.38386e-09        00000 
 1.50186e-09  7.15640e-09        00000 
-1.06893e-08  1.78042e-09        00000 
-8.18375e-10 -7.39048e-09        00000 
-2.15493e-09  1.00396e-08        00000 
-8.42678e-09 -1.14693e-08        00000 
 5.62252e-09  4.58850e-09        00000 
 4.06794e-09  9.64238e-09        00000 
-7.45695e-09  2.79869e-10        00000 
 1.04160e-08  8.37034e-09        00000 
 7.30748e-09 -4.67452e-09        00000 
-9.96712e-09 -1.16133e-09        00000 
 8.92044e-10  2.19051e-08        00000 
 1.05688e-08  5.24753e-09        00000 
-1.16563e-08  6.88132e-09        00000 
-7.44848e-10  1.85606e-08        00000 
-1.59954e-08  1.04073e-09        00000 
-2.20322e-08  1.11973e-08        00000 
 2.91607e-11 -1.51539e-09        00000 
-8.08569e-10  7.59034e-09        00000 
-7.15229e-09 -2.92368e-09        00000 
 6.78446e-09  1.10630e-08        00000 
-5.16741e-09 -1.87514e-08        00000 
 1.27314e-08  6.54529e-09        00000 
-5.27649e-10  2.59969e-08        00000 
-4.47497e-09 -1.11323e-08        00000 
 1.54794e-08  2.18101e-09        00000 
-3.17451e-09  1.33973e-08        00000 
-3.78611e-09  1.38067e-09        00000 
 1.32858e-08  8.77274e-09        00000 
-1.06619e-08 -1.59159e-09        00000 
 1.91017e-09  2.46754e-09        00000 
 5.83341e-09  4.21559e-09        00000 
 6.15051e-09  6.61196e-09        00000 
-5.29138e-09  6.90150e-09        00000 
-4.82589e-09  9.06951e-10        00000 
-9.33881e-10 -3.51926e-09        00000 
 1.08884e-10  6.61012e-09        00000 
-6.07869e-09 -2.24044e-09        00000 
 8.76923e-10 -3.04537e-09        00000 
 6.75641e-09 -5.34989e-09        00000 
 7.71513e-09  2.05268e-08        00000 
 1.07412e-08  3.73832e-09        00000 
 1.42978e-08 -3.36242e-09        00000 
-6.11388e-09 -2.48960e-09        00000 
-2.32347e-10 -2.65366e-09        00000 
-5.98212e-09  5.07667e-09        00000 
-1.09326e-08  2.98547e-09        00000 
-4.55029e-09 -1.33268e-09        00000 
 3.62155e-09  1.16157e-08        00000 
-4.61381e-09 -2.16448e-09        00000 
 2.48144e-09  1.69319e-08        00000 
 1.74646e-08 -9.21933e-09        00000 
-9.64451e-09 -4.74168e-09        00000 
 1.07093e-08 -1.00391e-09        00000 
 1.30396e-08 -5.20942e-09        00000 
-6.20201e-09  3.66541e-10        00000 
 4.74608e-09  6.84007e-09        00000 
 4.94833e-09 -3.35709e-09        00000 
 1.09759e-09 -1.31848e-10        00000 
-7.93619e-09 -4.81604e-09        00000 
 4.55771e-10 -1.93621e-09        00000 
 1.55580e-10  5.20463e-09        00000 
-7.32786e-09  5.24679e-10        00000 
 5.94412e-10  7.52152e-10        00000 
 3.94436e-10  9.17281e-09        00000 
-2.84484e-09 -1.59187e-09        00000 
 7.17046e-09  8.75687e-10        00000 
-1.94490e-09  1.90142e-08        00000 
-2.55591e-09 -4.35503e-09        00000 
 1.65149e-08  8.74537e-09        00000 
-1.00245e-08  1.46715e-08        00000 
 4.55032e-10 -8.65285e-10        00000 
 1.58892e-08  6.86413e-09        00000 
-6.66176e-09 -3.62698e-09        00000 
-3.22962e-09  3.20810e-09        00000 
-9.23114e-09 -4.65172e-09        00000 
-1.15566e-08  1.15305e-09        00000 
-5.15955e-09 -3.62192e-09        00000 
 4.71359e-09 -2.25788e-09        00000 
 5.00595e-09 -9.86709e-09        00000 
 4.10147e-09  6.14393e-09        00000 
 1.41847e-09 -6.18011e-09        00000 
 1.12981e-09  8.97572e-09        00000 
 4.02440e-09  2.82286e-09        00000 
 3.13368e-09  5.04207e-09        00000 
 6.47184e-09  4.59439e-09        00000 
 6.38222e-09  1.17763e-08        00000 
 3.83078e-09  1.99557e-09        00000 
 7.01811e-09 -2.57498e-09        00000 
-3.54107e-09 -2.98661e-09        00000 
 5.86414e-09  1.74469e-09        00000 
 5.92407e-09  3.94838e-09        00000 
 9.18484e-09 -8.61895e-10        00000 
 1.46037e-09  4.11298e-09        00000 
 3.17396e-09  7.97374e-09        00000 
 1.14364e-08  1.18038e-08        00000 
 1.32355e-09  1.21611e-08        00000 
 9.05150e-09 -3.07581e-09        00000 
 6.98408e-09  1.68726e-08        00000 
 7.50936e-09  3.51645e-09        00000 
 5.45368e-09  1.47288e-08        00000 
 1.34902e-08 -6.94129e-11        00000 
 5.28570e-09  1.30305e-08        00000 
 4.66535e-09  3.05755e-09        00000 
 5.02458e-09  7.26161e-09        00000 
-2.67153e-10  1.70270e-09        00000 
 8.27471e-09  1.11844e-08        00000 
 1.95977e-10  4.48675e-09        00000 
 4.91191e-10 -7.07890e-09        00000 
-1.91498e-09 -6.71844e-09        00000 
 1.17733e-10  5.36750e-09        00000 
 6.93903e-09 -9.16236e-09        00000 
 5.26410e-09  3.82419e-09        00000 
 4.10241e-09 -6.73592e-09        00000 
 1.09368e-08 -1.69068e-09        00000 
-8.60195e-09  6.90594e-09        00000 
-5.65227e-09  9.80693e-09        00000 
 2.16301e-09  2.73566e-09        00000 
-3.85725e-09 -9.90634e-09        00000 
 7.31964e-09 -8.50535e-09        00000 
 9.46420e-09 -4.58626e-09        00000 
 8.15174e-09  6.05165e-09        00000 
 4.13383e-09 -4.81678e-09        00000 
 9.84583e-09  1.81997e-09        00000 
 9.17171e-09 -7.27348e-09        00000 
-7.14197e-10 -6.98145e-09        00000 
 4.47876e-09  3.66897e-09        00000 
 2.91966e-09 -7.47522e-09        00000 
 1.33949e-08  5.66618e-09        00000 
 4.68898e-09  2.15678e-09        00000 
 1.77636e-12  3.29300e-09        00000 
 6.87643e-09 -1.56119e-08        00000 
 1.06627e-08  1.80255e-09        00000 
-2.14365e-09  9.51633e-09        00000 
 6.03505e-09  3.30398e-09        00000 
 2.14857e-09  3.61004e-09        00000 
 8.68545e-09 -9.24795e-09        00000 
-4.34222e-09 -8.00352e-09        00000 
 5.09115e-09 -6.38543e-09        00000 
 9.63969e-10 -2.28721e-09        00000 
 5.14963e-09  2.27739e-09        00000 
-7.59762e-09  1.76243e-10        00000 
-1.75743e-09 -1.41778e-08        00000 
-5.55847e-09  2.56364e-10        00000 
-1.61957e-08  2.66176e-09        00000 
-1.13674e-09 -8.88775e-09        00000 
 7.34344e-09 -1.41341e-08        00000 
 3.26400e-09  8.75281e-09        00000 
-4.37886e-09  8.24677e-09        00000 