<?xml version="1.0" encoding="utf-8"?>
<VTKFile byte_order="LittleEndian" type="UnstructuredGrid" version="0.1">
   <UnstructuredGrid>
      <Piece NumberOfCells="1296" NumberOfPoints="685">
         <Points>
            <DataArray Name="Points" NumberOfComponents="3" format="ascii" type="Float32">
0.0000 0.0000 0.0000
0.0000 0.1111 0.0000
0.0000 0.2222 0.0000
0.0000 0.3333 0.0000
0.0000 0.4444 0.0000
0.0000 0.5556 0.0000
0.0000 0.6667 0.0000
0.0000 0.7778 0.0000
0.0000 0.8889 0.0000
0.0000 1.0000 0.0000
0.2222 0.0000 0.0000
0.2222 0.1111 0.0000
0.2222 0.2222 0.0000
0.2222 0.3333 0.0000
0.2222 0.4444 0.0000
0.2222 0.5556 0.0000
0.2222 0.6667 0.0000
0.2222 0.7778 0.0000
0.2222 0.8889 0.0000
0.2222 1.0000 0.0000
0.4444 0.0000 0.0000
0.4444 0.1111 0.0000
0.4444 0.2222 0.0000
0.4444 0.3333 0.0000
0.4444 0.4444 0.0000
0.4444 0.5556 0.0000
0.4444 0.6667 0.0000
0.4444 0.7778 0.0000
0.4444 0.8889 0.0000
0.4444 1.0000 0.0000
0.6667 0.0000 0.0000
0.6667 0.1111 0.0000
0.6667 0.2222 0.0000
0.6667 0.3333 0.0000
0.6667 0.4444 0.0000
0.6667 0.5556 0.0000
0.6667 0.6667 0.0000
0.6667 0.7778 0.0000
0.6667 0.8889 0.0000
0.6667 1.0000 0.0000
0.8889 0.0000 0.0000
0.8889 0.1111 0.0000
0.8889 0.2222 0.0000
0.8889 0.3333 0.0000
0.8889 0.4444 0.0000
0.8889 0.5556 0.0000
0.8889 0.6667 0.0000
0.8889 0.7778 0.0000
0.8889 0.8889 0.0000
0.8889 1.0000 0.0000
1.1111 0.0000 0.0000
1.1111 0.1111 0.0000
1.1111 0.2222 0.0000
1.1111 0.3333 0.0000
1.1111 0.4444 0.0000
1.1111 0.5556 0.0000
1.1111 0.6667 0.0000
1.1111 0.7778 0.0000
1.1111 0.8889 0.0000
1.1111 1.0000 0.0000
1.3333 0.0000 0.0000
1.3333 0.1111 0.0000
1.3333 0.2222 0.0000
1.3333 0.3333 0.0000
1.3333 0.4444 0.0000
1.3333 0.5556 0.0000
1.3333 0.6667 0.0000
1.3333 0.7778 0.0000
1.3333 0.8889 0.0000
1.3333 1.0000 0.0000
1.5556 0.0000 0.0000
1.5556 0.1111 0.0000
1.5556 0.2222 0.0000
1.5556 0.3333 0.0000
1.5556 0.4444 0.0000
1.5556 0.5556 0.0000
1.5556 0.6667 0.0000
1.5556 0.7778 0.0000
1.5556 0.8889 0.0000
1.5556 1.0000 0.0000
1.7778 0.0000 0.0000
1.7778 0.1111 0.0000
1.7778 0.2222 0.0000
1.7778 0.3333 0.0000
1.7778 0.4444 0.0000
1.7778 0.5556 0.0000
1.7778 0.6667 0.0000
1.7778 0.7778 0.0000
1.7778 0.8889 0.0000
1.7778 1.0000 0.0000
2.0000 0.0000 0.0000
2.0000 0.1111 0.0000
2.0000 0.2222 0.0000
2.0000 0.3333 0.0000
2.0000 0.4444 0.0000
2.0000 0.5556 0.0000
2.0000 0.6667 0.0000
2.0000 0.7778 0.0000
2.0000 0.8889 0.0000
2.0000 1.0000 0.0000
0.1111 0.0556 0.0000
0.1111 0.1667 0.0000
0.1111 0.2778 0.0000
0.1111 0.3889 0.0000
0.1111 0.5000 0.0000
0.1111 0.6111 0.0000
0.1111 0.7222 0.0000
0.1111 0.8333 0.0000
0.1111 0.9444 0.0000
0.3333 0.0556 0.0000
0.3333 0.1667 0.0000
0.3333 0.2778 0.0000
0.3333 0.3889 0.0000
0.3333 0.5000 0.0000
0.3333 0.6111 0.0000
0.3333 0.7222 0.0000
0.3333 0.8333 0.0000
0.3333 0.9444 0.0000
0.5556 0.0556 0.0000
0.5556 0.1667 0.0000
0.5556 0.2778 0.0000
0.5556 0.3889 0.0000
0.5556 0.5000 0.0000
0.5556 0.6111 0.0000
0.5556 0.7222 0.0000
0.5556 0.8333 0.0000
0.5556 0.9444 0.0000
0.7778 0.0556 0.0000
0.7778 0.1667 0.0000
0.7778 0.2778 0.0000
0.7778 0.3889 0.0000
0.7778 0.5000 0.0000
0.7778 0.6111 0.0000
0.7778 0.7222 0.0000
0.7778 0.8333 0.0000
0.7778 0.9444 0.0000
1.0000 0.0556 0.0000
1.0000 0.1667 0.0000
1.0000 0.2778 0.0000
1.0000 0.3889 0.0000
1.0000 0.5000 0.0000
1.0000 0.6111 0.0000
1.0000 0.7222 0.0000
1.0000 0.8333 0.0000
1.0000 0.9444 0.0000
1.2222 0.0556 0.0000
1.2222 0.1667 0.0000
1.2222 0.2778 0.0000
1.2222 0.3889 0.0000
1.2222 0.5000 0.0000
1.2222 0.6111 0.0000
1.2222 0.7222 0.0000
1.2222 0.8333 0.0000
1.2222 0.9444 0.0000
1.4444 0.0556 0.0000
1.4444 0.1667 0.0000
1.4444 0.2778 0.0000
1.4444 0.3889 0.0000
1.4444 0.5000 0.0000
1.4444 0.6111 0.0000
1.4444 0.7222 0.0000
1.4444 0.8333 0.0000
1.4444 0.9444 0.0000
1.6667 0.0556 0.0000
1.6667 0.1667 0.0000
1.6667 0.2778 0.0000
1.6667 0.3889 0.0000
1.6667 0.5000 0.0000
1.6667 0.6111 0.0000
1.6667 0.7222 0.0000
1.6667 0.8333 0.0000
1.6667 0.9444 0.0000
1.8889 0.0556 0.0000
1.8889 0.1667 0.0000
1.8889 0.2778 0.0000
1.8889 0.3889 0.0000
1.8889 0.5000 0.0000
1.8889 0.6111 0.0000
1.8889 0.7222 0.0000
1.8889 0.8333 0.0000
1.8889 0.9444 0.0000
0.0000 0.0556 0.0000
0.0556 0.0278 0.0000
0.0556 0.0833 0.0000
0.0000 0.1667 0.0000
0.0556 0.1389 0.0000
0.0556 0.1944 0.0000
0.0000 0.2778 0.0000
0.0556 0.2500 0.0000
0.0556 0.3056 0.0000
0.0000 0.3889 0.0000
0.0556 0.3611 0.0000
0.0556 0.4167 0.0000
0.0000 0.5000 0.0000
0.0556 0.4722 0.0000
0.0556 0.5278 0.0000
0.0000 0.6111 0.0000
0.0556 0.5833 0.0000
0.0556 0.6389 0.0000
0.0000 0.7222 0.0000
0.0556 0.6944 0.0000
0.0556 0.7500 0.0000
0.0000 0.8333 0.0000
0.0556 0.8056 0.0000
0.0556 0.8611 0.0000
0.0000 0.9444 0.0000
0.0556 0.9167 0.0000
0.0556 0.9722 0.0000
0.2222 0.0556 0.0000
0.2778 0.0278 0.0000
0.2778 0.0833 0.0000
0.2222 0.1667 0.0000
0.2778 0.1389 0.0000
0.2778 0.1944 0.0000
0.2222 0.2778 0.0000
0.2778 0.2500 0.0000
0.2778 0.3056 0.0000
0.2222 0.3889 0.0000
0.2778 0.3611 0.0000
0.2778 0.4167 0.0000
0.2222 0.5000 0.0000
0.2778 0.4722 0.0000
0.2778 0.5278 0.0000
0.2222 0.6111 0.0000
0.2778 0.5833 0.0000
0.2778 0.6389 0.0000
0.2222 0.7222 0.0000
0.2778 0.6944 0.0000
0.2778 0.7500 0.0000
0.2222 0.8333 0.0000
0.2778 0.8056 0.0000
0.2778 0.8611 0.0000
0.2222 0.9444 0.0000
0.2778 0.9167 0.0000
0.2778 0.9722 0.0000
0.4444 0.0556 0.0000
0.5000 0.0278 0.0000
0.5000 0.0833 0.0000
0.4444 0.1667 0.0000
0.5000 0.1389 0.0000
0.5000 0.1944 0.0000
0.4444 0.2778 0.0000
0.5000 0.2500 0.0000
0.5000 0.3056 0.0000
0.4444 0.3889 0.0000
0.5000 0.3611 0.0000
0.5000 0.4167 0.0000
0.4444 0.5000 0.0000
0.5000 0.4722 0.0000
0.5000 0.5278 0.0000
0.4444 0.6111 0.0000
0.5000 0.5833 0.0000
0.5000 0.6389 0.0000
0.4444 0.7222 0.0000
0.5000 0.6944 0.0000
0.5000 0.7500 0.0000
0.4444 0.8333 0.0000
0.5000 0.8056 0.0000
0.5000 0.8611 0.0000
0.4444 0.9444 0.0000
0.5000 0.9167 0.0000
0.5000 0.9722 0.0000
0.6667 0.0556 0.0000
0.7222 0.0278 0.0000
0.7222 0.0833 0.0000
0.6667 0.1667 0.0000
0.7222 0.1389 0.0000
0.7222 0.1944 0.0000
0.6667 0.2778 0.0000
0.7222 0.2500 0.0000
0.7222 0.3056 0.0000
0.6667 0.3889 0.0000
0.7222 0.3611 0.0000
0.7222 0.4167 0.0000
0.6667 0.5000 0.0000
0.7222 0.4722 0.0000
0.7222 0.5278 0.0000
0.6667 0.6111 0.0000
0.7222 0.5833 0.0000
0.7222 0.6389 0.0000
0.6667 0.7222 0.0000
0.7222 0.6944 0.0000
0.7222 0.7500 0.0000
0.6667 0.8333 0.0000
0.7222 0.8056 0.0000
0.7222 0.8611 0.0000
0.6667 0.9444 0.0000
0.7222 0.9167 0.0000
0.7222 0.9722 0.0000
0.8889 0.0556 0.0000
0.9444 0.0278 0.0000
0.9444 0.0833 0.0000
0.8889 0.1667 0.0000
0.9444 0.1389 0.0000
0.9444 0.1944 0.0000
0.8889 0.2778 0.0000
0.9444 0.2500 0.0000
0.9444 0.3056 0.0000
0.8889 0.3889 0.0000
0.9444 0.3611 0.0000
0.9444 0.4167 0.0000
0.8889 0.5000 0.0000
0.9444 0.4722 0.0000
0.9444 0.5278 0.0000
0.8889 0.6111 0.0000
0.9444 0.5833 0.0000
0.9444 0.6389 0.0000
0.8889 0.7222 0.0000
0.9444 0.6944 0.0000
0.9444 0.7500 0.0000
0.8889 0.8333 0.0000
0.9444 0.8056 0.0000
0.9444 0.8611 0.0000
0.8889 0.9444 0.0000
0.9444 0.9167 0.0000
0.9444 0.9722 0.0000
1.1111 0.0556 0.0000
1.1667 0.0278 0.0000
1.1667 0.0833 0.0000
1.1111 0.1667 0.0000
1.1667 0.1389 0.0000
1.1667 0.1944 0.0000
1.1111 0.2778 0.0000
1.1667 0.2500 0.0000
1.1667 0.3056 0.0000
1.1111 0.3889 0.0000
1.1667 0.3611 0.0000
1.1667 0.4167 0.0000
1.1111 0.5000 0.0000
1.1667 0.4722 0.0000
1.1667 0.5278 0.0000
1.1111 0.6111 0.0000
1.1667 0.5833 0.0000
1.1667 0.6389 0.0000
1.1111 0.7222 0.0000
1.1667 0.6944 0.0000
1.1667 0.7500 0.0000
1.1111 0.8333 0.0000
1.1667 0.8056 0.0000
1.1667 0.8611 0.0000
1.1111 0.9444 0.0000
1.1667 0.9167 0.0000
1.1667 0.9722 0.0000
1.3333 0.0556 0.0000
1.3889 0.0278 0.0000
1.3889 0.0833 0.0000
1.3333 0.1667 0.0000
1.3889 0.1389 0.0000
1.3889 0.1944 0.0000
1.3333 0.2778 0.0000
1.3889 0.2500 0.0000
1.3889 0.3056 0.0000
1.3333 0.3889 0.0000
1.3889 0.3611 0.0000
1.3889 0.4167 0.0000
1.3333 0.5000 0.0000
1.3889 0.4722 0.0000
1.3889 0.5278 0.0000
1.3333 0.6111 0.0000
1.3889 0.5833 0.0000
1.3889 0.6389 0.0000
1.3333 0.7222 0.0000
1.3889 0.6944 0.0000
1.3889 0.7500 0.0000
1.3333 0.8333 0.0000
1.3889 0.8056 0.0000
1.3889 0.8611 0.0000
1.3333 0.9444 0.0000
1.3889 0.9167 0.0000
1.3889 0.9722 0.0000
1.5556 0.0556 0.0000
1.6111 0.0278 0.0000
1.6111 0.0833 0.0000
1.5556 0.1667 0.0000
1.6111 0.1389 0.0000
1.6111 0.1944 0.0000
1.5556 0.2778 0.0000
1.6111 0.2500 0.0000
1.6111 0.3056 0.0000
1.5556 0.3889 0.0000
1.6111 0.3611 0.0000
1.6111 0.4167 0.0000
1.5556 0.5000 0.0000
1.6111 0.4722 0.0000
1.6111 0.5278 0.0000
1.5556 0.6111 0.0000
1.6111 0.5833 0.0000
1.6111 0.6389 0.0000
1.5556 0.7222 0.0000
1.6111 0.6944 0.0000
1.6111 0.7500 0.0000
1.5556 0.8333 0.0000
1.6111 0.8056 0.0000
1.6111 0.8611 0.0000
1.5556 0.9444 0.0000
1.6111 0.9167 0.0000
1.6111 0.9722 0.0000
1.7778 0.0556 0.0000
1.8333 0.0278 0.0000
1.8333 0.0833 0.0000
1.7778 0.1667 0.0000
1.8333 0.1389 0.0000
1.8333 0.1944 0.0000
1.7778 0.2778 0.0000
1.8333 0.2500 0.0000
1.8333 0.3056 0.0000
1.7778 0.3889 0.0000
1.8333 0.3611 0.0000
1.8333 0.4167 0.0000
1.7778 0.5000 0.0000
1.8333 0.4722 0.0000
1.8333 0.5278 0.0000
1.7778 0.6111 0.0000
1.8333 0.5833 0.0000
1.8333 0.6389 0.0000
1.7778 0.7222 0.0000
1.8333 0.6944 0.0000
1.8333 0.7500 0.0000
1.7778 0.8333 0.0000
1.8333 0.8056 0.0000
1.8333 0.8611 0.0000
1.7778 0.9444 0.0000
1.8333 0.9167 0.0000
1.8333 0.9722 0.0000
0.1111 0.1111 0.0000
0.1667 0.0833 0.0000
0.1111 0.2222 0.0000
0.1667 0.1944 0.0000
0.1111 0.3333 0.0000
0.1667 0.3056 0.0000
0.1111 0.4444 0.0000
0.1667 0.4167 0.0000
0.1111 0.5556 0.0000
0.1667 0.5278 0.0000
0.1111 0.6667 0.0000
0.1667 0.6389 0.0000
0.1111 0.7778 0.0000
0.1667 0.7500 0.0000
0.1111 0.8889 0.0000
0.1667 0.8611 0.0000
0.1111 1.0000 0.0000
0.1667 0.9722 0.0000
0.3333 0.1111 0.0000
0.3889 0.0833 0.0000
0.3333 0.2222 0.0000
0.3889 0.1944 0.0000
0.3333 0.3333 0.0000
0.3889 0.3056 0.0000
0.3333 0.4444 0.0000
0.3889 0.4167 0.0000
0.3333 0.5556 0.0000
0.3889 0.5278 0.0000
0.3333 0.6667 0.0000
0.3889 0.6389 0.0000
0.3333 0.7778 0.0000
0.3889 0.7500 0.0000
0.3333 0.8889 0.0000
0.3889 0.8611 0.0000
0.3333 1.0000 0.0000
0.3889 0.9722 0.0000
0.5556 0.1111 0.0000
[...]
         <PointData>
            <DataArray Name="fValues" NumberOfComponents="3" format="ascii" type="Float64">
 5.69860e-25        00000        00000 
-4.18150e-24 -6.14927e-25        00000 
-4.74931e-24 -1.85304e-24        00000 
 4.89924e-25  4.40932e-24        00000 
-8.91269e-24  7.15282e-24        00000 
 2.41900e-24  1.95970e-24        00000 
-1.52161e-24  4.91832e-25        00000 
-1.22370e-24  4.03822e-24        00000 
-1.96824e-24 -2.46030e-24        00000 
       00000        00000        00000 
-7.71134e-09  1.39234e-07        00000 
 1.59201e-08  5.85554e-08        00000 
-8.95348e-10  4.15387e-08        00000 
-3.92505e-08 -1.52084e-08        00000 
 2.18026e-09  1.50056e-08        00000 
-3.84966e-08 -3.48287e-08        00000 
-2.60253e-08 -2.19656e-08        00000 
-5.19791e-08  1.40257e-08        00000 
-5.05086e-08  7.49760e-09        00000 
-7.56576e-08  2.38049e-08        00000 
-1.36443e-08  1.08609e-08        00000 
-1.63294e-08  9.08555e-09        00000 
 3.63645e-08 -3.40566e-08        00000 
-1.69090e-09 -2.22819e-08        00000 
 6.42370e-09 -3.66745e-08        00000 
 3.99415e-08  3.18092e-11        00000 
-1.39200e-08  9.89473e-09        00000 
-4.82542e-08 -7.66895e-08        00000 
-4.32765e-08 -3.52956e-09        00000 
-1.14512e-08  1.62188e-08        00000 
 3.65059e-08  1.51520e-07        00000 
-2.15414e-08  2.99188e-08        00000 
 7.18138e-10 -8.03173e-09        00000 
-4.18830e-09 -2.26708e-09        00000 
-6.59242e-08  3.33771e-09        00000 
 2.47659e-08  7.42614e-08        00000 
 7.27533e-09  3.15485e-08        00000 
-5.95295e-08 -2.95239e-09        00000 
-2.76292e-08 -1.09473e-08        00000 
-1.74190e-08 -1.22759e-07        00000 
 7.70289e-09  1.16544e-07        00000 
-7.15374e-09  4.63834e-08        00000 
 4.99767e-09 -1.58717e-08        00000 
 1.29089e-09 -2.67907e-08        00000 
-5.74554e-08 -7.58992e-08        00000 
 1.88785e-08  2.76860e-08        00000 
-6.60124e-09  6.83081e-08        00000 
-1.12782e-08  1.09430e-08        00000 
-1.36228e-08  1.89830e-08        00000 
-1.89464e-08 -7.68627e-08        00000 
 6.79813e-08  7.77595e-08        00000 
 2.95784e-08  2.77735e-08        00000 
 5.10432e-08  7.45727e-08        00000 
 2.55313e-08  4.64802e-08        00000 
-3.64894e-08  3.85626e-09        00000 
 2.21523e-09  4.39831e-08        00000 
 5.80222e-08 -8.00247e-09        00000 
-6.61548e-09  6.56074e-08        00000 
-2.07778e-08  8.37740e-09        00000 
-1.39945e-08 -9.97485e-08        00000 
 3.06121e-08 -7.06212e-08        00000 
 3.24084e-09 -3.29487e-08        00000 
 5.18397e-08 -1.80455e-08        00000 
-2.53539e-08 -6.67105e-09        00000 
-2.51424e-09  1.80394e-09        00000 
 5.04392e-09  7.93886e-09        00000 
-1.28059e-08 -4.44046e-09        00000 
 2.37293e-09 -2.73249e-08        00000 
-9.21423e-09 -7.46951e-10        00000 
 4.20049e-08 -1.60467e-08        00000 
-1.74595e-08  7.32211e-09        00000 
 3.26739e-08  2.84528e-09        00000 
 2.93356e-08  5.45796e-10        00000 
 2.47448e-08  5.19371e-09        00000 
-3.23683e-09 -3.41541e-08        00000 
-1.63808e-08 -9.33717e-09        00000 
-3.70097e-08 -1.74716e-08        00000 
 3.28793e-08 -1.46182e-08        00000 
 3.39899e-08 -1.91607e-08        00000 
 9.77366e-10 -7.01050e-08        00000 
 3.94007e-09  2.07095e-08        00000 
-2.33130e-08  7.03692e-08        00000 
-2.25659e-08 -4.90006e-09        00000 
-2.75125e-08  2.45505e-09        00000 
-5.01197e-08 -5.51145e-08        00000 
-4.52283e-08 -5.13092e-08        00000 
 2.00279e-08  2.70299e-09        00000 
-4.50414e-08 -3.42532e-08        00000 
-1.40350e-08 -9.96771e-09        00000 
-2.23127e-08 -1.27540e-08        00000 
 1.53879e-08  1.89796e-08        00000 
-1.78078e-08 -3.06612e-09        00000 
-3.40058e-08  1.05612e-08        00000 
 2.29585e-09  1.33581e-09        00000 
-3.60277e-08  1.54776e-08        00000 
 2.71096e-08 -1.78976e-09        00000 
 3.86632e-09  4.37007e-08        00000 
 9.40969e-09  1.16153e-08        00000 
 1.12540e-08  2.36551e-08        00000 
-8.55993e-08  2.40571e-08        00000 
-4.23293e-09  1.73315e-08        00000 
-1.56627e-08  5.14566e-08        00000 
 1.22830e-08  1.43783e-09        00000 
 2.51652e-08 -1.60914e-08        00000 
 3.94678e-08  7.22436e-09        00000 
 6.89919e-08  3.93226e-08        00000 
-1.25404e-09 -2.77133e-08        00000 
-3.60150e-08 -2.44945e-08        00000 
 1.49602e-08 -1.60912e-08        00000 
 3.99254e-08 -5.72297e-09        00000 
-2.26091e-08  1.31471e-09        00000 
-3.51048e-08 -3.08994e-09        00000 
-2.19124e-08  1.84544e-10        00000 
-1.24643e-08  4.38498e-09        00000 
 8.49704e-09 -2.06349e-08        00000 
-1.07330e-08 -8.86116e-09        00000 
-1.35574e-09  2.22542e-11        00000 
-5.44974e-08 -1.14111e-08        00000 
 1.38384e-08  2.34437e-08        00000 
-2.41306e-08  5.28434e-08        00000 
 1.67385e-09  5.44872e-08        00000 
 1.77148e-08  9.48518e-09        00000 
-1.27980e-08  2.35874e-09        00000 
 1.36476e-08 -2.05673e-08        00000 
 4.84238e-08  8.30252e-09        00000 
-4.85375e-08  1.20020e-08        00000 
 9.56434e-09  2.47623e-08        00000 
 2.77823e-08 -1.84094e-08        00000 
-2.46884e-09  3.96309e-08        00000 
 3.57129e-08  7.27120e-09        00000 
-3.53422e-08 -1.67772e-08        00000 
-2.94571e-08 -4.74790e-08        00000 
-1.92642e-10  1.41571e-08        00000 
 3.16704e-08  3.18530e-08        00000 
-6.70083e-08 -4.07848e-08        00000 
-1.55893e-08 -1.19266e-08        00000 
 3.66112e-08 -1.19665e-08        00000 
 3.21555e-08 -3.75937e-08        00000 
-6.83190e-09 -3.80111e-08        00000 
-2.01081e-08 -8.55695e-09        00000 
 2.47166e-08  5.25759e-09        00000 
 3.33553e-09  1.99159e-08        00000 
 9.55555e-09  9.14142e-10        00000 
-8.16507e-09 -5.24096e-10        00000 
 2.03437e-08  4.18041e-08        00000 
 2.81450e-08  2.07130e-08        00000 
 2.48592e-08  1.66769e-08        00000 
 8.06858e-08  2.70303e-09        00000 
 3.20430e-08  3.44895e-08        00000 
-2.40054e-08 -1.15499e-08        00000 
 1.16410e-08 -1.17921e-08        00000 
 4.22263e-08  3.38590e-08        00000 
-2.86836e-08 -7.35892e-08        00000 
-4.22830e-08  1.54343e-09        00000 
 1.58863e-08  4.57521e-09        00000 
 2.03856e-08  3.12194e-08        00000 
-4.34738e-09  2.09877e-08        00000 
 2.37441e-08  2.56238e-08        00000 
 9.95124e-09 -1.44775e-08        00000 
 1.25145e-08  1.42141e-09        00000 
 3.53145e-09 -1.72282e-08        00000 
-2.14567e-08 -1.21928e-09        00000 
-4.84264e-08  2.42581e-08        00000 
-2.00832e-08  4.00996e-09        00000 
 1.75988e-08  1.16600e-08        00000 
-1.67438e-08 -1.83923e-08        00000 
-3.41019e-08 -1.37755e-08        00000 
-6.65958e-08 -4.11877e-08        00000 
-1.63072e-08 -7.12223e-08        00000 
-6.00591e-08 -4.62550e-08        00000 
-3.35282e-08  9.39974e-09        00000 
-4.67173e-08  3.00325e-08        00000 
 1.16039e-08  1.95112e-08        00000 
-1.30667e-08 -3.66629e-08        00000 
-7.04656e-08  1.57850e-08        00000 
 2.35787e-10 -1.86817e-08        00000 
 2.77294e-09 -1.18479e-08        00000 
-9.11228e-09  5.29064e-09        00000 
-1.20172e-08  8.57270e-09        00000 
-1.96533e-08 -2.31177e-09        00000 
-4.95889e-08 -2.90598e-08        00000 
 4.89109e-24  3.02768e-24        00000 
-7.68247e-08 -4.71292e-08        00000 
-2.11574e-08  8.99617e-09        00000 
-2.93076e-24 -1.55232e-24        00000 
 1.39125e-08  2.75737e-08        00000 
 1.48417e-08  6.69409e-09        00000 
       00000  6.51405e-24        00000 
-4.02425e-08 -9.39648e-09        00000 
 1.34255e-09  5.38191e-08        00000 
-1.77158e-24  7.18307e-24        00000 
 9.25919e-09 -1.61787e-08        00000 
-2.44350e-08  5.04101e-08        00000 
 2.79173e-24 -1.39587e-24        00000 
-1.90895e-08 -5.87684e-09        00000 
 1.28931e-08  1.14863e-08        00000 
-9.53660e-26  9.22381e-24        00000 
-4.17713e-10 -3.58289e-08        00000 
-5.29750e-08  6.02375e-08        00000 
-1.39587e-24 -9.30578e-25        00000 
 1.21198e-08  9.70007e-09        00000 
 1.87081e-08 -8.26070e-09        00000 
 1.86116e-24 -3.25702e-24        00000 
 8.19385e-10  4.69032e-08        00000 
-2.65935e-08 -8.40469e-09        00000 
-9.78580e-25  3.36320e-24        00000 
-3.49710e-08 -2.53182e-09        00000 
-1.89145e-08 -6.70453e-08        00000 
-3.11863e-08 -3.01516e-08        00000 
-6.59114e-08 -6.03280e-08        00000 
-3.38933e-08  3.35203e-08        00000 
-3.33203e-08 -3.66898e-08        00000 
-3.98247e-08  1.74215e-08        00000 
 8.89246e-09  3.20559e-08        00000 
-1.00377e-08  7.40107e-09        00000 
-9.75406e-09 -1.20573e-08        00000 
 1.64579e-08  1.70108e-08        00000 
 9.50761e-09  2.75849e-08        00000 
 1.69046e-08 -4.76294e-09        00000 
-2.85831e-08 -8.23097e-09        00000 
-1.82781e-08  5.89269e-09        00000 
-1.86095e-08 -2.76436e-08        00000 
-1.84429e-08 -1.24921e-08        00000 
-4.11316e-08 -1.20504e-08        00000 
-2.20520e-08 -1.31488e-08        00000 
-9.67162e-09 -3.33409e-08        00000 
 7.55292e-09  1.41089e-08        00000 
-2.05235e-08  1.07414e-08        00000 
-1.84571e-08 -1.73070e-08        00000 
-2.41761e-08  2.57120e-09        00000 
-3.05408e-08  4.27426e-08        00000 
-2.53033e-08  1.58977e-08        00000 
-6.78893e-08 -2.50985e-09        00000 
-3.31113e-08  1.99775e-08        00000 
-5.08599e-08 -2.62789e-08        00000 
-4.53036e-08 -1.38598e-08        00000 
-5.75845e-09  1.84915e-08        00000 
-9.41897e-09  1.57368e-08        00000 
-8.34110e-09  8.51121e-09        00000 
-1.43671e-08  2.52914e-08        00000 
 1.93303e-08  1.50015e-08        00000 
 1.89696e-08 -3.39666e-08        00000 
-1.20016e-08  4.92770e-08        00000 
-2.04035e-08 -5.33470e-09        00000 
-2.85025e-08 -8.23845e-09        00000 
 2.56746e-08 -1.79346e-09        00000 
 6.65861e-09  6.91480e-09        00000 
 3.16503e-08 -1.29140e-08        00000 
 2.61443e-08  6.58352e-09        00000 
 6.88465e-09 -2.63529e-08        00000 
-1.84792e-08  8.22876e-09        00000 
-2.66077e-10 -2.63334e-10        00000 
-2.12042e-08 -1.38345e-08        00000 
-2.19459e-08 -2.66129e-08        00000 
-3.55123e-08 -1.03910e-08        00000 
-2.33719e-08 -1.55685e-08        00000 
-5.27699e-08 -1.30033e-09        00000 
-2.21568e-09  1.85955e-08        00000 
-1.29475e-08 -3.31840e-09        00000 
-5.81133e-08 -1.61997e-08        00000 
-5.16285e-08 -1.02618e-08        00000 
-3.14400e-08  2.99403e-08        00000 
-1.27694e-08 -4.21295e-08        00000 
-1.80661e-09 -1.77359e-07        00000 
-3.44238e-08  5.90008e-08        00000 
-3.15377e-08 -1.70735e-08        00000 
 1.87235e-08  3.29934e-08        00000 
 7.09875e-09  3.89941e-08        00000 
 4.83032e-09  4.05618e-08        00000 
 7.85616e-09  1.24859e-08        00000 
-1.71754e-08 -2.37949e-08        00000 
-1.58611e-08  8.68350e-09        00000 
-1.64458e-08  5.68274e-09        00000 
-1.84347e-08 -1.81901e-08        00000 
-4.00573e-08 -2.32568e-08        00000 
-1.04874e-08  6.98408e-08        00000 
-2.92010e-09  5.39855e-08        00000 
 1.97307e-08 -2.30530e-08        00000 
-6.86317e-09 -3.08198e-08        00000 
 3.23503e-09  1.64133e-08        00000 
 9.33279e-09  1.49696e-08        00000 
-1.91397e-08  4.11583e-08        00000 
-3.11510e-08 -1.67682e-08        00000 
-6.58386e-08  7.73496e-09        00000 
 2.61254e-08  6.96374e-08        00000 
 6.41838e-08  1.36982e-08        00000 
-1.06402e-08  8.45443e-08        00000 
 2.52820e-08 -1.61471e-08        00000 
 9.94551e-09  6.97034e-09        00000 
 4.73724e-08 -7.42295e-08        00000 
-5.46952e-09 -9.01665e-08        00000 
 1.88172e-08  5.09495e-09        00000 
-3.52940e-08 -4.64641e-08        00000 
-7.30552e-10  2.57046e-08        00000 
 3.49246e-08 -1.30865e-08        00000 
 1.97987e-08  3.93521e-08        00000 
 3.01945e-08 -8.33690e-09        00000 
-3.23392e-09 -1.00291e-07        00000 
-2.61069e-08  4.17300e-08        00000 
 1.52900e-08  6.87507e-10        00000 
-1.21665e-08 -1.73620e-08        00000 
-6.24414e-09 -7.95893e-09        00000 
 1.90262e-08  2.57794e-08        00000 
-5.39280e-08  2.10179e-09        00000 
-2.04382e-09 -8.53284e-08        00000 
-3.98324e-08 -4.08769e-09        00000 
 1.74879e-08  2.08937e-08        00000 
-9.64735e-09  4.55483e-09        00000 
-5.73016e-09 -1.00652e-08        00000 
 8.72262e-10  1.54494e-08        00000 
 3.69143e-08  4.46430e-08        00000 
 3.68445e-08  5.71771e-08        00000 
 2.23896e-08  3.74710e-08        00000 
-5.51268e-08  6.82676e-08        00000 
 9.40716e-10 -6.18269e-09        00000 
-3.24683e-08  1.37183e-07        00000 
 6.20705e-08  6.72536e-09        00000 
 2.68863e-08  1.38503e-08        00000 
 2.06642e-08  1.72866e-08        00000 
-3.49871e-09 -1.31502e-08        00000 
 8.17633e-08  1.95560e-08        00000 
 4.65000e-08  5.03841e-08        00000 
-1.19159e-08 -9.43746e-09        00000 
-1.92477e-08 -4.55803e-08        00000 
-1.37902e-08  1.09749e-07        00000 
 4.67969e-08  7.46214e-08        00000 
 1.39494e-08  3.06248e-08        00000 
-1.53531e-08 -4.34902e-08        00000 
-5.04241e-08 -5.98821e-08        00000 
 5.03686e-08  1.09206e-07        00000 
 2.54818e-08  2.24027e-08        00000 
 3.79198e-08 -2.21171e-10        00000 
 7.56199e-09  2.50608e-09        00000 
-3.94951e-08 -1.86072e-08        00000 
 8.55658e-09 -6.32331e-08        00000 
 2.36304e-09  2.65813e-09        00000 
 2.10988e-08  1.54503e-08        00000 
-7.47153e-08 -3.60133e-08        00000 
 4.58311e-08  4.39893e-08        00000 
 1.01922e-08  1.37324e-08        00000 
-3.01163e-08  2.09078e-08        00000 
 1.60327e-08  3.48094e-08        00000 
 4.70152e-08  1.57801e-08        00000 
 6.49955e-08 -9.06527e-09        00000 
 9.19222e-08  8.70372e-08        00000 
 7.14541e-08  5.18422e-09        00000 
 2.68053e-08  1.27695e-08        00000 
 1.82538e-08  1.59035e-09        00000 
 3.07057e-09 -6.07585e-10        00000 
 7.83729e-09  2.66675e-08        00000 
 1.01817e-08  2.67920e-08        00000 
 4.18859e-09 -1.82273e-08        00000 
 2.10962e-08  9.34644e-09        00000 
-1.72723e-08 -2.93099e-08        00000 
 3.50032e-08  1.62854e-08        00000 
 2.68287e-08  5.92004e-09        00000 
 2.84245e-08  1.20120e-09        00000 
 2.50537e-08 -9.62127e-09        00000 
 2.76380e-08  1.81454e-08        00000 
 1.87079e-08 -4.10817e-09        00000 
-1.19790e-08 -2.98889e-08        00000 
-1.82498e-08  1.22864e-08        00000 
-1.95976e-09  1.97531e-11        00000 
 9.98418e-09 -2.10661e-08        00000 
-2.09488e-09  4.99779e-08        00000 
 3.60571e-08  8.12479e-09        00000 
 1.43794e-09 -6.47366e-09        00000 
 2.41359e-08  1.74811e-08        00000 
-1.67913e-08 -7.35831e-09        00000 
 3.63444e-08  7.11235e-08        00000 
 4.30796e-08  4.55674e-08        00000 
 3.36323e-08  1.52772e-09        00000 
 1.41463e-08  3.25233e-08        00000 
 5.63672e-08  1.54764e-08        00000 
 2.01836e-08  5.21285e-08        00000 
 6.45352e-08  2.56235e-08        00000 
 3.00020e-08  3.63828e-08        00000 
 7.83200e-08  1.31030e-08        00000 
 8.52975e-09  2.16733e-08        00000 
-2.02647e-11  1.12041e-08        00000 
 2.55899e-08  1.85234e-08        00000 
 2.18492e-09 -2.21826e-08        00000 
-6.38764e-09  6.92632e-08        00000 
 6.32072e-08  2.31359e-08        00000 
-5.20771e-09  3.12300e-08        00000 
-2.46824e-08  3.15972e-08        00000 
 6.01824e-09 -6.18711e-08        00000 
 2.96860e-08  4.11558e-08        00000 
-2.08223e-08  3.61873e-08        00000 
 7.42203e-08  1.44179e-08        00000 
-2.18317e-08 -7.57771e-08        00000 
 3.59466e-08 -1.84146e-08        00000 
-7.99645e-09 -1.42666e-08        00000 
-9.42165e-09  1.98811e-08        00000 
-1.42223e-08  6.92749e-08        00000 
-5.58819e-09 -7.07598e-08        00000 
 2.18110e-08  1.29621e-07        00000 
-1.54582e-08 -1.01200e-08        00000 
-1.30551e-08  3.69610e-08        00000 
 2.28012e-08  2.25072e-08        00000 
-2.42260e-08  5.77023e-09        00000 
-8.30943e-09  1.06624e-08        00000 
-5.07157e-08 -1.32491e-08        00000 
-2.15368e-09 -1.50983e-08        00000 
-3.91529e-08 -1.72447e-08        00000 
 1.91892e-09  9.76385e-09        00000 
 1.82604e-09  5.87346e-08        00000 
-3.06302e-08  1.57802e-09        00000 
-1.62831e-08  1.86261e-08        00000 
-5.54459e-08  4.21255e-08        00000 
 5.59035e-08 -1.38315e-08        00000 
 1.85854e-08 -1.93871e-08        00000 
-3.75026e-08 -1.23915e-08        00000 
 3.42649e-08 -9.97221e-09        00000 
-2.05948e-08  2.95016e-08        00000 
-3.39753e-09 -1.33715e-08        00000 
-6.75350e-08 -1.60193e-08        00000 
-7.99776e-09 -2.42712e-08        00000 
-2.19607e-08  3.33725e-08        00000 
-1.39801e-08  4.74574e-08        00000 
-3.46968e-08 -4.89294e-09        00000 
-2.51058e-08  7.15524e-08        00000 
-2.78857e-09  2.63536e-08        00000 
-3.77563e-08  3.58804e-08        00000 
-9.07037e-09  2.34290e-08        00000 
 6.81447e-09  2.30276e-08        00000 
-4.11863e-08 -6.68398e-08        00000 
-1.11137e-08 -1.18228e-08        00000 
 2.55771e-08  1.73495e-08        00000 
 1.73848e-09  8.77720e-09        00000 
 1.36507e-08 -1.05983e-08        00000 
-1.42109e-08 -3.35206e-08        00000 
-6.42180e-11 -2.65748e-08        00000 
 3.49539e-08  1.18920e-08        00000 
 1.47099e-08  2.97937e-08        00000 
 1.13918e-08 -4.42399e-09        00000 
-3.30152e-09 -2.45281e-08        00000 
-1.51648e-09 -2.47894e-08        00000 
-6.97102e-09 -7.94419e-10        00000 
-7.39975e-09 -9.63110e-09        00000 
-7.55382e-09  3.59311e-08        00000 
-6.45489e-08  2.12753e-08        00000 
-2.97257e-08  1.54534e-08        00000 
 9.07437e-09 -9.56874e-10        00000 
-4.78469e-08  1.07285e-08        00000 
 1.10255e-08  5.22227e-09        00000 
-2.81169e-09  2.03221e-08        00000 
 2.62498e-08  1.71002e-08        00000 
-6.86033e-09 -1.18568e-08        00000 
 3.66464e-08  3.83683e-09        00000 
 2.95811e-08 -1.81309e-08        00000 
 3.25663e-09  1.51505e-08        00000 
-1.03262e-09 -4.58448e-09        00000 
-1.81286e-08 -1.84301e-08        00000 
 1.34034e-08 -5.77627e-08        00000 
-3.90672e-08 -2.43357e-08        00000 
-1.98036e-08  1.40016e-08        00000 
-5.93770e-09  1.14589e-08        00000 
-5.83655e-08  5.59059e-08        00000 
-1.47204e-08 -1.58138e-08        00000 
-2.27168e-08  1.48227e-08        00000 
-6.56770e-09  1.01421e-08        00000 
-4.78668e-08  1.22222e-08        00000 
 8.70096e-09 -1.38172e-08        00000 
 1.41321e-08  9.01367e-09        00000 
 4.34210e-08 -4.57010e-08        00000 
-1.93907e-11  7.80867e-09        00000 
-5.88402e-09 -5.25961e-08        00000 
-2.73489e-08 -1.07900e-08        00000 
-4.38247e-08 -1.80071e-08        00000 
 5.30220e-09 -8.68446e-09        00000 
 2.40437e-08  3.60677e-08        00000 
-9.73401e-09 -1.10493e-08        00000 
 2.20434e-09 -2.08544e-09        00000 
-4.33210e-08 -1.73331e-08        00000 
-1.95664e-08  2.21986e-08        00000 
 1.58879e-08  7.69620e-09        00000 
 1.06535e-08  9.49493e-08        00000 
-2.10808e-08 -2.62297e-08        00000 
-4.01286e-08 -3.93016e-08        00000 
-1.34973e-08 -3.49668e-08        00000 
-2.29988e-08 -5.39828e-08        00000 
 3.98317e-09  9.15528e-09        00000 
 1.82345e-08 -3.19371e-08        00000 
-3.00604e-08  3.59106e-09        00000 
-1.34740e-08 -5.38186e-08        00000 
-2.49483e-08  2.84945e-08        00000 
-7.82696e-08 -2.92158e-08        00000 
 2.46826e-08  3.85092e-08        00000 
 2.36753e-08  9.84329e-10        00000 
-1.02005e-08  4.46423e-08        00000 
-8.95355e-09  3.54268e-09        00000 
-2.44813e-08  4.54320e-09        00000 
 1.62306e-08  5.97337e-08        00000 
 4.88052e-09 -3.41992e-08        00000 
 9.20227e-08  9.31259e-08        00000 
 6.06354e-08  2.36400e-08        00000 