<?xml version="1.0" encoding="utf-8"?>
<VTKFile byte_order="LittleEndian" type="UnstructuredGrid" version="0.1">
   <UnstructuredGrid>
      <Piece NumberOfCells="1296" NumberOfPoints="685">
         <Points>
            <DataArray Name="Points" NumberOfComponents="3" format="ascii" type="Float32">
0.0000 0.0000 0.0000
0.0000 0.1111 0.0000
0.0000 0.2222 0.0000
0.0000 0.3333 0.0000
0.0000 0.4444 0.0000
0.0000 0.5556 0.0000
0.0000 0.6667 0.0000
0.0000 0.7778 0.0000
0.0000 0.8889 0.0000
0.0000 1.0000 0.0000
0.2222 0.0000 0.0000
0.2222 0.1111 0.0000
0.2222 0.2222 0.0000
0.2222 0.3333 0.0000
0.2222 0.4444 0.0000
0.2222 0.5556 0.0000
0.2222 0.6667 0.0000
0.2222 0.7778 0.0000
0.2222 0.8889 0.0000
0.2222 1.0000 0.0000
0.4444 0.0000 0.0000
0.4444 0.1111 0.0000
0.4444 0.2222 0.0000
0.4444 0.3333 0.0000
0.4444 0.4444 0.0000
0.4444 0.5556 0.0000
0.4444 0.6667 0.0000
0.4444 0.7778 0.0000
0.4444 0.8889 0.0000
0.4444 1.0000 0.0000
0.6667 0.0000 0.0000
0.6667 0.1111 0.0000
0.6667 0.2222 0.0000
0.6667 0.3333 0.0000
0.6667 0.4444 0.0000
0.6667 0.5556 0.0000
0.6667 0.6667 0.0000
0.6667 0.7778 0.0000
0.6667 0.8889 0.0000
0.6667 1.0000 0.0000
0.8889 0.0000 0.0000
0.8889 0.1111 0.0000
0.8889 0.2222 0.0000
0.8889 0.3333 0.0000
0.8889 0.4444 0.0000
0.8889 0.5556 0.0000
0.8889 0.6667 0.0000
0.8889 0.7778 0.0000
0.8889 0.8889 0.0000
0.8889 1.0000 0.0000
1.1111 0.0000 0.0000
1.1111 0.1111 0.0000
1.1111 0.2222 0.0000
1.1111 0.3333 0.0000
1.1111 0.4444 0.0000
1.1111 0.5556 0.0000
1.1111 0.6667 0.0000
1.1111 0.7778 0.0000
1.1111 0.8889 0.0000
1.1111 1.0000 0.0000
1.3333 0.0000 0.0000
1.3333 0.1111 0.0000
1.3333 0.2222 0.0000
1.3333 0.3333 0.0000
1.3333 0.4444 0.0000
1.3333 0.5556 0.0000
1.3333 0.6667 0.0000
1.3333 0.7778 0.0000
1.3333 0.8889 0.0000
1.3333 1.0000 0.0000
1.5556 0.0000 0.0000
1.5556 0.1111 0.0000
1.5556 0.2222 0.0000
1.5556 0.3333 0.0000
1.5556 0.4444 0.0000
1.5556 0.5556 0.0000
1.5556 0.6667 0.0000
1.5556 0.7778 0.0000
1.5556 0.8889 0.0000
1.5556 1.0000 0.0000
1.7778 0.0000 0.0000
1.7778 0.1111 0.0000
1.7778 0.2222 0.0000
1.7778 0.3333 0.0000
1.7778 0.4444 0.0000
1.7778 0.5556 0.0000
1.7778 0.6667 0.0000
1.7778 0.7778 0.0000
1.7778 0.8889 0.0000
1.7778 1.0000 0.0000
2.0000 0.0000 0.0000
2.0000 0.1111 0.0000
2.0000 0.2222 0.0000
2.0000 0.3333 0.0000
2.0000 0.4444 0.0000
2.0000 0.5556 0.0000
2.0000 0.6667 0.0000
2.0000 0.7778 0.0000
2.0000 0.8889 0.0000
2.0000 1.0000 0.0000
0.1111 0.0556 0.0000
0.1111 0.1667 0.0000
0.1111 0.2778 0.0000
0.1111 0.3889 0.0000
0.1111 0.5000 0.0000
0.1111 0.6111 0.0000
0.1111 0.7222 0.0000
0.1111 0.8333 0.0000
0.1111 0.9444 0.0000
0.3333 0.0556 0.0000
0.3333 0.1667 0.0000
0.3333 0.2778 0.0000
0.3333 0.3889 0.0000
0.3333 0.5000 0.0000
0.3333 0.6111 0.0000
0.3333 0.7222 0.0000
0.3333 0.8333 0.0000
0.3333 0.9444 0.0000
0.5556 0.0556 0.0000
0.5556 0.1667 0.0000
0.5556 0.2778 0.0000
0.5556 0.3889 0.0000
0.5556 0.5000 0.0000
0.5556 0.6111 0.0000
0.5556 0.7222 0.0000
0.5556 0.8333 0.0000
0.5556 0.9444 0.0000
0.7778 0.0556 0.0000
0.7778 0.1667 0.0000
0.7778 0.2778 0.0000
0.7778 0.3889 0.0000
0.7778 0.5000 0.0000
0.7778 0.6111 0.0000
0.7778 0.7222 0.0000
0.7778 0.8333 0.0000
0.7778 0.9444 0.0000
1.0000 0.0556 0.0000
1.0000 0.1667 0.0000
1.0000 0.2778 0.0000
1.0000 0.3889 0.0000
1.0000 0.5000 0.0000
1.0000 0.6111 0.0000
1.0000 0.7222 0.0000
1.0000 0.8333 0.0000
1.0000 0.9444 0.0000
1.2222 0.0556 0.0000
1.2222 0.1667 0.0000
1.2222 0.2778 0.0000
1.2222 0.3889 0.0000
1.2222 0.5000 0.0000
1.2222 0.6111 0.0000
1.2222 0.7222 0.0000
1.2222 0.8333 0.0000
1.2222 0.9444 0.0000
1.4444 0.0556 0.0000
1.4444 0.1667 0.0000
1.4444 0.2778 0.0000
1.4444 0.3889 0.0000
1.4444 0.5000 0.0000
1.4444 0.6111 0.0000
1.4444 0.7222 0.0000
1.4444 0.8333 0.0000
1.4444 0.9444 0.0000
1.6667 0.0556 0.0000
1.6667 0.1667 0.0000
1.6667 0.2778 0.0000
1.6667 0.3889 0.0000
1.6667 0.5000 0.0000
1.6667 0.6111 0.0000
1.6667 0.7222 0.0000
1.6667 0.8333 0.0000
1.6667 0.9444 0.0000
1.8889 0.0556 0.0000
1.8889 0.1667 0.0000
1.8889 0.2778 0.0000
1.8889 0.3889 0.0000
1.8889 0.5000 0.0000
1.8889 0.6111 0.0000
1.8889 0.7222 0.0000
1.8889 0.8333 0.0000
1.8889 0.9444 0.0000
0.0000 0.0556 0.0000
0.0556 0.0278 0.0000
0.0556 0.0833 0.0000
0.0000 0.1667 0.0000
0.0556 0.1389 0.0000
0.0556 0.1944 0.0000
0.0000 0.2778 0.0000
0.0556 0.2500 0.0000
0.0556 0.3056 0.0000
0.0000 0.3889 0.0000
0.0556 0.3611 0.0000
0.0556 0.4167 0.0000
0.0000 0.5000 0.0000
0.0556 0.4722 0.0000
0.0556 0.5278 0.0000
0.0000 0.6111 0.0000
0.0556 0.5833 0.0000
0.0556 0.6389 0.0000
0.0000 0.7222 0.0000
0.0556 0.6944 0.0000
0.0556 0.7500 0.0000
0.0000 0.8333 0.0000
0.0556 0.8056 0.0000
0.0556 0.8611 0.0000
0.0000 0.9444 0.0000
0.0556 0.9167 0.0000
0.0556 0.9722 0.0000
0.2222 0.0556 0.0000
0.2778 0.0278 0.0000
0.2778 0.0833 0.0000
0.2222 0.1667 0.0000
0.2778 0.1389 0.0000
0.2778 0.1944 0.0000
0.2222 0.2778 0.0000
0.2778 0.2500 0.0000
0.2778 0.3056 0.0000
0.2222 0.3889 0.0000
0.2778 0.3611 0.0000
0.2778 0.4167 0.0000
0.2222 0.5000 0.0000
0.2778 0.4722 0.0000
0.2778 0.5278 0.0000
0.2222 0.6111 0.0000
0.2778 0.5833 0.0000
0.2778 0.6389 0.0000
0.2222 0.7222 0.0000
0.2778 0.6944 0.0000
0.2778 0.7500 0.0000
0.2222 0.8333 0.0000
0.2778 0.8056 0.0000
0.2778 0.8611 0.0000
0.2222 0.9444 0.0000
0.2778 0.9167 0.0000
0.2778 0.9722 0.0000
0.4444 0.0556 0.0000
0.5000 0.0278 0.0000
0.5000 0.0833 0.0000
0.4444 0.1667 0.0000
0.5000 0.1389 0.0000
0.5000 0.1944 0.0000
0.4444 0.2778 0.0000
0.5000 0.2500 0.0000
0.5000 0.3056 0.0000
0.4444 0.3889 0.0000
0.5000 0.3611 0.0000
0.5000 0.4167 0.0000
0.4444 0.5000 0.0000
0.5000 0.4722 0.0000
0.5000 0.5278 0.0000
0.4444 0.6111 0.0000
0.5000 0.5833 0.0000
0.5000 0.6389 0.0000
0.4444 0.7222 0.0000
0.5000 0.6944 0.0000
0.5000 0.7500 0.0000
0.4444 0.8333 0.0000
0.5000 0.8056 0.0000
0.5000 0.8611 0.0000
0.4444 0.9444 0.0000
0.5000 0.9167 0.0000
0.5000 0.9722 0.0000
0.6667 0.0556 0.0000
0.7222 0.0278 0.0000
0.7222 0.0833 0.0000
0.6667 0.1667 0.0000
0.7222 0.1389 0.0000
0.7222 0.1944 0.0000
0.6667 0.2778 0.0000
0.7222 0.2500 0.0000
0.7222 0.3056 0.0000
0.6667 0.3889 0.0000
0.7222 0.3611 0.0000
0.7222 0.4167 0.0000
0.6667 0.5000 0.0000
0.7222 0.4722 0.0000
0.7222 0.5278 0.0000
0.6667 0.6111 0.0000
0.7222 0.5833 0.0000
0.7222 0.6389 0.0000
0.6667 0.7222 0.0000
0.7222 0.6944 0.0000
0.7222 0.7500 0.0000
0.6667 0.8333 0.0000
0.7222 0.8056 0.0000
0.7222 0.8611 0.0000
0.6667 0.9444 0.0000
0.7222 0.9167 0.0000
0.7222 0.9722 0.0000
0.8889 0.0556 0.0000
0.9444 0.0278 0.0000
0.9444 0.0833 0.0000
0.8889 0.1667 0.0000
0.9444 0.1389 0.0000
0.9444 0.1944 0.0000
0.8889 0.2778 0.0000
0.9444 0.2500 0.0000
0.9444 0.3056 0.0000
0.8889 0.3889 0.0000
0.9444 0.3611 0.0000
0.9444 0.4167 0.0000
0.8889 0.5000 0.0000
0.9444 0.4722 0.0000
0.9444 0.5278 0.0000
0.8889 0.6111 0.0000
0.9444 0.5833 0.0000
0.9444 0.6389 0.0000
0.8889 0.7222 0.0000
0.9444 0.6944 0.0000
0.9444 0.7500 0.0000
0.8889 0.8333 0.0000
0.9444 0.8056 0.0000
0.9444 0.8611 0.0000
0.8889 0.9444 0.0000
0.9444 0.9167 0.0000
0.9444 0.9722 0.0000
1.1111 0.0556 0.0000
1.1667 0.0278 0.0000
1.1667 0.0833 0.0000
1.1111 0.1667 0.0000
1.1667 0.1389 0.0000
1.1667 0.1944 0.0000
1.1111 0.2778 0.0000
1.1667 0.2500 0.0000
1.1667 0.3056 0.0000
1.1111 0.3889 0.0000
1.1667 0.3611 0.0000
1.1667 0.4167 0.0000
1.1111 0.5000 0.0000
1.1667 0.4722 0.0000
1.1667 0.5278 0.0000
1.1111 0.6111 0.0000
1.1667 0.5833 0.0000
1.1667 0.6389 0.0000
1.1111 0.7222 0.0000
1.1667 0.6944 0.0000
1.1667 0.7500 0.0000
1.1111 0.8333 0.0000
1.1667 0.8056 0.0000
1.1667 0.8611 0.0000
1.1111 0.9444 0.0000
1.1667 0.9167 0.0000
1.1667 0.9722 0.0000
1.3333 0.0556 0.0000
1.3889 0.0278 0.0000
1.3889 0.0833 0.0000
1.3333 0.1667 0.0000
1.3889 0.1389 0.0000
1.3889 0.1944 0.0000
1.3333 0.2778 0.0000
1.3889 0.2500 0.0000
1.3889 0.3056 0.0000
1.3333 0.3889 0.0000
1.3889 0.3611 0.0000
1.3889 0.4167 0.0000
1.3333 0.5000 0.0000
1.3889 0.4722 0.0000
1.3889 0.5278 0.0000
1.3333 0.6111 0.0000
1.3889 0.5833 0.0000
1.3889 0.6389 0.0000
1.3333 0.7222 0.0000
1.3889 0.6944 0.0000
1.3889 0.7500 0.0000
1.3333 0.8333 0.0000
1.3889 0.8056 0.0000
1.3889 0.8611 0.0000
1.3333 0.9444 0.0000
1.3889 0.9167 0.0000
1.3889 0.9722 0.0000
1.5556 0.0556 0.0000
1.6111 0.0278 0.0000
1.6111 0.0833 0.0000
1.5556 0.1667 0.0000
1.6111 0.1389 0.0000
1.6111 0.1944 0.0000
1.5556 0.2778 0.0000
1.6111 0.2500 0.0000
1.6111 0.3056 0.0000
1.5556 0.3889 0.0000
1.6111 0.3611 0.0000
1.6111 0.4167 0.0000
1.5556 0.5000 0.0000
1.6111 0.4722 0.0000
1.6111 0.5278 0.0000
1.5556 0.6111 0.0000
1.6111 0.5833 0.0000
1.6111 0.6389 0.0000
1.5556 0.7222 0.0000
1.6111 0.6944 0.0000
1.6111 0.7500 0.0000
1.5556 0.8333 0.0000
1.6111 0.8056 0.0000
1.6111 0.8611 0.0000
1.5556 0.9444 0.0000
1.6111 0.9167 0.0000
1.6111 0.9722 0.0000
1.7778 0.0556 0.0000
1.8333 0.0278 0.0000
1.8333 0.0833 0.0000
1.7778 0.1667 0.0000
1.8333 0.1389 0.0000
1.8333 0.1944 0.0000
1.7778 0.2778 0.0000
1.8333 0.2500 0.0000
1.8333 0.3056 0.0000
1.7778 0.3889 0.0000
1.8333 0.3611 0.0000
1.8333 0.4167 0.0000
1.7778 0.5000 0.0000
1.8333 0.4722 0.0000
1.8333 0.5278 0.0000
1.7778 0.6111 0.0000
1.8333 0.5833 0.0000
1.8333 0.6389 0.0000
1.7778 0.7222 0.0000
1.8333 0.6944 0.0000
1.8333 0.7500 0.0000
1.7778 0.8333 0.0000
1.8333 0.8056 0.0000
1.8333 0.8611 0.0000
1.7778 0.9444 0.0000
1.8333 0.9167 0.0000
1.8333 0.9722 0.0000
0.1111 0.1111 0.0000
0.1667 0.0833 0.0000
0.1111 0.2222 0.0000
0.1667 0.1944 0.0000
0.1111 0.3333 0.0000
0.1667 0.3056 0.0000
0.1111 0.4444 0.0000
0.1667 0.4167 0.0000
0.1111 0.5556 0.0000
0.1667 0.5278 0.0000
0.1111 0.6667 0.0000
0.1667 0.6389 0.0000
0.1111 0.7778 0.0000
0.1667 0.7500 0.0000
0.1111 0.8889 0.0000
0.1667 0.8611 0.0000
0.1111 1.0000 0.0000
0.1667 0.9722 0.0000
0.3333 0.1111 0.0000
0.3889 0.0833 0.0000
0.3333 0.2222 0.0000
0.3889 0.1944 0.0000
0.3333 0.3333 0.0000
0.3889 0.3056 0.0000
0.3333 0.4444 0.0000
0.3889 0.4167 0.0000
0.3333 0.5556 0.0000
0.3889 0.5278 0.0000
0.3333 0.6667 0.0000
0.3889 0.6389 0.0000
0.3333 0.7778 0.0000
0.3889 0.7500 0.0000
0.3333 0.8889 0.0000
0.3889 0.8611 0.0000
0.3333 1.0000 0.0000
0.3889 0.9722 0.0000
0.5556 0.1111 0.0000
[...]
         <PointData>
            <DataArray Name="fValues" NumberOfComponents="3" format="ascii" type="Float64">
-7.56846e-26  3.56163e-26        00000 
-8.26308e-26 -6.62968e-26        00000 
-1.38930e-25  3.01695e-26        00000 
 2.06687e-25 -8.80333e-26        00000 
 1.63081e-26  1.58533e-25        00000 
 7.65507e-26  1.22481e-25        00000 
-1.20076e-25  1.34485e-26        00000 
-8.03055e-26 -6.88333e-26        00000 
-1.53769e-25  1.53769e-25        00000 
       00000  2.13698e-25        00000 
-2.89713e-10  2.72679e-09        00000 
-3.08615e-10  2.04005e-09        00000 
 1.21397e-09 -8.80525e-10        00000 
 1.31217e-10 -6.19203e-10        00000 
 6.51825e-11 -2.42537e-09        00000 
 5.95479e-11  1.00320e-09        00000 
 5.57656e-10  4.78644e-10        00000 
 1.35251e-09  6.81481e-10        00000 
-8.37730e-12 -1.00194e-10        00000 
 5.23078e-10  1.38611e-09        00000 
-2.41505e-10  3.50239e-09        00000 
 1.39752e-09  1.00341e-09        00000 
-2.41556e-10 -4.24762e-10        00000 
-3.00982e-09 -1.99501e-09        00000 
 8.32600e-10 -1.10839e-09        00000 
 5.60910e-10 -1.17240e-09        00000 
 4.02398e-10  9.92159e-10        00000 
 6.36092e-10 -7.83320e-10        00000 
 2.05908e-10  1.08478e-09        00000 
 1.58450e-09  2.83067e-09        00000 
 5.56655e-10  3.15396e-10        00000 
 3.02840e-10  4.58819e-10        00000 
 1.00301e-09  9.95033e-10        00000 
-2.15362e-09 -5.01871e-10        00000 
 1.53264e-09 -5.85697e-10        00000 
 1.59154e-09  5.81814e-10        00000 
-1.22597e-10  1.74623e-09        00000 
-1.17805e-09 -5.38058e-10        00000 
-1.09516e-10 -8.63469e-10        00000 
-6.51717e-10 -4.43450e-10        00000 
-1.84893e-09  5.27677e-10        00000 
 1.20218e-09  2.45644e-09        00000 
-3.20213e-10  4.40998e-11        00000 
-1.24379e-09 -7.52422e-10        00000 
-1.26363e-10  6.85382e-10        00000 
-1.86996e-09 -7.53960e-10        00000 
-1.32286e-09  1.41272e-09        00000 
-1.13809e-09 -2.34810e-10        00000 
-2.07382e-09 -9.71319e-10        00000 
-2.71187e-09  1.50322e-10        00000 
 1.37451e-09 -2.94648e-09        00000 
-1.04544e-09 -6.05887e-10        00000 
 3.87388e-10  1.63240e-10        00000 
-1.68839e-10  2.41002e-10        00000 
-4.37453e-10 -3.09981e-10        00000 
-2.11998e-10  3.89626e-10        00000 
-1.15240e-09  8.33829e-10        00000 
-8.91177e-10  7.28512e-10        00000 
-1.51378e-09  3.47669e-10        00000 
-1.78256e-09  3.90204e-09        00000 
 5.31273e-10 -1.25368e-09        00000 
-1.28071e-09  1.31877e-11        00000 
-3.27304e-10 -6.85390e-10        00000 
 7.08098e-10  1.64437e-09        00000 
 1.07030e-09  1.35164e-09        00000 
-1.24089e-10  3.20057e-10        00000 
 7.81029e-11  6.02206e-10        00000 
-1.63359e-09 -1.36779e-11        00000 
-1.68529e-09  8.82245e-10        00000 
 6.18328e-10  5.61857e-09        00000 
-1.84685e-09 -2.66061e-09        00000 
 6.68706e-10 -4.80540e-10        00000 
-3.28384e-10 -4.16478e-10        00000 
-2.74923e-10 -7.09392e-10        00000 
-3.27844e-10  6.33037e-10        00000 
-5.63915e-10  2.94804e-10        00000 
-8.53390e-10  1.18895e-09        00000 
-2.07393e-10  1.68890e-09        00000 
 4.00405e-10  1.84016e-10        00000 
-8.61345e-10 -9.47409e-10        00000 
-5.87619e-12 -1.97855e-09        00000 
-5.36488e-10 -3.55911e-10        00000 
-1.53636e-09  9.33227e-11        00000 
-3.33785e-10 -5.58060e-11        00000 
-1.52545e-09 -1.01551e-09        00000 
-9.46784e-10 -3.09512e-10        00000 
-1.64925e-09  2.17980e-10        00000 
-1.20195e-09  1.69807e-09        00000 
-1.98622e-09  2.14908e-09        00000 
-1.02048e-09 -8.83233e-10        00000 
-2.36014e-10  1.27494e-09        00000 
 5.28132e-10  4.81108e-10        00000 
 1.29006e-09 -6.21156e-11        00000 
 4.23768e-10 -1.85594e-11        00000 
 1.08173e-09 -9.32815e-10        00000 
-8.85052e-11 -3.49587e-11        00000 
-1.16586e-10  1.41272e-09        00000 
-5.27905e-10  4.49347e-10        00000 
 8.28095e-10 -5.51069e-10        00000 
-1.79946e-09  5.20174e-10        00000 
 1.36161e-10 -4.67423e-10        00000 
 4.61505e-10  3.51252e-11        00000 
 1.26652e-09 -1.05190e-10        00000 
-2.75939e-11  1.52243e-09        00000 
-3.11745e-10  7.52166e-10        00000 
-7.18525e-10  1.93017e-10        00000 
-5.89707e-10  6.59364e-10        00000 
-4.00589e-10  9.62506e-10        00000 
 9.80485e-10 -1.74794e-11        00000 
-9.83017e-10 -1.18892e-09        00000 
 1.40630e-09  5.64501e-10        00000 
 9.52230e-10 -2.09065e-10        00000 
 5.66441e-10 -5.08376e-11        00000 
 5.39305e-10 -2.51973e-10        00000 
-1.55957e-10  8.06223e-10        00000 
 7.59005e-10  8.48674e-10        00000 
-5.48305e-10 -3.06462e-10        00000 
-1.46986e-10 -5.35749e-10        00000 
 1.14167e-09 -3.32534e-11        00000 
 6.58247e-11 -1.22061e-10        00000 
-7.70392e-10  5.81544e-11        00000 
-1.37419e-10 -6.18659e-10        00000 
-3.42588e-10  1.00195e-09        00000 
 2.28966e-09  3.51790e-10        00000 
 1.61216e-09 -1.60790e-09        00000 
 1.08972e-09 -7.18011e-10        00000 
 9.24793e-10 -1.36460e-09        00000 
-1.11329e-09 -3.52799e-10        00000 
 1.04517e-09  2.04187e-09        00000 
 2.09766e-10  9.99488e-10        00000 
 1.25094e-09  1.49911e-09        00000 
-9.44624e-10  1.18941e-09        00000 
 1.54023e-09  1.91930e-09        00000 
 2.41575e-09  1.08062e-09        00000 
 1.80520e-10 -5.44905e-10        00000 
 4.83169e-12 -1.07036e-10        00000 
 1.90052e-10  1.18149e-09        00000 
 2.68159e-09  1.97850e-09        00000 
 3.48393e-10  6.13170e-10        00000 
 6.82988e-10 -4.93436e-10        00000 
 8.81400e-10  1.35326e-09        00000 
 2.93971e-09  2.90783e-09        00000 
 1.00134e-09  2.05417e-09        00000 
 4.37979e-10  1.20487e-09        00000 
 4.66954e-10  6.13952e-10        00000 
-6.86930e-10  8.51060e-10        00000 
-4.43976e-10 -1.07075e-09        00000 
 9.10916e-10 -3.87026e-10        00000 
 1.24859e-09 -2.58062e-10        00000 
 6.62396e-10  1.02688e-09        00000 
 9.60938e-11  9.32602e-10        00000 
-1.71070e-09  3.95275e-10        00000 
-2.26834e-10  2.05034e-10        00000 
-9.09409e-10 -2.13697e-09        00000 
 9.76861e-10 -3.98586e-10        00000 
-1.98762e-09 -1.56918e-09        00000 
-3.76332e-10 -4.82331e-10        00000 
 7.68864e-10 -1.47509e-11        00000 
-5.49477e-10  3.17542e-10        00000 
-2.27459e-09  3.92930e-10        00000 
-1.02295e-09 -4.01613e-10        00000 
-1.35898e-09  9.36438e-10        00000 
-1.58201e-09 -5.78595e-10        00000 
-4.37435e-10  2.13504e-09        00000 
 2.98883e-10  5.15911e-10        00000 
-6.26187e-10  1.62102e-09        00000 
-8.03936e-10  1.01382e-09        00000 
 5.78041e-10  1.14760e-09        00000 
-1.48185e-09  1.03425e-09        00000 
 1.68200e-10  1.49639e-09        00000 
 8.17352e-10  1.42805e-09        00000 
-1.15620e-10  2.17440e-09        00000 
-2.47298e-10  8.03084e-10        00000 
 2.71598e-10  2.55656e-09        00000 
 6.72969e-10  1.55576e-09        00000 
 4.43777e-10  1.97328e-09        00000 
-4.64354e-10  1.91379e-09        00000 
-1.60236e-09  9.71127e-10        00000 
-1.27557e-10  2.18914e-09        00000 
 4.61000e-11  2.32771e-09        00000 
 3.70960e-10  7.83160e-10        00000 
 1.40315e-25  1.41142e-25        00000 
-2.47269e-12 -1.24837e-09        00000 
 9.76634e-10  1.76197e-10        00000 
-1.51328e-25 -6.31894e-26        00000 
 1.35477e-09 -4.76234e-10        00000 
 6.93268e-11  1.31422e-10        00000 
 1.01782e-25 -8.72417e-26        00000 
 2.64927e-10  2.79496e-10        00000 
 1.12137e-09 -5.89898e-10        00000 
 1.86306e-25  6.08195e-26        00000 
 2.13967e-10 -7.92060e-11        00000 
 9.36859e-10  1.59874e-09        00000 
-4.65289e-25  8.72417e-26        00000 
 1.70728e-09 -3.03278e-10        00000 
-1.59198e-10  8.48958e-10        00000 
 6.36335e-26 -6.04026e-26        00000 
 2.43805e-10 -7.54896e-10        00000 
-1.41482e-09 -3.25591e-10        00000 
-1.45403e-26 -8.72417e-26        00000 
 2.49284e-10  5.89480e-10        00000 
-1.30167e-10 -5.65830e-10        00000 
-1.74483e-25  2.90806e-25        00000 
-6.47361e-10 -5.24092e-10        00000 
-6.87545e-10  7.39336e-10        00000 
 1.19079e-25 -1.95013e-25        00000 
-6.40269e-10 -6.25273e-11        00000 
-1.09997e-10 -1.01482e-09        00000 
-1.33945e-09 -1.61764e-11        00000 
 7.38691e-10 -2.71751e-09        00000 
 7.49765e-11  1.02392e-09        00000 
 3.82942e-10 -1.16897e-09        00000 
 7.34946e-10  1.07852e-09        00000 
-1.21647e-09 -7.31071e-10        00000 
 5.47413e-10 -1.48340e-09        00000 
 8.54143e-10  1.43548e-09        00000 
 1.94532e-09 -6.75135e-10        00000 
 9.53831e-10  9.53136e-10        00000 
 2.35635e-09 -1.54824e-09        00000 
 5.54142e-10 -1.58498e-09        00000 
-1.25937e-10 -8.65965e-11        00000 
 4.76778e-10 -2.61752e-10        00000 
 9.41231e-10  7.28981e-10        00000 
-3.18957e-10  1.08953e-09        00000 
 1.10624e-09 -5.85423e-10        00000 
 5.71298e-10 -4.18519e-10        00000 
 5.89798e-10 -1.12513e-09        00000 
 1.39712e-09 -1.57297e-10        00000 
 1.45345e-09  1.35789e-09        00000 
 4.24558e-11  2.76679e-10        00000 
 1.68308e-09  7.69720e-10        00000 
-7.46564e-10 -1.74977e-09        00000 
 7.62007e-10  9.68285e-10        00000 
 6.17256e-10  9.20840e-10        00000 
 7.18067e-10 -1.52816e-09        00000 
 1.10737e-09 -6.53568e-10        00000 
 2.13768e-09 -2.22127e-09        00000 
 1.82266e-09  1.02137e-09        00000 
 4.92044e-10 -1.23770e-09        00000 
-2.80075e-10 -2.83144e-10        00000 
-1.04880e-09 -4.44651e-10        00000 
-1.43905e-09  6.38641e-10        00000 
-1.79277e-10  3.34897e-10        00000 
 4.39620e-10 -3.66635e-10        00000 
 5.82510e-10  4.28322e-10        00000 
 7.80481e-10 -1.10193e-09        00000 
-3.01497e-10 -7.43963e-10        00000 
-8.08349e-11  4.43510e-10        00000 
-2.44339e-09 -1.33373e-09        00000 
-2.07521e-10 -2.83100e-10        00000 
-2.32898e-10 -4.43107e-10        00000 
-3.00801e-10 -1.09483e-09        00000 
 5.48070e-10  1.03509e-09        00000 
-3.37771e-10 -1.59789e-09        00000 
-7.41181e-10 -2.66483e-09        00000 
-1.31855e-09 -1.05555e-09        00000 
-2.14854e-10 -6.81350e-10        00000 
 5.75731e-10  3.34321e-10        00000 
 5.15726e-10  8.24272e-10        00000 
-9.34136e-10  2.62460e-09        00000 
 1.57297e-09  1.20901e-09        00000 
 1.67150e-09 -1.92085e-09        00000 
-5.40943e-10  5.12905e-10        00000 
-1.54898e-12  1.04424e-09        00000 
 1.19201e-09 -2.96779e-10        00000 
 1.03284e-10 -1.24331e-10        00000 
 5.15669e-10  7.78073e-10        00000 
 2.20716e-09  1.71091e-09        00000 
-1.29016e-09 -5.22373e-10        00000 
 9.24899e-10  9.89182e-10        00000 
 7.59997e-10  4.27100e-10        00000 
 5.27926e-10  9.97527e-10        00000 
 9.00144e-10  1.82906e-09        00000 
 4.36827e-10  1.84777e-11        00000 
-7.56572e-10  5.45349e-10        00000 
 7.00410e-10  2.54051e-09        00000 
-1.23748e-10  5.43018e-10        00000 
-1.36676e-09  8.61519e-10        00000 
-2.75946e-10 -3.82098e-10        00000 
-8.81073e-11  1.13575e-09        00000 
-1.48663e-09 -3.73568e-10        00000 
 2.20169e-10  1.02781e-09        00000 
-6.89425e-10 -8.71587e-11        00000 
-1.03452e-09 -3.66956e-10        00000 
-6.13340e-10  7.46574e-10        00000 
-2.19316e-10  5.94291e-10        00000 
-1.26140e-09  9.92955e-10        00000 
 2.32360e-09 -6.82085e-10        00000 
 2.59458e-09  1.93981e-09        00000 
-3.13632e-09 -2.16594e-09        00000 
 2.86164e-10 -2.33632e-09        00000 
-1.55846e-09  2.16657e-09        00000 
 1.01092e-09  7.76623e-10        00000 
 9.88365e-11  7.57282e-10        00000 
-1.57934e-09  1.31012e-09        00000 
 3.17158e-10  2.40593e-10        00000 
 7.48202e-11  9.34477e-10        00000 
 5.13865e-10 -2.28958e-10        00000 
-1.73657e-11  8.53134e-10        00000 
 1.23089e-09 -1.17289e-10        00000 
-2.29369e-09 -1.40943e-09        00000 
-1.40471e-09  1.13506e-10        00000 
-1.30228e-10  6.41990e-10        00000 
-1.24543e-09 -8.15184e-10        00000 
-2.87130e-10  9.91918e-12        00000 
 2.11841e-10  3.19247e-11        00000 
 2.60908e-09  1.07016e-09        00000 
 2.16659e-10 -1.21531e-10        00000 
 1.18922e-09  8.80846e-10        00000 
 1.77101e-09  1.94002e-09        00000 
-1.76655e-10  2.53209e-10        00000 
-1.97389e-10  1.90894e-10        00000 
 7.25876e-10 -7.00716e-10        00000 
 2.52172e-10  1.02174e-09        00000 
 8.25054e-10  2.87322e-10        00000 
 4.08718e-10  1.63783e-09        00000 
-7.21229e-10  8.95639e-10        00000 
 1.09202e-09  2.99121e-09        00000 
-1.06326e-10 -1.80311e-09        00000 
 7.59798e-10 -1.18483e-10        00000 
-3.64963e-10  4.46121e-10        00000 
-3.20455e-10  1.91385e-10        00000 
 6.59455e-10  2.02917e-10        00000 
-2.11770e-10  9.80286e-10        00000 
 4.67566e-10  2.01240e-10        00000 
-8.94289e-11  2.28241e-10        00000 
 2.56506e-10  3.77867e-11        00000 
-5.28644e-12 -1.68106e-09        00000 
-8.67701e-10 -5.01302e-10        00000 
 3.05505e-10  2.11742e-10        00000 
 4.72880e-10 -1.94966e-10        00000 
 4.62023e-10  4.76277e-10        00000 
 5.11307e-10  4.69846e-10        00000 
 8.03340e-10  7.39931e-10        00000 
-1.81672e-10  3.47129e-10        00000 
-8.51713e-10  3.77831e-10        00000 
-1.12178e-09  2.03862e-10        00000 
-3.83125e-11  6.00302e-10        00000 
-1.04060e-09  1.96145e-10        00000 
 4.07681e-10  1.98561e-10        00000 
-6.06136e-10  7.79806e-10        00000 
-4.40593e-10  1.77156e-09        00000 
-2.50509e-10 -3.89690e-09        00000 
-1.28131e-09  1.31930e-09        00000 
 9.64718e-10  3.14674e-09        00000 
-3.77412e-10  1.29148e-10        00000 
-1.46895e-09  1.53884e-09        00000 
-2.29932e-10 -5.77188e-10        00000 
 1.19030e-10  1.38670e-09        00000 
-1.53267e-09  4.71175e-10        00000 
 5.33760e-11 -8.00384e-10        00000 
-3.63713e-10  1.54400e-09        00000 
-1.57900e-09 -1.91078e-09        00000 
 1.28003e-09  8.10104e-10        00000 
 3.72239e-10  1.30329e-09        00000 
-1.17868e-09  1.30115e-10        00000 
 1.67057e-09  1.07549e-09        00000 
 6.00693e-10 -9.42819e-10        00000 
-1.03554e-09  2.37712e-10        00000 
 6.60521e-11  3.02039e-09        00000 
 1.27235e-09  3.46446e-10        00000 
-1.74018e-09  1.42319e-09        00000 
 5.80371e-10  2.83961e-09        00000 
-1.94515e-09  7.96661e-11        00000 
-3.15700e-09  1.51527e-09        00000 
 1.64675e-10  4.44487e-10        00000 
 6.20503e-10  1.23384e-09        00000 
-1.40756e-09 -5.71276e-10        00000 
 1.36961e-09  1.56791e-09        00000 
-1.23066e-10 -3.58773e-09        00000 
 1.34196e-09  1.52839e-09        00000 
-2.59092e-10  4.11148e-09        00000 
-6.00949e-10 -1.33652e-09        00000 
 1.92941e-09  3.39000e-10        00000 
-4.71687e-10  1.92222e-09        00000 
-2.29846e-10  2.20709e-10        00000 
 1.50933e-09  1.16283e-09        00000 
-1.74273e-09 -3.93925e-11        00000 
 2.69779e-10  7.94174e-10        00000 
 8.43812e-10  4.57675e-10        00000 
 4.39570e-10  3.09001e-10        00000 
-6.59554e-10  1.48395e-09        00000 
-5.06589e-10 -3.80552e-10        00000 
-6.52705e-10 -8.25793e-10        00000 
 1.92614e-10  1.49815e-09        00000 
-8.23718e-10 -5.66729e-10        00000 
-2.00203e-10 -5.44020e-10        00000 
 9.61506e-10 -3.74541e-10        00000 
 1.09623e-09  2.37057e-09        00000 
 1.54753e-09  7.59684e-10        00000 
 2.48181e-09 -2.49116e-11        00000 
-8.50235e-10 -4.31584e-10        00000 
 1.17979e-10 -1.35358e-10        00000 
-4.55827e-10  1.17875e-09        00000 
-1.57209e-09  5.59126e-10        00000 
-6.30024e-10 -1.79881e-10        00000 
 8.12577e-10  1.60117e-09        00000 
-9.15350e-10 -2.21974e-10        00000 
 2.96836e-10  1.50487e-09        00000 
 2.48656e-09 -8.30838e-10        00000 
-1.86742e-09 -4.58428e-10        00000 
 1.75902e-09 -2.17568e-11        00000 
 1.96746e-09 -4.98702e-10        00000 
-1.30865e-09  2.82114e-10        00000 
 7.36520e-10  9.09708e-10        00000 
 6.57565e-10 -1.63993e-10        00000 
-3.32705e-10  1.87953e-10        00000 
-6.85020e-10 -8.38355e-10        00000 
-2.81375e-11 -2.46644e-10        00000 
-2.23110e-10  9.65585e-10        00000 
-9.63894e-10  2.22826e-11        00000 
 1.17268e-10  2.59575e-10        00000 
 1.16529e-10  1.04889e-09        00000 
-3.94607e-10 -1.57428e-10        00000 
 7.22082e-10  3.43903e-10        00000 
-3.27191e-10  2.74865e-09        00000 
-4.95561e-10 -2.97959e-10        00000 
 2.02624e-09  1.69761e-09        00000 
-1.23896e-09  2.12040e-09        00000 
 2.39311e-11  1.83690e-10        00000 
 2.26788e-09  1.58275e-09        00000 
-9.21148e-10  2.26720e-10        00000 
 1.15676e-10 -7.96092e-11        00000 
-6.93490e-10  6.22435e-10        00000 
-1.71754e-09  4.57545e-12        00000 
-6.06624e-10 -1.07221e-09        00000 
 7.44771e-10 -7.02060e-10        00000 
 1.03031e-09 -1.22407e-09        00000 
 5.79060e-10  6.41619e-10        00000 
 2.62764e-10 -6.93381e-10        00000 
 1.31078e-10  6.78543e-10        00000 
 8.13987e-10  4.77312e-10        00000 
 3.84693e-10  1.13301e-09        00000 
 1.27590e-09  4.99943e-10        00000 
 8.39223e-10  1.61505e-09        00000 
 6.90689e-10  4.50262e-10        00000 
 1.19969e-09 -5.34174e-10        00000 
-2.27011e-10 -1.49534e-10        00000 
 4.97280e-10  2.94005e-10        00000 
 9.65417e-10  3.53872e-10        00000 
 1.58925e-09  7.15140e-10        00000 
 1.99404e-10 -1.78854e-10        00000 
 7.63208e-10  1.46999e-09        00000 
 1.55338e-09  9.83206e-10        00000 
 2.76113e-10  2.02356e-09        00000 
 8.64155e-10 -5.74580e-10        00000 
 4.38387e-10  2.74363e-09        00000 
 1.26592e-09  4.23604e-10        00000 
 9.81615e-10  2.13950e-09        00000 
 1.41500e-09 -6.65352e-11        00000 
 9.57112e-10  2.15088e-09        00000 
 8.47963e-10  4.88598e-10        00000 
 4.87820e-10  1.46110e-09        00000 
-3.33189e-10  1.30044e-10        00000 
 1.30961e-09  1.64244e-09        00000 
-2.23106e-10  6.04842e-10        00000 
 5.22782e-11 -6.56399e-10        00000 
-1.71354e-10 -1.14606e-09        00000 
 1.56358e-10  1.29788e-09        00000 
 1.69080e-09 -1.91983e-09        00000 
 3.44833e-10  8.20432e-10        00000 
 5.55834e-10 -3.25457e-10        00000 
 1.00709e-09 -2.87386e-10        00000 
-6.73015e-10  1.13130e-09        00000 
-7.51939e-10  1.97275e-09        00000 
 5.16964e-10  7.85036e-10        00000 
-7.40833e-10 -1.16722e-09        00000 
 1.09433e-09 -1.10943e-09        00000 
 1.28660e-09 -1.78545e-10        00000 
 1.93124e-09  1.36600e-09        00000 
 5.15655e-10 -6.02409e-10        00000 
 1.39215e-09  5.28019e-10        00000 
 1.58904e-09 -7.33380e-10        00000 
-1.05582e-10 -4.73534e-10        00000 
 6.99131e-10  2.73971e-10        00000 
 8.87727e-10 -1.07877e-09        00000 
 2.37784e-09  4.05691e-10        00000 
 3.94739e-10  1.00067e-09        00000 
 3.06059e-10  6.52562e-10        00000 
 7.68180e-10 -1.65920e-09        00000 
 1.63197e-09  6.39947e-10        00000 
-9.75734e-10  1.54873e-09        00000 
 1.19857e-09  9.46848e-10        00000 
-3.21164e-10  1.68171e-10        00000 
 9.05700e-10 -1.96661e-09        00000 
-1.41854e-09 -1.69575e-09        00000 
 1.02223e-09 -1.12126e-09        00000 
 1.49035e-11 -2.00174e-10        00000 
 7.35469e-10 -1.11097e-10        00000 
-1.38107e-09 -1.68995e-10        00000 
-1.57186e-10 -2.07989e-09        00000 
-9.21865e-10 -2.21462e-10        00000 
-1.75640e-09  2.64855e-10        00000 
-2.18421e-10 -1.33068e-09        00000 
 1.20403e-09 -2.84882e-09        00000 
 7.40432e-10  1.45522e-09        00000 
-3.31397e-10  8.20528e-10        00000 