<?xml version="1.0" encoding="utf-8"?>
<VTKFile byte_order="LittleEndian" type="UnstructuredGrid" version="0.1">
   <UnstructuredGrid>
      <Piece NumberOfCells="256" NumberOfPoints="145">
         <Points>
            <DataArray Name="Points" NumberOfComponents="3" format="ascii" type="Float32">
0.0000 0.0000 0.0000
0.0000 2.0000 0.0000
2.0000 0.0000 0.0000
2.0000 2.0000 0.0000
1.0000 1.0000 0.0000
0.0000 1.0000 0.0000
0.5000 0.5000 0.0000
0.5000 1.5000 0.0000
1.0000 2.0000 0.0000
1.5000 1.5000 0.0000
2.0000 1.0000 0.0000
1.5000 0.5000 0.0000
1.0000 0.0000 0.0000
0.5000 0.0000 0.0000
0.7500 0.2500 0.0000
0.2500 0.2500 0.0000
0.0000 0.5000 0.0000
0.2500 0.7500 0.0000
0.2500 1.2500 0.0000
0.5000 1.0000 0.0000
1.7500 0.7500 0.0000
1.7500 1.2500 0.0000
1.5000 1.0000 0.0000
0.0000 1.5000 0.0000
0.2500 1.7500 0.0000
0.5000 2.0000 0.0000
0.7500 1.7500 0.0000
1.7500 1.7500 0.0000
1.5000 2.0000 0.0000
1.2500 1.7500 0.0000
1.2500 1.2500 0.0000
1.0000 1.5000 0.0000
0.7500 1.2500 0.0000
1.2500 0.7500 0.0000
0.7500 0.7500 0.0000
1.0000 0.5000 0.0000
2.0000 1.5000 0.0000
1.2500 0.2500 0.0000
1.7500 0.2500 0.0000
2.0000 0.5000 0.0000
1.5000 0.0000 0.0000
0.1250 1.1250 0.0000
0.1250 0.8750 0.0000
0.2500 1.0000 0.0000
0.1250 0.6250 0.0000
0.1250 0.3750 0.0000
0.2500 0.5000 0.0000
0.1250 1.8750 0.0000
0.0000 1.7500 0.0000
0.1250 1.6250 0.0000
0.8750 0.6250 0.0000
1.0000 0.7500 0.0000
0.8750 0.8750 0.0000
0.2500 2.0000 0.0000
0.3750 1.8750 0.0000
0.5000 0.2500 0.0000
0.6250 0.1250 0.0000
0.6250 0.3750 0.0000
1.0000 1.2500 0.0000
1.1250 1.1250 0.0000
1.1250 1.3750 0.0000
0.8750 1.3750 0.0000
0.8750 1.1250 0.0000
0.8750 0.3750 0.0000
0.8750 0.1250 0.0000
1.0000 0.2500 0.0000
1.6250 0.6250 0.0000
1.6250 0.8750 0.0000
1.5000 0.7500 0.0000
1.0000 1.7500 0.0000
0.8750 1.8750 0.0000
0.8750 1.6250 0.0000
1.1250 0.6250 0.0000
1.1250 0.3750 0.0000
1.2500 0.5000 0.0000
0.7500 0.0000 0.0000
1.3750 0.1250 0.0000
1.1250 0.1250 0.0000
1.2500 0.0000 0.0000
1.3750 0.8750 0.0000
1.3750 0.6250 0.0000
0.7500 0.5000 0.0000
0.1250 0.1250 0.0000
0.2500 0.0000 0.0000
0.3750 0.1250 0.0000
0.6250 0.6250 0.0000
0.6250 1.1250 0.0000
0.6250 1.3750 0.0000
0.5000 1.2500 0.0000
0.6250 0.8750 0.0000
0.5000 0.7500 0.0000
0.0000 0.2500 0.0000
0.3750 0.3750 0.0000
0.3750 0.6250 0.0000
0.0000 0.7500 0.0000
0.3750 1.1250 0.0000
0.3750 0.8750 0.0000
0.6250 1.8750 0.0000
0.5000 1.7500 0.0000
0.6250 1.6250 0.0000
0.0000 1.2500 0.0000
0.1250 1.3750 0.0000
0.3750 1.6250 0.0000
0.2500 1.5000 0.0000
0.3750 1.3750 0.0000
0.7500 2.0000 0.0000
0.7500 1.5000 0.0000
1.1250 0.8750 0.0000
0.7500 1.0000 0.0000
1.5000 1.2500 0.0000
1.3750 1.3750 0.0000
1.3750 1.1250 0.0000
1.1250 1.8750 0.0000
1.1250 1.6250 0.0000
1.2500 1.5000 0.0000
1.5000 1.7500 0.0000
1.3750 1.8750 0.0000
1.3750 1.6250 0.0000
1.2500 2.0000 0.0000
1.6250 1.6250 0.0000
1.6250 1.8750 0.0000
1.7500 2.0000 0.0000
1.8750 1.8750 0.0000
1.8750 1.6250 0.0000
2.0000 1.7500 0.0000
1.6250 1.1250 0.0000
1.6250 1.3750 0.0000
1.7500 1.5000 0.0000
1.8750 1.1250 0.0000
1.7500 1.0000 0.0000
1.8750 0.8750 0.0000
1.8750 1.3750 0.0000
2.0000 1.2500 0.0000
1.8750 0.6250 0.0000
2.0000 0.7500 0.0000
1.2500 1.0000 0.0000
1.3750 0.3750 0.0000
1.5000 0.2500 0.0000
1.7500 0.5000 0.0000
1.6250 0.3750 0.0000
1.8750 0.3750 0.0000
1.8750 0.1250 0.0000
2.0000 0.2500 0.0000
1.6250 0.1250 0.0000
1.7500 0.0000 0.0000</DataArray>
         </Points>
         <Cells>
            <DataArray Name="connectivity" format="ascii" type="Int32">
 63 65 35
 81 85 57
 9 110 109
 60 58 59
 136 137 11
 66 20 67
 20 129 67
 68 11 66
 66 138 20
 74 80 33
 55 57 6
 92 46 15
 64 65 63
 64 63 14
 56 75 14
 77 73 65
 34 52 108
 45 16 91
 50 35 51
 57 85 6
 44 17 42
 17 96 43
 93 96 17
 96 93 90
 88 19 86
 30 114 60
 19 96 90
 50 34 81
 34 89 85
 73 74 72
 4 58 62
 117 114 110
 60 59 30
 69 71 31
 71 106 61
 120 115 119
 127 126 21
 116 115 28
 127 119 126
 115 117 9
 133 20 138
 122 27 123
 133 138 140
 110 30 111
 129 20 130
 77 37 73
 138 139 38
 138 66 139
 66 11 139
 11 68 80
 40 137 76
 78 37 77
 140 142 39
 144 143 40
 82 0 83
 13 56 55
 91 0 82
 45 46 44
 44 94 16
 15 46 45
 93 17 46
 82 45 91
 82 83 15
 82 15 45
 84 13 55
 75 56 13
 92 6 93
 12 65 64
 75 64 14
 75 12 64
 14 57 56
 14 81 57
 84 55 92
 56 57 55
 84 92 15
 55 6 92
 83 84 15
 83 13 84
 81 34 85
 99 106 26
 50 52 34
 107 33 135
 63 50 81
 35 72 51
 61 62 58
 52 51 4
 89 108 86
 52 62 108
 62 32 108
 42 94 44
 90 89 19
 34 108 89
 86 19 89
 41 43 18
 85 90 6
 85 89 90
 92 93 46
 6 90 93
 45 44 16
 46 17 44
 7 104 88
 17 43 42
 42 5 94
 42 43 41
 96 19 95
 41 100 5
 42 41 5
 43 96 95
 41 18 101
 98 99 97
 54 24 102
 41 101 100
 18 103 101
 101 23 100
 101 103 49
 101 49 23
 8 69 112
 49 48 23
 104 103 18
 49 47 48
 48 47 1
 49 103 24
 47 53 1
 47 24 53
 47 49 24
 99 98 7
 24 103 102
 103 104 102
 106 32 61
 98 54 102
 53 24 54
 54 25 53
 97 105 25
 105 97 26
 25 54 98
 7 98 102
 97 25 98
 87 32 106
 26 97 99
 60 31 58
 95 19 88
 31 71 61
 99 7 87
 32 87 86
 106 99 87
 88 104 95
 18 43 95
 95 104 18
 7 102 104
 87 88 86
 87 7 88
 108 32 86
 62 61 32
 107 135 59
 109 125 126
 135 111 30
 111 22 109
 59 135 30
 79 68 22
 9 117 110
 114 30 110
 113 60 114
 113 31 60
 58 31 61
 113 112 69
 113 69 31
 26 106 71
 8 70 69
 70 71 69
 26 70 105
 26 71 70
 70 8 105
 112 118 8
 112 29 118
 113 29 112
 113 114 29
 116 117 115
 29 114 117
 29 116 118
 29 117 116
 28 120 121
 28 115 120
 118 116 28
 122 3 121
 120 27 121
 123 131 36
 122 124 3
 121 27 122
 120 119 27
 122 123 124
 27 119 127
 123 127 131
 123 27 127
 119 9 126
 119 115 9
 9 109 126
 110 111 109
 127 21 131
 126 125 21
 123 36 124
 131 132 36
 131 21 128
 131 128 132
 21 125 129
 128 10 132
 130 20 133
 10 130 134
 128 130 10
 129 125 67
 22 67 125
 68 66 67
 128 129 130
 128 21 129
 109 22 125
 111 79 22
 4 107 59
 79 111 135
 51 107 4
 33 79 135
 58 4 59
 62 52 4
 72 33 107
 74 37 136
 50 51 52
 72 107 51
 33 80 79
 33 72 74
 22 68 67
 79 80 68
 76 136 37
 11 80 136
 35 73 72
 136 80 74
 50 63 35
 81 14 63
 77 65 12
 65 73 35
 37 74 73
 76 78 40
 77 12 78
 78 76 37
 40 143 137
 144 38 143
 137 136 76
 140 38 141
 139 143 38
 139 137 143
 139 11 137
 133 140 39
 138 38 140
 134 133 39
 134 130 133
 142 141 2
 142 140 141
 141 144 2
 141 38 144</DataArray>
            <DataArray Name="offsets" format="ascii" type="Int32">3 6 9 12 15 18 21 24 27 30 33 36 39 42 45 48 51 54 57 60 63 66 69 72 75 78 81 84 87 90 93 96 99 102 105 108 111 114 117 120 123 126 129 132 135 138 141 144 147 150 153 156 159 162 165 168 171 174 177 180 183 186 189 192 195 198 201 204 207 210 213 216 219 222 225 228 231 234 237 240 243 246 249 252 255 258 261 264 267 270 273 276 279 282 285 288 291 294 297 300 303 306 309 312 315 318 321 324 327 330 333 336 339 342 345 348 351 354 357 360 363 366 369 372 375 378 381 384 387 390 393 396 399 402 405 408 411 414 417 420 423 426 429 432 435 438 441 444 447 450 453 456 459 462 465 468 471 474 477 480 483 486 489 492 495 498 501 504 507 510 513 516 519 522 525 528 531 534 537 540 543 546 549 552 555 558 561 564 567 570 573 576 579 582 585 588 591 594 597 600 603 606 609 612 615 618 621 624 627 630 633 636 639 642 645 648 651 654 657 660 663 666 669 672 675 678 681 684 687 690 693 696 699 702 705 708 711 714 717 720 723 726 729 732 735 738 741 744 747 750 753 756 759 762 765 768 </DataArray>
            <DataArray Name="types" format="ascii" type="UInt8">5 5 5 5 5 5 5 5 5 5 5 5 5 5 5 5 5 5 5 5 5 5 5 5 5 5 5 5 5 5 5 5 5 5 5 5 5 5 5 5 5 5 5 5 5 5 5 5 5 5 5 5 5 5 5 5 5 5 5 5 5 5 5 5 5 5 5 5 5 5 5 5 5 5 5 5 5 5 5 5 5 5 5 5 5 5 5 5 5 5 5 5 5 5 5 5 5 5 5 5 5 5 5 5 5 5 5 5 5 5 5 5 5 5 5 5 5 5 5 5 5 5 5 5 5 5 5 5 5 5 5 5 5 5 5 5 5 5 5 5 5 5 5 5 5 5 5 5 5 5 5 5 5 5 5 5 5 5 5 5 5 5 5 5 5 5 5 5 5 5 5 5 5 5 5 5 5 5 5 5 5 5 5 5 5 5 5 5 5 5 5 5 5 5 5 5 5 5 5 5 5 5 5 5 5 5 5 5 5 5 5 5 5 5 5 5 5 5 5 5 5 5 5 5 5 5 5 5 5 5 5 5 5 5 5 5 5 5 5 5 5 5 5 5 5 5 5 5 5 5 5 5 5 5 5 5 </DataArray>
         </Cells>
         <PointData>
            <DataArray Name="fValues" NumberOfComponents="3" format="ascii" type="Float64">
       00000        00000        00000 
-4.80741e-17 -4.80741e-17        00000 
-7.21111e-17 -4.56607e+00        00000 
 2.48672e+00 -5.67152e+00        00000 
 1.21420e-01 -2.10132e+00        00000 
-8.06508e-19 -1.29041e-17        00000 
 5.60960e-17 -8.64631e-01        00000 
 2.77342e-01 -8.65134e-01        00000 
 1.67283e+00 -2.26772e+00        00000 
 8.90023e-01 -3.59832e+00        00000 
 1.51058e-01 -4.96210e+00        00000 
-3.99728e-01 -3.62677e+00        00000 
-1.18362e+00 -2.26237e+00        00000 
-8.26356e-01 -1.01088e+00        00000 
-5.35895e-01 -1.56372e+00        00000 
-1.29345e-01 -3.47985e-01        00000 
-4.44378e-18  5.96765e-17        00000 
 1.73394e-18 -4.02253e-01        00000 
 3.82418e-02 -3.66703e-01        00000 
 2.97924e-02 -8.49380e-01        00000 
-1.74270e-01 -4.25802e+00        00000 
 4.81052e-01 -4.34591e+00        00000 
 1.25940e-01 -3.56470e+00        00000 
-1.06400e-18  6.22755e-17        00000 
-1.45699e-17 -4.15783e-01        00000 
 9.40997e-01 -1.12301e+00        00000 
 8.61360e-01 -1.54756e+00        00000 
 1.54711e+00 -4.48410e+00        00000 
 2.17339e+00 -3.67822e+00        00000 
 1.32375e+00 -2.87377e+00        00000 
 4.22411e-01 -2.81890e+00        00000 
 6.80542e-01 -2.12604e+00        00000 
 2.53373e-01 -1.43795e+00        00000 
-1.14677e-01 -2.85674e+00        00000 
-3.06931e-02 -1.43863e+00        00000 
-3.12932e-01 -2.17659e+00        00000 
 9.79368e-01 -5.26590e+00        00000 
-7.18876e-01 -2.93636e+00        00000 
-6.01055e-01 -4.33184e+00        00000 
-4.50482e-01 -4.80660e+00        00000 
-1.12829e+00 -3.63518e+00        00000 
 1.57923e-02 -1.84660e-01        00000 
-8.29107e-04 -1.96096e-01        00000 
 3.12786e-03 -3.99688e-01        00000 
 4.44762e-03 -1.93106e-01        00000 
-2.76363e-02 -1.57701e-01        00000 
 7.84006e-03 -3.94743e-01        00000 
 1.15096e-01 -1.56405e-01        00000 
 5.19711e-18 -1.58426e-17        00000 
 7.70232e-19 -2.07330e-01        00000 
-1.48198e-01 -1.79847e+00        00000 
-7.57404e-02 -2.12891e+00        00000 
 2.80282e-02 -1.76298e+00        00000 
 5.70631e-01 -5.21178e-01        00000 
 4.81253e-01 -7.75734e-01        00000 
-3.28849e-01 -9.46362e-01        00000 
-6.75261e-01 -1.28477e+00        00000 
-2.49360e-01 -1.21369e+00        00000 
 3.55468e-01 -2.10021e+00        00000 
 2.51722e-01 -2.45316e+00        00000 
 5.59136e-01 -2.46049e+00        00000 
 4.38902e-01 -1.77210e+00        00000 
 1.99621e-01 -1.75627e+00        00000 
-4.19405e-01 -1.85760e+00        00000 
-8.52582e-01 -1.91659e+00        00000 
-6.70922e-01 -2.22596e+00        00000 
-3.00247e-01 -3.93742e+00        00000 
-2.49405e-02 -3.92440e+00        00000 
-1.52004e-01 -3.57951e+00        00000 
 1.12153e+00 -2.18230e+00        00000 
 1.24562e+00 -1.90323e+00        00000 
 7.82040e-01 -1.82080e+00        00000 
-2.12631e-01 -2.51316e+00        00000 
-5.07301e-01 -2.55891e+00        00000 
-3.69267e-01 -2.90325e+00        00000 
-1.03915e+00 -1.62678e+00        00000 
-9.36242e-01 -3.30111e+00        00000 
-9.46598e-01 -2.58979e+00        00000 
-1.22852e+00 -2.93976e+00        00000 
-7.05901e-03 -3.20473e+00        00000 
-2.56719e-01 -3.24469e+00        00000 
-2.03799e-01 -1.49017e+00        00000 
-1.39358e-01 -1.47558e-01        00000 
-4.96518e-01 -4.47197e-01        00000 
-4.50558e-01 -6.69965e-01        00000 
-4.49595e-02 -1.13574e+00        00000 
 1.22943e-01 -1.13282e+00        00000 
 2.79891e-01 -1.14510e+00        00000 
 1.32967e-01 -8.65450e-01        00000 
 1.49898e-02 -1.12846e+00        00000 
-9.68770e-03 -8.61662e-01        00000 
 3.33513e-17  2.21999e-17        00000 
 1.35228e-17 -6.09579e-01        00000 
-3.03682e-04 -6.25450e-01        00000 
 9.19976e-19  4.90654e-17        00000 
 9.93774e-18 -6.05834e-01        00000 
 7.97180e-03 -6.17986e-01        00000 
 9.13640e-01 -1.31600e+00        00000 
 5.20294e-01 -9.64594e-01        00000 
 5.30167e-01 -1.19829e+00        00000 
 6.83444e-20 -1.96262e-17        00000 
-3.35294e-18 -1.80589e-01        00000 
 1.99846e-01 -6.11459e-01        00000 
 1.02300e-01 -3.88900e-01        00000 
 1.47522e-01 -6.03861e-01        00000 
 1.33783e+00 -1.65566e+00        00000 
 4.98275e-01 -1.47149e+00        00000 
 1.45834e-02 -2.47193e+00        00000 
 8.85135e-02 -1.43224e+00        00000 
 4.57694e-01 -3.57483e+00        00000 
 6.34655e-01 -3.19956e+00        00000 
 2.76207e-01 -3.19154e+00        00000 
 1.51311e+00 -2.55637e+00        00000 
 9.75543e-01 -2.49364e+00        00000 
 8.11058e-01 -2.83455e+00        00000 
 1.46831e+00 -3.62813e+00        00000 
 1.72444e+00 -3.26858e+00        00000 
 1.11297e+00 -3.22289e+00        00000 
 1.94667e+00 -2.94051e+00        00000 
 1.19182e+00 -4.02200e+00        00000 
 1.88330e+00 -4.05878e+00        00000 
 2.36572e+00 -4.51716e+00        00000 
 1.97303e+00 -5.02606e+00        00000 
 1.23516e+00 -4.90814e+00        00000 
 1.60189e+00 -5.47903e+00        00000 
 2.88069e-01 -3.94295e+00        00000 
 6.75285e-01 -3.98071e+00        00000 
 9.31963e-01 -4.41884e+00        00000 
 3.07953e-01 -4.67570e+00        00000 
 1.28159e-01 -4.28827e+00        00000 
-2.26485e-02 -4.60023e+00        00000 
 7.08518e-01 -4.78230e+00        00000 
 5.18160e-01 -5.08962e+00        00000 
-3.19087e-01 -4.55460e+00        00000 
-1.65972e-01 -4.87730e+00        00000 
 1.29304e-01 -2.82514e+00        00000 
-5.32031e-01 -3.29026e+00        00000 
-6.84920e-01 -3.66499e+00        00000 
-4.44885e-01 -4.26433e+00        00000 
-5.26205e-01 -3.99439e+00        00000 
-5.70327e-01 -4.53499e+00        00000 
-5.32423e-01 -4.58439e+00        00000 
-6.26480e-01 -4.68804e+00        00000 
-8.00179e-01 -4.01199e+00        00000 
-8.00172e-01 -4.28905e+00        00000 </DataArray>
         </PointData>
         <CellData/>
      </Piece>
   </UnstructuredGrid>
</VTKFile>