<?xml version="1.0" encoding="utf-8"?>
<VTKFile byte_order="LittleEndian" type="UnstructuredGrid" version="0.1">
   <UnstructuredGrid>
      <Piece NumberOfCells="3364" NumberOfPoints="1741">
         <Points>
            <DataArray Name="Points" NumberOfComponents="3" format="ascii" type="Float32">
0.0000 1.0000 0.0000
0.0000 1.0345 0.0000
0.0000 1.0690 0.0000
0.0000 1.1034 0.0000
0.0000 1.1379 0.0000
0.0000 1.1724 0.0000
0.0000 1.2069 0.0000
0.0000 1.2414 0.0000
0.0000 1.2759 0.0000
0.0000 1.3103 0.0000
0.0000 1.3448 0.0000
0.0000 1.3793 0.0000
0.0000 1.4138 0.0000
0.0000 1.4483 0.0000
0.0000 1.4828 0.0000
0.0000 1.5172 0.0000
0.0000 1.5517 0.0000
0.0000 1.5862 0.0000
0.0000 1.6207 0.0000
0.0000 1.6552 0.0000
0.0000 1.6897 0.0000
0.0000 1.7241 0.0000
0.0000 1.7586 0.0000
0.0000 1.7931 0.0000
0.0000 1.8276 0.0000
0.0000 1.8621 0.0000
0.0000 1.8966 0.0000
0.0000 1.9310 0.0000
0.0000 1.9655 0.0000
0.0000 2.0000 0.0000
0.0690 1.0000 0.0000
0.0690 1.0345 0.0000
0.0690 1.0690 0.0000
0.0690 1.1034 0.0000
0.0690 1.1379 0.0000
0.0690 1.1724 0.0000
0.0690 1.2069 0.0000
0.0690 1.2414 0.0000
0.0690 1.2759 0.0000
0.0690 1.3103 0.0000
0.0690 1.3448 0.0000
0.0690 1.3793 0.0000
0.0690 1.4138 0.0000
0.0690 1.4483 0.0000
0.0690 1.4828 0.0000
0.0690 1.5172 0.0000
0.0690 1.5517 0.0000
0.0690 1.5862 0.0000
0.0690 1.6207 0.0000
0.0690 1.6552 0.0000
0.0690 1.6897 0.0000
0.0690 1.7241 0.0000
0.0690 1.7586 0.0000
0.0690 1.7931 0.0000
0.0690 1.8276 0.0000
0.0690 1.8621 0.0000
0.0690 1.8966 0.0000
0.0690 1.9310 0.0000
0.0690 1.9655 0.0000
0.0690 2.0000 0.0000
0.1379 1.0000 0.0000
0.1379 1.0345 0.0000
0.1379 1.0690 0.0000
0.1379 1.1034 0.0000
0.1379 1.1379 0.0000
0.1379 1.1724 0.0000
0.1379 1.2069 0.0000
0.1379 1.2414 0.0000
0.1379 1.2759 0.0000
0.1379 1.3103 0.0000
0.1379 1.3448 0.0000
0.1379 1.3793 0.0000
0.1379 1.4138 0.0000
0.1379 1.4483 0.0000
0.1379 1.4828 0.0000
0.1379 1.5172 0.0000
0.1379 1.5517 0.0000
0.1379 1.5862 0.0000
0.1379 1.6207 0.0000
0.1379 1.6552 0.0000
0.1379 1.6897 0.0000
0.1379 1.7241 0.0000
0.1379 1.7586 0.0000
0.1379 1.7931 0.0000
0.1379 1.8276 0.0000
0.1379 1.8621 0.0000
0.1379 1.8966 0.0000
0.1379 1.9310 0.0000
0.1379 1.9655 0.0000
0.1379 2.0000 0.0000
0.2069 1.0000 0.0000
0.2069 1.0345 0.0000
0.2069 1.0690 0.0000
0.2069 1.1034 0.0000
0.2069 1.1379 0.0000
0.2069 1.1724 0.0000
0.2069 1.2069 0.0000
0.2069 1.2414 0.0000
0.2069 1.2759 0.0000
0.2069 1.3103 0.0000
0.2069 1.3448 0.0000
0.2069 1.3793 0.0000
0.2069 1.4138 0.0000
0.2069 1.4483 0.0000
0.2069 1.4828 0.0000
0.2069 1.5172 0.0000
0.2069 1.5517 0.0000
0.2069 1.5862 0.0000
0.2069 1.6207 0.0000
0.2069 1.6552 0.0000
0.2069 1.6897 0.0000
0.2069 1.7241 0.0000
0.2069 1.7586 0.0000
0.2069 1.7931 0.0000
0.2069 1.8276 0.0000
0.2069 1.8621 0.0000
0.2069 1.8966 0.0000
0.2069 1.9310 0.0000
0.2069 1.9655 0.0000
0.2069 2.0000 0.0000
0.2759 1.0000 0.0000
0.2759 1.0345 0.0000
0.2759 1.0690 0.0000
0.2759 1.1034 0.0000
0.2759 1.1379 0.0000
0.2759 1.1724 0.0000
0.2759 1.2069 0.0000
0.2759 1.2414 0.0000
0.2759 1.2759 0.0000
0.2759 1.3103 0.0000
0.2759 1.3448 0.0000
0.2759 1.3793 0.0000
0.2759 1.4138 0.0000
0.2759 1.4483 0.0000
0.2759 1.4828 0.0000
0.2759 1.5172 0.0000
0.2759 1.5517 0.0000
0.2759 1.5862 0.0000
0.2759 1.6207 0.0000
0.2759 1.6552 0.0000
0.2759 1.6897 0.0000
0.2759 1.7241 0.0000
0.2759 1.7586 0.0000
0.2759 1.7931 0.0000
0.2759 1.8276 0.0000
0.2759 1.8621 0.0000
0.2759 1.8966 0.0000
0.2759 1.9310 0.0000
0.2759 1.9655 0.0000
0.2759 2.0000 0.0000
0.3448 1.0000 0.0000
0.3448 1.0345 0.0000
0.3448 1.0690 0.0000
0.3448 1.1034 0.0000
0.3448 1.1379 0.0000
0.3448 1.1724 0.0000
0.3448 1.2069 0.0000
0.3448 1.2414 0.0000
0.3448 1.2759 0.0000
0.3448 1.3103 0.0000
0.3448 1.3448 0.0000
0.3448 1.3793 0.0000
0.3448 1.4138 0.0000
0.3448 1.4483 0.0000
0.3448 1.4828 0.0000
0.3448 1.5172 0.0000
0.3448 1.5517 0.0000
0.3448 1.5862 0.0000
0.3448 1.6207 0.0000
0.3448 1.6552 0.0000
0.3448 1.6897 0.0000
0.3448 1.7241 0.0000
0.3448 1.7586 0.0000
0.3448 1.7931 0.0000
0.3448 1.8276 0.0000
0.3448 1.8621 0.0000
0.3448 1.8966 0.0000
0.3448 1.9310 0.0000
0.3448 1.9655 0.0000
0.3448 2.0000 0.0000
0.4138 1.0000 0.0000
0.4138 1.0345 0.0000
0.4138 1.0690 0.0000
0.4138 1.1034 0.0000
0.4138 1.1379 0.0000
0.4138 1.1724 0.0000
0.4138 1.2069 0.0000
0.4138 1.2414 0.0000
0.4138 1.2759 0.0000
0.4138 1.3103 0.0000
0.4138 1.3448 0.0000
0.4138 1.3793 0.0000
0.4138 1.4138 0.0000
0.4138 1.4483 0.0000
0.4138 1.4828 0.0000
0.4138 1.5172 0.0000
0.4138 1.5517 0.0000
0.4138 1.5862 0.0000
0.4138 1.6207 0.0000
0.4138 1.6552 0.0000
0.4138 1.6897 0.0000
0.4138 1.7241 0.0000
0.4138 1.7586 0.0000
0.4138 1.7931 0.0000
0.4138 1.8276 0.0000
0.4138 1.8621 0.0000
0.4138 1.8966 0.0000
0.4138 1.9310 0.0000
0.4138 1.9655 0.0000
0.4138 2.0000 0.0000
0.4828 1.0000 0.0000
0.4828 1.0345 0.0000
0.4828 1.0690 0.0000
0.4828 1.1034 0.0000
0.4828 1.1379 0.0000
0.4828 1.1724 0.0000
0.4828 1.2069 0.0000
0.4828 1.2414 0.0000
0.4828 1.2759 0.0000
0.4828 1.3103 0.0000
0.4828 1.3448 0.0000
0.4828 1.3793 0.0000
0.4828 1.4138 0.0000
0.4828 1.4483 0.0000
0.4828 1.4828 0.0000
0.4828 1.5172 0.0000
0.4828 1.5517 0.0000
0.4828 1.5862 0.0000
0.4828 1.6207 0.0000
0.4828 1.6552 0.0000
0.4828 1.6897 0.0000
0.4828 1.7241 0.0000
0.4828 1.7586 0.0000
0.4828 1.7931 0.0000
0.4828 1.8276 0.0000
0.4828 1.8621 0.0000
0.4828 1.8966 0.0000
0.4828 1.9310 0.0000
0.4828 1.9655 0.0000
0.4828 2.0000 0.0000
0.5517 1.0000 0.0000
0.5517 1.0345 0.0000
0.5517 1.0690 0.0000
0.5517 1.1034 0.0000
0.5517 1.1379 0.0000
0.5517 1.1724 0.0000
0.5517 1.2069 0.0000
0.5517 1.2414 0.0000
0.5517 1.2759 0.0000
0.5517 1.3103 0.0000
0.5517 1.3448 0.0000
0.5517 1.3793 0.0000
0.5517 1.4138 0.0000
0.5517 1.4483 0.0000
0.5517 1.4828 0.0000
0.5517 1.5172 0.0000
0.5517 1.5517 0.0000
0.5517 1.5862 0.0000
0.5517 1.6207 0.0000
0.5517 1.6552 0.0000
0.5517 1.6897 0.0000
0.5517 1.7241 0.0000
0.5517 1.7586 0.0000
0.5517 1.7931 0.0000
0.5517 1.8276 0.0000
0.5517 1.8621 0.0000
0.5517 1.8966 0.0000
0.5517 1.9310 0.0000
0.5517 1.9655 0.0000
0.5517 2.0000 0.0000
0.6207 1.0000 0.0000
0.6207 1.0345 0.0000
0.6207 1.0690 0.0000
0.6207 1.1034 0.0000
0.6207 1.1379 0.0000
0.6207 1.1724 0.0000
0.6207 1.2069 0.0000
0.6207 1.2414 0.0000
0.6207 1.2759 0.0000
0.6207 1.3103 0.0000
0.6207 1.3448 0.0000
0.6207 1.3793 0.0000
0.6207 1.4138 0.0000
0.6207 1.4483 0.0000
0.6207 1.4828 0.0000
0.6207 1.5172 0.0000
0.6207 1.5517 0.0000
0.6207 1.5862 0.0000
0.6207 1.6207 0.0000
0.6207 1.6552 0.0000
0.6207 1.6897 0.0000
0.6207 1.7241 0.0000
0.6207 1.7586 0.0000
0.6207 1.7931 0.0000
0.6207 1.8276 0.0000
0.6207 1.8621 0.0000
0.6207 1.8966 0.0000
0.6207 1.9310 0.0000
0.6207 1.9655 0.0000
0.6207 2.0000 0.0000
0.6897 1.0000 0.0000
0.6897 1.0345 0.0000
0.6897 1.0690 0.0000
0.6897 1.1034 0.0000
0.6897 1.1379 0.0000
0.6897 1.1724 0.0000
0.6897 1.2069 0.0000
0.6897 1.2414 0.0000
0.6897 1.2759 0.0000
0.6897 1.3103 0.0000
0.6897 1.3448 0.0000
0.6897 1.3793 0.0000
0.6897 1.4138 0.0000
0.6897 1.4483 0.0000
0.6897 1.4828 0.0000
0.6897 1.5172 0.0000
0.6897 1.5517 0.0000
0.6897 1.5862 0.0000
0.6897 1.6207 0.0000
0.6897 1.6552 0.0000
0.6897 1.6897 0.0000
0.6897 1.7241 0.0000
0.6897 1.7586 0.0000
0.6897 1.7931 0.0000
0.6897 1.8276 0.0000
0.6897 1.8621 0.0000
0.6897 1.8966 0.0000
0.6897 1.9310 0.0000
0.6897 1.9655 0.0000
0.6897 2.0000 0.0000
0.7586 1.0000 0.0000
0.7586 1.0345 0.0000
0.7586 1.0690 0.0000
0.7586 1.1034 0.0000
0.7586 1.1379 0.0000
0.7586 1.1724 0.0000
0.7586 1.2069 0.0000
0.7586 1.2414 0.0000
0.7586 1.2759 0.0000
0.7586 1.3103 0.0000
0.7586 1.3448 0.0000
0.7586 1.3793 0.0000
0.7586 1.4138 0.0000
0.7586 1.4483 0.0000
0.7586 1.4828 0.0000
0.7586 1.5172 0.0000
0.7586 1.5517 0.0000
0.7586 1.5862 0.0000
0.7586 1.6207 0.0000
0.7586 1.6552 0.0000
0.7586 1.6897 0.0000
0.7586 1.7241 0.0000
0.7586 1.7586 0.0000
0.7586 1.7931 0.0000
0.7586 1.8276 0.0000
0.7586 1.8621 0.0000
0.7586 1.8966 0.0000
0.7586 1.9310 0.0000
0.7586 1.9655 0.0000
0.7586 2.0000 0.0000
0.8276 1.0000 0.0000
0.8276 1.0345 0.0000
0.8276 1.0690 0.0000
0.8276 1.1034 0.0000
0.8276 1.1379 0.0000
0.8276 1.1724 0.0000
0.8276 1.2069 0.0000
0.8276 1.2414 0.0000
0.8276 1.2759 0.0000
0.8276 1.3103 0.0000
0.8276 1.3448 0.0000
0.8276 1.3793 0.0000
0.8276 1.4138 0.0000
0.8276 1.4483 0.0000
0.8276 1.4828 0.0000
0.8276 1.5172 0.0000
0.8276 1.5517 0.0000
0.8276 1.5862 0.0000
0.8276 1.6207 0.0000
0.8276 1.6552 0.0000
0.8276 1.6897 0.0000
0.8276 1.7241 0.0000
0.8276 1.7586 0.0000
0.8276 1.7931 0.0000
0.8276 1.8276 0.0000
0.8276 1.8621 0.0000
0.8276 1.8966 0.0000
0.8276 1.9310 0.0000
0.8276 1.9655 0.0000
0.8276 2.0000 0.0000
0.8966 1.0000 0.0000
0.8966 1.0345 0.0000
0.8966 1.0690 0.0000
0.8966 1.1034 0.0000
0.8966 1.1379 0.0000
0.8966 1.1724 0.0000
0.8966 1.2069 0.0000
0.8966 1.2414 0.0000
0.8966 1.2759 0.0000
0.8966 1.3103 0.0000
0.8966 1.3448 0.0000
0.8966 1.3793 0.0000
0.8966 1.4138 0.0000
0.8966 1.4483 0.0000
0.8966 1.4828 0.0000
0.8966 1.5172 0.0000
0.8966 1.5517 0.0000
0.8966 1.5862 0.0000
0.8966 1.6207 0.0000
0.8966 1.6552 0.0000
0.8966 1.6897 0.0000
0.8966 1.7241 0.0000
0.8966 1.7586 0.0000
0.8966 1.7931 0.0000
0.8966 1.8276 0.0000
0.8966 1.8621 0.0000
0.8966 1.8966 0.0000
0.8966 1.9310 0.0000
0.8966 1.9655 0.0000
0.8966 2.0000 0.0000
0.9655 1.0000 0.0000
0.9655 1.0345 0.0000
0.9655 1.0690 0.0000
0.9655 1.1034 0.0000
0.9655 1.1379 0.0000
0.9655 1.1724 0.0000
0.9655 1.2069 0.0000
0.9655 1.2414 0.0000
0.9655 1.2759 0.0000
0.9655 1.3103 0.0000
0.9655 1.3448 0.0000
0.9655 1.3793 0.0000
0.9655 1.4138 0.0000
0.9655 1.4483 0.0000
0.9655 1.4828 0.0000
0.9655 1.5172 0.0000
0.9655 1.5517 0.0000
0.9655 1.5862 0.0000
0.9655 1.6207 0.0000
0.9655 1.6552 0.0000
0.9655 1.6897 0.0000
0.9655 1.7241 0.0000
0.9655 1.7586 0.0000
0.9655 1.7931 0.0000
0.9655 1.8276 0.0000
0.9655 1.8621 0.0000
0.9655 1.8966 0.0000
0.9655 1.9310 0.0000
0.9655 1.9655 0.0000
0.9655 2.0000 0.0000
1.0345 1.0000 0.0000
1.0345 1.0345 0.0000
1.0345 1.0690 0.0000
1.0345 1.1034 0.0000
1.0345 1.1379 0.0000
1.0345 1.1724 0.0000
1.0345 1.2069 0.0000
1.0345 1.2414 0.0000
1.0345 1.2759 0.0000
1.0345 1.3103 0.0000
1.0345 1.3448 0.0000
[...]
         <PointData>
            <DataArray Name="fValues" NumberOfComponents="3" format="ascii" type="Float64">
-1.12022e-25 -8.91331e-26        00000 
-1.09661e-26 -1.64492e-26        00000 
       00000 -3.25324e-25        00000 
 1.63498e-25  9.26491e-26        00000 
-2.60259e-25  1.86519e-24        00000 
 2.61766e-24 -2.36225e-25        00000 
 1.38805e-24  5.50882e-24        00000 
-3.95666e-24  7.48823e-24        00000 
 8.32830e-24 -6.59324e-24        00000 
 1.48446e-23 -8.92098e-24        00000 
-1.52685e-23  8.67531e-24        00000 
 6.20858e-23  5.72026e-23        00000 
 3.33132e-23 -4.44176e-23        00000 
 9.02001e-23 -7.37820e-23        00000 
-3.33132e-23  6.94025e-22        00000 
-4.65992e-22  8.20718e-22        00000 
 2.48738e-21  2.66506e-21        00000 
-1.47251e-21  3.04514e-21        00000 
 3.37574e-21 -3.10923e-21        00000 
-1.78584e-21  1.42867e-20        00000 
 1.20816e-20 -1.27923e-20        00000 
-5.39262e-21  9.60608e-21        00000 
 4.97477e-21  1.13709e-20        00000 
 1.24116e-20  6.19686e-20        00000 
-2.84273e-21  1.70564e-20        00000 
 1.97875e-20  4.06146e-20        00000 
-1.06602e-20  5.68545e-20        00000 
 4.38347e-21  2.39749e-20        00000 
 3.36885e-20 -4.62321e-20        00000 
-8.42213e-21 -1.68949e-19        00000 
 1.16771e-09  1.72732e-10        00000 
 4.76744e-10  1.89149e-10        00000 
 1.02758e-09  4.76164e-10        00000 
 2.03845e-09  8.57289e-10        00000 
 3.88675e-09  1.55889e-09        00000 
 7.31169e-09  2.88200e-09        00000 
 1.37123e-08  5.34756e-09        00000 
 2.57310e-08  9.91315e-09        00000 
 4.83963e-08  1.83521e-08        00000 
 9.13215e-08  3.40080e-08        00000 
 1.72878e-07  6.33974e-08        00000 
 3.27860e-07  1.19742e-07        00000 
 6.20802e-07  2.30739e-07        00000 
 1.16718e-06  4.54912e-07        00000 
 2.16290e-06  9.13400e-07        00000 
 3.91680e-06  1.84521e-06        00000 
 6.86925e-06  3.68983e-06        00000 
 1.15653e-05  7.18612e-06        00000 
 1.85411e-05  1.34480e-05        00000 
 2.80966e-05  2.39445e-05        00000 
 3.99812e-05  4.02969e-05        00000 
 5.31069e-05  6.38508e-05        00000 
 6.54736e-05  9.50883e-05        00000 
 7.44675e-05  1.33096e-04        00000 
 7.75502e-05  1.75372e-04        00000 
 7.31560e-05  2.17998e-04        00000 
 6.18857e-05  2.54675e-04        00000 
 4.25798e-05  2.66614e-04        00000 
-1.96121e-07  2.03177e-04        00000 
-5.96853e-04  2.12573e-04        00000 
-1.26884e-09 -3.79763e-10        00000 
-6.74617e-10 -4.90474e-10        00000 
-1.14751e-09 -8.01403e-10        00000 
-2.30392e-09 -1.42498e-09        00000 
-4.40203e-09 -2.60040e-09        00000 
-8.28440e-09 -4.80862e-09        00000 
-1.55338e-08 -8.91490e-09        00000 
-2.91294e-08 -1.64983e-08        00000 
-5.47140e-08 -3.04577e-08        00000 
-1.03026e-07 -5.62130e-08        00000 
-1.94531e-07 -1.04284e-07        00000 
-3.68063e-07 -1.96145e-07        00000 
-6.96283e-07 -3.77632e-07        00000 
-1.31152e-06 -7.48523e-07        00000 
-2.44447e-06 -1.52294e-06        00000 
-4.47240e-06 -3.13997e-06        00000 
-7.95924e-06 -6.43909e-06        00000 
-1.36467e-05 -1.28866e-05        00000 
-2.23328e-05 -2.47778e-05        00000 
-3.45785e-05 -4.52554e-05        00000 
-5.02499e-05 -7.79324e-05        00000 
-6.80383e-05 -1.25979e-04        00000 
-8.52520e-05 -1.90774e-04        00000 
-9.81943e-05 -2.70588e-04        00000 
-1.03260e-04 -3.59873e-04        00000 
-9.86525e-05 -4.49194e-04        00000 
-8.56411e-05 -5.23820e-04        00000 
-6.50972e-05 -5.57562e-04        00000 
 7.86497e-05 -5.28096e-04        00000 
 7.36993e-04 -4.95975e-04        00000 
 1.19715e-09  5.62304e-10        00000 
 6.64258e-10  7.54885e-10        00000 
 1.09523e-09  1.14599e-09        00000 
 2.18025e-09  2.00099e-09        00000 
 4.17233e-09  3.65606e-09        00000 
 7.85535e-09  6.76774e-09        00000 
 1.47258e-08  1.25571e-08        00000 
 2.75858e-08  2.32628e-08        00000 
 5.17035e-08  4.29938e-08        00000 
 9.70196e-08  7.93952e-08        00000 
 1.82363e-07  1.47139e-07        00000 
 3.43486e-07  2.75713e-07        00000 
 6.48128e-07  5.27287e-07        00000 
 1.22311e-06  1.03682e-06        00000 
 2.29944e-06  2.09681e-06        00000 
 4.27789e-06  4.31962e-06        00000 
 7.80306e-06  8.91022e-06        00000 
 1.38016e-05  1.80466e-05        00000 
 2.33954e-05  3.52694e-05        00000 
 3.75735e-05  6.56271e-05        00000 
 5.65687e-05  1.15191e-04        00000 
 7.90798e-05  1.89610e-04        00000 
 1.01774e-04  2.91770e-04        00000 
 1.19659e-04  4.19284e-04        00000 
 1.27688e-04  5.62931e-04        00000 
 1.23236e-04  7.06554e-04        00000 
 1.07806e-04  8.27195e-04        00000 
 7.39930e-05  8.94636e-04        00000 
-1.08463e-04  8.72512e-04        00000 
-8.71110e-04  8.01627e-04        00000 
-1.05887e-09 -7.30296e-10        00000 
-5.95835e-10 -9.83669e-10        00000 
-9.75578e-10 -1.46724e-09        00000 
-1.93509e-09 -2.54247e-09        00000 
-3.70305e-09 -4.64314e-09        00000 
-6.97386e-09 -8.60155e-09        00000 
-1.30690e-08 -1.59782e-08        00000 
-2.44502e-08 -2.96536e-08        00000 
-4.56996e-08 -5.49338e-08        00000 
-8.53570e-08 -1.01670e-07        00000 
-1.59419e-07 -1.88543e-07        00000 
-2.98158e-07 -3.52279e-07        00000 
-5.59662e-07 -6.68362e-07        00000 
-1.05650e-06 -1.29789e-06        00000 
-2.00585e-06 -2.58967e-06        00000 
-3.81471e-06 -5.28642e-06        00000 
-7.20062e-06 -1.08959e-05        00000 
-1.33089e-05 -2.22586e-05        00000 
-2.37100e-05 -4.42181e-05        00000 
-4.00763e-05 -8.40532e-05        00000 
-6.33518e-05 -1.51036e-04        00000 
-9.24934e-05 -2.54434e-04        00000 
-1.23391e-04 -3.99805e-04        00000 
-1.49039e-04 -5.84614e-04        00000 
-1.61779e-04 -7.95252e-04        00000 
-1.57106e-04 -1.00714e-03        00000 
-1.35662e-04 -1.18715e-03        00000 
-8.93473e-05 -1.29324e-03        00000 
 1.35124e-04 -1.26952e-03        00000 
 1.05150e-03 -1.16301e-03        00000 
 8.83912e-10  8.74827e-10        00000 
 5.00351e-10  1.17670e-09        00000 
 8.18549e-10  1.74509e-09        00000 
 1.62108e-09  3.01377e-09        00000 
 3.10171e-09  5.50102e-09        00000 
 5.84164e-09  1.01964e-08        00000 
 1.09414e-08  1.89634e-08        00000 
 2.04366e-08  3.52632e-08        00000 
 3.80704e-08  6.55037e-08        00000 
 7.07061e-08  1.21584e-07        00000 
 1.30974e-07  2.25852e-07        00000 
 2.42520e-07  4.21241e-07        00000 
 4.51084e-07  7.93191e-07        00000 
 8.48735e-07  1.51880e-06        00000 
 1.62590e-06  2.97689e-06        00000 
 3.17438e-06  5.98357e-06        00000 
 6.26326e-06  1.22522e-05        00000 
 1.22708e-05  2.51749e-05        00000 
 2.33427e-05  5.08930e-05        00000 
 4.21676e-05  9.92648e-05        00000 
 7.09477e-05  1.83782e-04        00000 
 1.09419e-04  3.19122e-04        00000 
 1.52667e-04  5.15598e-04        00000 
 1.90591e-04  7.71742e-04        00000 
 2.10951e-04  1.06867e-03        00000 
 2.05608e-04  1.37013e-03        00000 
 1.75057e-04  1.62754e-03        00000 
 1.12203e-04  1.78108e-03        00000 
-1.68570e-04  1.75222e-03        00000 
-1.30207e-03  1.60488e-03        00000 
-6.82335e-10 -9.90874e-10        00000 
-3.87560e-10 -1.33100e-09        00000 
-6.34357e-10 -1.96906e-09        00000 
-1.25561e-09 -3.39504e-09        00000 
-2.40221e-09 -6.19523e-09        00000 
-4.52332e-09 -1.14890e-08        00000 
-8.46441e-09 -2.13917e-08        00000 
-1.57749e-08 -3.98542e-08        00000 
-2.92631e-08 -7.42310e-08        00000 
-5.39691e-08 -1.38209e-07        00000 
-9.89222e-08 -2.57335e-07        00000 
-1.80620e-07 -4.79735e-07        00000 
-3.30869e-07 -8.97942e-07        00000 
-6.16192e-07 -1.69621e-06        00000 
-1.18631e-06 -3.25775e-06        00000 
-2.38686e-06 -6.40770e-06        00000 
-4.98839e-06 -1.29334e-05        00000 
-1.05633e-05 -2.65787e-05        00000 
-2.19111e-05 -5.46290e-05        00000 
-4.31197e-05 -1.09765e-04        00000 
-7.84824e-05 -2.10915e-04        00000 
-1.29571e-04 -3.80798e-04        00000 
-1.91076e-04 -6.38062e-04        00000 
-2.48433e-04 -9.84927e-04        00000 
-2.81520e-04 -1.39631e-03        00000 
-2.75413e-04 -1.81860e-03        00000 
-2.30434e-04 -2.17930e-03        00000 
-1.42978e-04 -2.39346e-03        00000 
 2.14650e-04 -2.35619e-03        00000 
 1.64241e-03 -2.15744e-03        00000 
 4.60823e-10  1.07520e-09        00000 
 2.62410e-10  1.44307e-09        00000 
 4.29946e-10  2.13226e-09        00000 
 8.51031e-10  3.67351e-09        00000 
 1.62806e-09  6.70310e-09        00000 
 3.06364e-09  1.24373e-08        00000 
 5.72228e-09  2.31818e-08        00000 
 1.06245e-08  4.32626e-08        00000 
 1.95811e-08  8.07719e-08        00000 
 3.57390e-08  1.50820e-07        00000 
 6.44817e-08  2.81551e-07        00000 
 1.15127e-07  5.25269e-07        00000 
 2.05077e-07  9.79552e-07        00000 
 3.72194e-07  1.82990e-06        00000 
 7.12860e-07  3.44416e-06        00000 
 1.48929e-06  6.59598e-06        00000 
 3.39177e-06  1.29927e-05        00000 
 8.06735e-06  2.64260e-05        00000 
 1.89235e-05  5.49261e-05        00000 
 4.17863e-05  1.13904e-04        00000 
 8.41832e-05  2.28892e-04        00000 
 1.51475e-04  4.34229e-04        00000 
 2.39484e-04  7.62849e-04        00000 
 3.27840e-04  1.22612e-03        00000 
 3.83027e-04  1.79256e-03        00000 
 3.76660e-04  2.38210e-03        00000 
 3.07484e-04  2.88383e-03        00000 
 1.80889e-04  3.17621e-03        00000 
-2.80509e-04  3.12422e-03        00000 
-2.09567e-03  2.85749e-03        00000 
-2.25878e-10 -1.12561e-09        00000 
-1.29050e-10 -1.51006e-09        00000 
-2.11917e-10 -2.22993e-09        00000 
-4.19825e-10 -3.84059e-09        00000 
-8.03055e-10 -7.00911e-09        00000 
-1.50793e-09 -1.30125e-08        00000 
-2.80105e-09 -2.42774e-08        00000 
-5.14690e-09 -4.53718e-08        00000 
-9.32362e-09 -8.48732e-08        00000 
-1.65639e-08 -1.58853e-07        00000 
-2.86753e-08 -2.97268e-07        00000 
-4.81099e-08 -5.55457e-07        00000 
-7.84531e-08 -1.03455e-06        00000 
-1.28538e-07 -1.91872e-06        00000 
-2.33732e-07 -3.55077e-06        00000 
-5.38164e-07 -6.61058e-06        00000 
-1.54905e-06 -1.25785e-05        00000 
-4.77336e-06 -2.49089e-05        00000 
-1.39614e-05 -5.16539e-05        00000 
-3.67584e-05 -1.10203e-04        00000 
-8.52231e-05 -2.33241e-04        00000 
-1.71743e-04 -4.70981e-04        00000 
-2.97187e-04 -8.80091e-04        00000 
-4.35336e-04 -1.49222e-03        00000 
-5.30470e-04 -2.27232e-03        00000 
-5.26485e-04 -3.09970e-03        00000 
-4.14853e-04 -3.79866e-03        00000 
-2.21723e-04 -4.19092e-03        00000 
 3.79096e-04 -4.10974e-03        00000 
 2.69022e-03 -3.74893e-03        00000 
-1.56799e-11  1.14082e-09        00000 
-8.38724e-12  1.53023e-09        00000 
-1.29524e-11  2.25929e-09        00000 
-2.48352e-11  3.89127e-09        00000 
-4.76069e-11  7.10393e-09        00000 
-9.57235e-11  1.31966e-08        00000 
-2.07818e-10  2.46429e-08        00000 
-4.85904e-10  4.61085e-08        00000 
-1.19425e-09  8.63746e-08        00000 
-3.00107e-09  1.61934e-07        00000 
-7.55516e-09  3.03601e-07        00000 
-1.88017e-08  5.68278e-07        00000 
-4.56625e-08  1.05908e-06        00000 
-1.05953e-07  1.95852e-06        00000 
-2.25171e-07  3.58549e-06        00000 
-3.97467e-07  6.51444e-06        00000 
-3.95816e-07  1.19030e-05        00000 
 8.60116e-07  2.24836e-05        00000 
 6.90329e-06  4.53082e-05        00000 
 2.66813e-05  9.79900e-05        00000 
 7.76732e-05  2.19254e-04        00000 
 1.83859e-04  4.78899e-04        00000 
 3.59520e-04  9.71087e-04        00000 
 5.77394e-04  1.76955e-03        00000 
 7.47488e-04  2.84795e-03        00000 
 7.56003e-04  4.02436e-03        00000 
 5.67715e-04  5.00791e-03        00000 
 2.52362e-04  5.52410e-03        00000 
-5.37405e-04  5.37981e-03        00000 
-3.45832e-03  4.88065e-03        00000 
 2.56805e-10 -1.12048e-09        00000 
 1.45697e-10 -1.50309e-09        00000 
 2.37724e-10 -2.21953e-09        00000 
 4.69345e-10 -3.82400e-09        00000 
 8.97856e-10 -6.98441e-09        00000 
 1.69768e-09 -1.29831e-08        00000 
 3.21008e-09 -2.42641e-08        00000 
 6.09661e-09 -4.54428e-08        00000 
 1.16466e-08 -8.52116e-08        00000 
 2.23842e-08 -1.59913e-07        00000 
 4.32788e-08 -3.00131e-07        00000 
 8.42174e-08 -5.62507e-07        00000 
 1.65145e-07 -1.04983e-06        00000 
 3.26433e-07 -1.94254e-06        00000 
 6.46438e-07 -3.54335e-06        00000 
 1.25416e-06 -6.34251e-06        00000 
 2.25631e-06 -1.11718e-05        00000 
 3.27719e-06 -1.97997e-05        00000 
 1.81838e-06 -3.71856e-05        00000 
-1.09052e-05 -7.83183e-05        00000 
-5.70954e-05 -1.83763e-04        00000 
-1.76981e-04 -4.42949e-04        00000 
-4.13262e-04 -1.00421e-03        00000 
-7.55492e-04 -2.02338e-03        00000 
-1.06987e-03 -3.52015e-03        00000 
-1.12505e-03 -5.22861e-03        00000 
-7.97881e-04 -6.64316e-03        00000 
-2.38402e-04 -7.30552e-03        00000 
 8.16449e-04 -7.01821e-03        00000 
 4.42929e-03 -6.29712e-03        00000 
-4.90445e-10  1.06519e-09        00000 
-2.78663e-10  1.42943e-09        00000 
-4.55428e-10  2.11187e-09        00000 
-9.00037e-10  3.64077e-09        00000 
-1.72156e-09  6.65370e-09        00000 
-3.24842e-09  1.23766e-08        00000 
-6.11228e-09  2.31482e-08        00000 
-1.15099e-08  4.33866e-08        00000 
-2.17096e-08  8.14100e-08        00000 
-4.10074e-08  1.52847e-07        00000 
-7.75353e-08  2.86950e-07        00000 
-1.46747e-07  5.38037e-07        00000 
-2.78416e-07  1.00532e-06        00000 
-5.31343e-07  1.86432e-06        00000 
-1.02443e-06  3.40817e-06        00000 
-1.99492e-06  6.08258e-06        00000 
-3.86361e-06  1.04910e-05        00000 
-7.10338e-06  1.74840e-05        00000 
-1.10752e-05  2.92403e-05        00000 
-9.57407e-06  5.47988e-05        00000 
 2.04747e-05  1.28313e-04        00000 
 1.36323e-04  3.49536e-04        00000 
 4.29675e-04  9.32420e-04        00000 
 9.52315e-04  2.17924e-03        00000 
 1.54427e-03  4.25344e-03        00000 
 1.75227e-03  6.80804e-03        00000 
 1.18421e-03  8.92755e-03        00000 
 9.69152e-05  9.75129e-03        00000 
-1.36185e-03  9.13006e-03        00000 
-5.60579e-03  8.00720e-03        00000 
 7.09744e-10 -9.76502e-10        00000 
 4.03116e-10 -1.31131e-09        00000 
 6.59189e-10 -1.93949e-09        00000 
 1.30354e-09 -3.34708e-09        00000 
 2.49330e-09 -6.12138e-09        00000 
 4.70003e-09 -1.13938e-08        00000 
 8.82477e-09 -2.13247e-08        00000 
 1.65590e-08 -3.99946e-08        00000 
 3.10752e-08 -7.50791e-08        00000 
 5.83102e-08 -1.40975e-07        00000 
 1.09346e-07 -2.64586e-07        00000 
 2.04852e-07 -4.95882e-07        00000 
 3.83639e-07 -9.26663e-07        00000 
 7.20111e-07 -1.72173e-06        00000 
 1.36252e-06 -3.16271e-06        00000 
 2.61919e-06 -5.68238e-06        00000 
 5.13617e-06 -9.80425e-06        00000 
 1.01455e-05 -1.58264e-05        00000 
 1.92625e-05 -2.33968e-05        00000 
 3.14270e-05 -3.34502e-05        00000 
 3.01983e-05 -6.29470e-05        00000 
-4.85499e-05 -1.97221e-04        00000 
-3.59050e-04 -7.00170e-04        00000 
-1.10071e-03 -2.09629e-03        00000 
-2.20214e-03 -4.91293e-03        00000 
-2.86717e-03 -8.86260e-03        00000 
-1.94325e-03 -1.22741e-02        00000 
 3.60595e-04 -1.32841e-02        00000 
 2.53047e-03 -1.18506e-02        00000 
 6.88590e-03 -9.88724e-03        00000 
-9.08090e-10  8.56878e-10        00000 
-5.14810e-10  1.15182e-09        00000 
-8.42199e-10  1.70751e-09        00000 
-1.66693e-09  2.95206e-09        00000 
-3.18859e-09  5.40364e-09        00000 
-6.00664e-09  1.00638e-08        00000 
-1.12624e-08  1.88463e-08        00000 
-2.10874e-08  3.53649e-08        00000 
-3.94564e-08  6.64093e-08        00000 
-7.37668e-08  1.24689e-07        00000 
-1.37750e-07  2.33886e-07        00000 
-2.56845e-07  4.37897e-07        00000 
-4.78254e-07  8.17494e-07        00000 
-8.90564e-07  1.51938e-06        00000 
-1.66505e-06  2.80202e-06        00000 
-3.15119e-06  5.08648e-06        00000 
-6.10823e-06  8.92423e-06        00000 
-1.22294e-05  1.45641e-05        00000 
-2.50072e-05  2.04276e-05        00000 
-4.96170e-05  2.04167e-05        00000 
-8.46503e-05  7.02774e-06        00000 
-8.38473e-05  1.38175e-05        00000 
 1.42529e-04  2.77386e-04        00000 
 1.03480e-03  1.55233e-03        00000 
 2.94927e-03  5.11849e-03        00000 
 4.85160e-03  1.13678e-02        00000 
 3.68278e-03  1.75004e-02        00000 
-1.53431e-03  1.89395e-02        00000 
-5.18516e-03  1.53366e-02        00000 
-7.81037e-03  1.13810e-02        00000 
 1.07837e-09 -7.09933e-10        00000 
 6.08434e-10 -9.54493e-10        00000 
 9.96935e-10 -1.42300e-09        00000 
 1.97663e-09 -2.46887e-09        00000 
 3.78165e-09 -4.52381e-09        00000 
 7.11979e-09 -8.42885e-09        00000 
 1.33359e-08 -1.57916e-08        00000 
 2.49319e-08 -2.96445e-08        00000 
 4.65568e-08 -5.56792e-08        00000 
 8.68358e-08 -1.04529e-07        00000 
 1.61744e-07 -1.95952e-07        00000 
 3.00830e-07 -3.66441e-07        00000 
 5.58762e-07 -6.82977e-07        00000 
 1.03721e-06 -1.26766e-06        00000 
 1.92840e-06 -2.34018e-06        00000 
 3.61001e-06 -4.28084e-06        00000 
 6.87722e-06 -7.66918e-06        00000 
 1.35503e-05 -1.30228e-05        00000 
 2.79912e-05 -1.91860e-05        00000 
 6.00271e-05 -1.77202e-05        00000 
 1.26106e-04  1.87443e-05        00000 
 2.26856e-04  1.34612e-04        00000 
 2.24792e-04  2.61193e-04        00000 
-4.81757e-04 -3.29317e-04        00000 
-3.25800e-03 -3.99266e-03        00000 
-8.00434e-03 -1.36168e-02        00000 
-7.99365e-03 -2.61960e-02        00000 
 4.17356e-03 -3.00337e-02        00000 
 1.12296e-02 -1.94142e-02        00000 
 6.81889e-03 -1.06097e-02        00000 
-1.20882e-09  5.41171e-10        00000 
-6.72774e-10  7.21170e-10        00000 
-1.11099e-09  1.09494e-09        00000 
-2.21080e-09  1.91493e-09        00000 
-4.22991e-09  3.51214e-09        00000 
-7.95894e-09  6.54452e-09        00000 
-1.48960e-08  1.22643e-08        00000 
-2.78186e-08  2.30286e-08        00000 
-5.18752e-08  4.32566e-08        00000 
-9.66000e-08  8.11921e-08        00000 
-1.79634e-07  1.52118e-07        00000 
-3.33609e-07  2.84165e-07        00000 
-6.18964e-07  5.28750e-07        00000 
-1.14804e-06  9.79287e-07        00000 
-2.13148e-06  1.80476e-06        00000 
-3.97262e-06  3.30808e-06        00000 
-7.47971e-06  6.00861e-06        00000 
-1.44117e-05  1.06329e-05        00000 
-2.90218e-05  1.72660e-05        00000 
-6.23324e-05  2.04361e-05        00000 
-1.41794e-04 -9.66233e-06        00000 
-3.20048e-04 -1.74097e-04        00000 
-6.17661e-04 -6.72021e-04        00000 
-6.15563e-04 -1.39285e-03        00000 
 1.68594e-03  1.48026e-04        00000 
 1.09229e-02  1.24114e-02        00000 
 1.79461e-02  4.05511e-02        00000 
-9.13192e-03  6.02779e-02        00000 
-2.36997e-02  2.02607e-02        00000 
 2.96707e-04  2.28971e-03        00000 
 1.26356e-09 -3.57879e-10        00000 
 6.71777e-10 -4.42059e-10        00000 
 1.14694e-09 -7.27133e-10        00000 
 2.30018e-09 -1.29687e-09        00000 
 4.39492e-09 -2.37678e-09        00000 
 8.26436e-09 -4.42673e-09        00000 
 1.54589e-08 -8.29581e-09        00000 
 2.88489e-08 -1.55774e-08        00000 
 5.37471e-08 -2.92570e-08        00000 
 9.99814e-08 -5.48970e-08        00000 
 1.85725e-07 -1.02793e-07        00000 
 3.44611e-07 -1.91850e-07        00000 
 6.39032e-07 -3.56500e-07        00000 
 1.18524e-06 -6.58979e-07        00000 
 2.20141e-06 -1.21128e-06        00000 
 4.10208e-06 -2.21527e-06        00000 
 7.69407e-06 -4.03598e-06        00000 