<?xml version="1.0" encoding="utf-8"?>
<VTKFile byte_order="LittleEndian" type="UnstructuredGrid" version="0.1">
   <UnstructuredGrid>
      <Piece NumberOfCells="3364" NumberOfPoints="1741">
         <Points>
            <DataArray Name="Points" NumberOfComponents="3" format="ascii" type="Float32">
0.0000 1.0000 0.0000
0.0000 1.0345 0.0000
0.0000 1.0690 0.0000
0.0000 1.1034 0.0000
0.0000 1.1379 0.0000
0.0000 1.1724 0.0000
0.0000 1.2069 0.0000
0.0000 1.2414 0.0000
0.0000 1.2759 0.0000
0.0000 1.3103 0.0000
0.0000 1.3448 0.0000
0.0000 1.3793 0.0000
0.0000 1.4138 0.0000
0.0000 1.4483 0.0000
0.0000 1.4828 0.0000
0.0000 1.5172 0.0000
0.0000 1.5517 0.0000
0.0000 1.5862 0.0000
0.0000 1.6207 0.0000
0.0000 1.6552 0.0000
0.0000 1.6897 0.0000
0.0000 1.7241 0.0000
0.0000 1.7586 0.0000
0.0000 1.7931 0.0000
0.0000 1.8276 0.0000
0.0000 1.8621 0.0000
0.0000 1.8966 0.0000
0.0000 1.9310 0.0000
0.0000 1.9655 0.0000
0.0000 2.0000 0.0000
0.0690 1.0000 0.0000
0.0690 1.0345 0.0000
0.0690 1.0690 0.0000
0.0690 1.1034 0.0000
0.0690 1.1379 0.0000
0.0690 1.1724 0.0000
0.0690 1.2069 0.0000
0.0690 1.2414 0.0000
0.0690 1.2759 0.0000
0.0690 1.3103 0.0000
0.0690 1.3448 0.0000
0.0690 1.3793 0.0000
0.0690 1.4138 0.0000
0.0690 1.4483 0.0000
0.0690 1.4828 0.0000
0.0690 1.5172 0.0000
0.0690 1.5517 0.0000
0.0690 1.5862 0.0000
0.0690 1.6207 0.0000
0.0690 1.6552 0.0000
0.0690 1.6897 0.0000
0.0690 1.7241 0.0000
0.0690 1.7586 0.0000
0.0690 1.7931 0.0000
0.0690 1.8276 0.0000
0.0690 1.8621 0.0000
0.0690 1.8966 0.0000
0.0690 1.9310 0.0000
0.0690 1.9655 0.0000
0.0690 2.0000 0.0000
0.1379 1.0000 0.0000
0.1379 1.0345 0.0000
0.1379 1.0690 0.0000
0.1379 1.1034 0.0000
0.1379 1.1379 0.0000
0.1379 1.1724 0.0000
0.1379 1.2069 0.0000
0.1379 1.2414 0.0000
0.1379 1.2759 0.0000
0.1379 1.3103 0.0000
0.1379 1.3448 0.0000
0.1379 1.3793 0.0000
0.1379 1.4138 0.0000
0.1379 1.4483 0.0000
0.1379 1.4828 0.0000
0.1379 1.5172 0.0000
0.1379 1.5517 0.0000
0.1379 1.5862 0.0000
0.1379 1.6207 0.0000
0.1379 1.6552 0.0000
0.1379 1.6897 0.0000
0.1379 1.7241 0.0000
0.1379 1.7586 0.0000
0.1379 1.7931 0.0000
0.1379 1.8276 0.0000
0.1379 1.8621 0.0000
0.1379 1.8966 0.0000
0.1379 1.9310 0.0000
0.1379 1.9655 0.0000
0.1379 2.0000 0.0000
0.2069 1.0000 0.0000
0.2069 1.0345 0.0000
0.2069 1.0690 0.0000
0.2069 1.1034 0.0000
0.2069 1.1379 0.0000
0.2069 1.1724 0.0000
0.2069 1.2069 0.0000
0.2069 1.2414 0.0000
0.2069 1.2759 0.0000
0.2069 1.3103 0.0000
0.2069 1.3448 0.0000
0.2069 1.3793 0.0000
0.2069 1.4138 0.0000
0.2069 1.4483 0.0000
0.2069 1.4828 0.0000
0.2069 1.5172 0.0000
0.2069 1.5517 0.0000
0.2069 1.5862 0.0000
0.2069 1.6207 0.0000
0.2069 1.6552 0.0000
0.2069 1.6897 0.0000
0.2069 1.7241 0.0000
0.2069 1.7586 0.0000
0.2069 1.7931 0.0000
0.2069 1.8276 0.0000
0.2069 1.8621 0.0000
0.2069 1.8966 0.0000
0.2069 1.9310 0.0000
0.2069 1.9655 0.0000
0.2069 2.0000 0.0000
0.2759 1.0000 0.0000
0.2759 1.0345 0.0000
0.2759 1.0690 0.0000
0.2759 1.1034 0.0000
0.2759 1.1379 0.0000
0.2759 1.1724 0.0000
0.2759 1.2069 0.0000
0.2759 1.2414 0.0000
0.2759 1.2759 0.0000
0.2759 1.3103 0.0000
0.2759 1.3448 0.0000
0.2759 1.3793 0.0000
0.2759 1.4138 0.0000
0.2759 1.4483 0.0000
0.2759 1.4828 0.0000
0.2759 1.5172 0.0000
0.2759 1.5517 0.0000
0.2759 1.5862 0.0000
0.2759 1.6207 0.0000
0.2759 1.6552 0.0000
0.2759 1.6897 0.0000
0.2759 1.7241 0.0000
0.2759 1.7586 0.0000
0.2759 1.7931 0.0000
0.2759 1.8276 0.0000
0.2759 1.8621 0.0000
0.2759 1.8966 0.0000
0.2759 1.9310 0.0000
0.2759 1.9655 0.0000
0.2759 2.0000 0.0000
0.3448 1.0000 0.0000
0.3448 1.0345 0.0000
0.3448 1.0690 0.0000
0.3448 1.1034 0.0000
0.3448 1.1379 0.0000
0.3448 1.1724 0.0000
0.3448 1.2069 0.0000
0.3448 1.2414 0.0000
0.3448 1.2759 0.0000
0.3448 1.3103 0.0000
0.3448 1.3448 0.0000
0.3448 1.3793 0.0000
0.3448 1.4138 0.0000
0.3448 1.4483 0.0000
0.3448 1.4828 0.0000
0.3448 1.5172 0.0000
0.3448 1.5517 0.0000
0.3448 1.5862 0.0000
0.3448 1.6207 0.0000
0.3448 1.6552 0.0000
0.3448 1.6897 0.0000
0.3448 1.7241 0.0000
0.3448 1.7586 0.0000
0.3448 1.7931 0.0000
0.3448 1.8276 0.0000
0.3448 1.8621 0.0000
0.3448 1.8966 0.0000
0.3448 1.9310 0.0000
0.3448 1.9655 0.0000
0.3448 2.0000 0.0000
0.4138 1.0000 0.0000
0.4138 1.0345 0.0000
0.4138 1.0690 0.0000
0.4138 1.1034 0.0000
0.4138 1.1379 0.0000
0.4138 1.1724 0.0000
0.4138 1.2069 0.0000
0.4138 1.2414 0.0000
0.4138 1.2759 0.0000
0.4138 1.3103 0.0000
0.4138 1.3448 0.0000
0.4138 1.3793 0.0000
0.4138 1.4138 0.0000
0.4138 1.4483 0.0000
0.4138 1.4828 0.0000
0.4138 1.5172 0.0000
0.4138 1.5517 0.0000
0.4138 1.5862 0.0000
0.4138 1.6207 0.0000
0.4138 1.6552 0.0000
0.4138 1.6897 0.0000
0.4138 1.7241 0.0000
0.4138 1.7586 0.0000
0.4138 1.7931 0.0000
0.4138 1.8276 0.0000
0.4138 1.8621 0.0000
0.4138 1.8966 0.0000
0.4138 1.9310 0.0000
0.4138 1.9655 0.0000
0.4138 2.0000 0.0000
0.4828 1.0000 0.0000
0.4828 1.0345 0.0000
0.4828 1.0690 0.0000
0.4828 1.1034 0.0000
0.4828 1.1379 0.0000
0.4828 1.1724 0.0000
0.4828 1.2069 0.0000
0.4828 1.2414 0.0000
0.4828 1.2759 0.0000
0.4828 1.3103 0.0000
0.4828 1.3448 0.0000
0.4828 1.3793 0.0000
0.4828 1.4138 0.0000
0.4828 1.4483 0.0000
0.4828 1.4828 0.0000
0.4828 1.5172 0.0000
0.4828 1.5517 0.0000
0.4828 1.5862 0.0000
0.4828 1.6207 0.0000
0.4828 1.6552 0.0000
0.4828 1.6897 0.0000
0.4828 1.7241 0.0000
0.4828 1.7586 0.0000
0.4828 1.7931 0.0000
0.4828 1.8276 0.0000
0.4828 1.8621 0.0000
0.4828 1.8966 0.0000
0.4828 1.9310 0.0000
0.4828 1.9655 0.0000
0.4828 2.0000 0.0000
0.5517 1.0000 0.0000
0.5517 1.0345 0.0000
0.5517 1.0690 0.0000
0.5517 1.1034 0.0000
0.5517 1.1379 0.0000
0.5517 1.1724 0.0000
0.5517 1.2069 0.0000
0.5517 1.2414 0.0000
0.5517 1.2759 0.0000
0.5517 1.3103 0.0000
0.5517 1.3448 0.0000
0.5517 1.3793 0.0000
0.5517 1.4138 0.0000
0.5517 1.4483 0.0000
0.5517 1.4828 0.0000
0.5517 1.5172 0.0000
0.5517 1.5517 0.0000
0.5517 1.5862 0.0000
0.5517 1.6207 0.0000
0.5517 1.6552 0.0000
0.5517 1.6897 0.0000
0.5517 1.7241 0.0000
0.5517 1.7586 0.0000
0.5517 1.7931 0.0000
0.5517 1.8276 0.0000
0.5517 1.8621 0.0000
0.5517 1.8966 0.0000
0.5517 1.9310 0.0000
0.5517 1.9655 0.0000
0.5517 2.0000 0.0000
0.6207 1.0000 0.0000
0.6207 1.0345 0.0000
0.6207 1.0690 0.0000
0.6207 1.1034 0.0000
0.6207 1.1379 0.0000
0.6207 1.1724 0.0000
0.6207 1.2069 0.0000
0.6207 1.2414 0.0000
0.6207 1.2759 0.0000
0.6207 1.3103 0.0000
0.6207 1.3448 0.0000
0.6207 1.3793 0.0000
0.6207 1.4138 0.0000
0.6207 1.4483 0.0000
0.6207 1.4828 0.0000
0.6207 1.5172 0.0000
0.6207 1.5517 0.0000
0.6207 1.5862 0.0000
0.6207 1.6207 0.0000
0.6207 1.6552 0.0000
0.6207 1.6897 0.0000
0.6207 1.7241 0.0000
0.6207 1.7586 0.0000
0.6207 1.7931 0.0000
0.6207 1.8276 0.0000
0.6207 1.8621 0.0000
0.6207 1.8966 0.0000
0.6207 1.9310 0.0000
0.6207 1.9655 0.0000
0.6207 2.0000 0.0000
0.6897 1.0000 0.0000
0.6897 1.0345 0.0000
0.6897 1.0690 0.0000
0.6897 1.1034 0.0000
0.6897 1.1379 0.0000
0.6897 1.1724 0.0000
0.6897 1.2069 0.0000
0.6897 1.2414 0.0000
0.6897 1.2759 0.0000
0.6897 1.3103 0.0000
0.6897 1.3448 0.0000
0.6897 1.3793 0.0000
0.6897 1.4138 0.0000
0.6897 1.4483 0.0000
0.6897 1.4828 0.0000
0.6897 1.5172 0.0000
0.6897 1.5517 0.0000
0.6897 1.5862 0.0000
0.6897 1.6207 0.0000
0.6897 1.6552 0.0000
0.6897 1.6897 0.0000
0.6897 1.7241 0.0000
0.6897 1.7586 0.0000
0.6897 1.7931 0.0000
0.6897 1.8276 0.0000
0.6897 1.8621 0.0000
0.6897 1.8966 0.0000
0.6897 1.9310 0.0000
0.6897 1.9655 0.0000
0.6897 2.0000 0.0000
0.7586 1.0000 0.0000
0.7586 1.0345 0.0000
0.7586 1.0690 0.0000
0.7586 1.1034 0.0000
0.7586 1.1379 0.0000
0.7586 1.1724 0.0000
0.7586 1.2069 0.0000
0.7586 1.2414 0.0000
0.7586 1.2759 0.0000
0.7586 1.3103 0.0000
0.7586 1.3448 0.0000
0.7586 1.3793 0.0000
0.7586 1.4138 0.0000
0.7586 1.4483 0.0000
0.7586 1.4828 0.0000
0.7586 1.5172 0.0000
0.7586 1.5517 0.0000
0.7586 1.5862 0.0000
0.7586 1.6207 0.0000
0.7586 1.6552 0.0000
0.7586 1.6897 0.0000
0.7586 1.7241 0.0000
0.7586 1.7586 0.0000
0.7586 1.7931 0.0000
0.7586 1.8276 0.0000
0.7586 1.8621 0.0000
0.7586 1.8966 0.0000
0.7586 1.9310 0.0000
0.7586 1.9655 0.0000
0.7586 2.0000 0.0000
0.8276 1.0000 0.0000
0.8276 1.0345 0.0000
0.8276 1.0690 0.0000
0.8276 1.1034 0.0000
0.8276 1.1379 0.0000
0.8276 1.1724 0.0000
0.8276 1.2069 0.0000
0.8276 1.2414 0.0000
0.8276 1.2759 0.0000
0.8276 1.3103 0.0000
0.8276 1.3448 0.0000
0.8276 1.3793 0.0000
0.8276 1.4138 0.0000
0.8276 1.4483 0.0000
0.8276 1.4828 0.0000
0.8276 1.5172 0.0000
0.8276 1.5517 0.0000
0.8276 1.5862 0.0000
0.8276 1.6207 0.0000
0.8276 1.6552 0.0000
0.8276 1.6897 0.0000
0.8276 1.7241 0.0000
0.8276 1.7586 0.0000
0.8276 1.7931 0.0000
0.8276 1.8276 0.0000
0.8276 1.8621 0.0000
0.8276 1.8966 0.0000
0.8276 1.9310 0.0000
0.8276 1.9655 0.0000
0.8276 2.0000 0.0000
0.8966 1.0000 0.0000
0.8966 1.0345 0.0000
0.8966 1.0690 0.0000
0.8966 1.1034 0.0000
0.8966 1.1379 0.0000
0.8966 1.1724 0.0000
0.8966 1.2069 0.0000
0.8966 1.2414 0.0000
0.8966 1.2759 0.0000
0.8966 1.3103 0.0000
0.8966 1.3448 0.0000
0.8966 1.3793 0.0000
0.8966 1.4138 0.0000
0.8966 1.4483 0.0000
0.8966 1.4828 0.0000
0.8966 1.5172 0.0000
0.8966 1.5517 0.0000
0.8966 1.5862 0.0000
0.8966 1.6207 0.0000
0.8966 1.6552 0.0000
0.8966 1.6897 0.0000
0.8966 1.7241 0.0000
0.8966 1.7586 0.0000
0.8966 1.7931 0.0000
0.8966 1.8276 0.0000
0.8966 1.8621 0.0000
0.8966 1.8966 0.0000
0.8966 1.9310 0.0000
0.8966 1.9655 0.0000
0.8966 2.0000 0.0000
0.9655 1.0000 0.0000
0.9655 1.0345 0.0000
0.9655 1.0690 0.0000
0.9655 1.1034 0.0000
0.9655 1.1379 0.0000
0.9655 1.1724 0.0000
0.9655 1.2069 0.0000
0.9655 1.2414 0.0000
0.9655 1.2759 0.0000
0.9655 1.3103 0.0000
0.9655 1.3448 0.0000
0.9655 1.3793 0.0000
0.9655 1.4138 0.0000
0.9655 1.4483 0.0000
0.9655 1.4828 0.0000
0.9655 1.5172 0.0000
0.9655 1.5517 0.0000
0.9655 1.5862 0.0000
0.9655 1.6207 0.0000
0.9655 1.6552 0.0000
0.9655 1.6897 0.0000
0.9655 1.7241 0.0000
0.9655 1.7586 0.0000
0.9655 1.7931 0.0000
0.9655 1.8276 0.0000
0.9655 1.8621 0.0000
0.9655 1.8966 0.0000
0.9655 1.9310 0.0000
0.9655 1.9655 0.0000
0.9655 2.0000 0.0000
1.0345 1.0000 0.0000
1.0345 1.0345 0.0000
1.0345 1.0690 0.0000
1.0345 1.1034 0.0000
1.0345 1.1379 0.0000
1.0345 1.1724 0.0000
1.0345 1.2069 0.0000
1.0345 1.2414 0.0000
1.0345 1.2759 0.0000
1.0345 1.3103 0.0000
1.0345 1.3448 0.0000
[...]
         <PointData>
            <DataArray Name="fValues" NumberOfComponents="3" format="ascii" type="Float64">
-6.32054e-20  5.63275e-23        00000 
 2.14951e-19 -1.37645e-21        00000 
-1.23943e-18  2.46218e-20        00000 
 7.31479e-18 -3.03267e-19        00000 
-3.49314e-17  6.78998e-19        00000 
 8.43460e-17  1.14401e-18        00000 
-4.65752e-17 -7.74002e-19        00000 
 6.58331e-18  2.61780e-19        00000 
-1.11921e-18 -3.17888e-20        00000 
 1.03130e-19  4.01753e-21        00000 
-1.79875e-20 -5.34084e-22        00000 
 2.98686e-21  7.38855e-23        00000 
-4.94552e-22 -1.05382e-23        00000 
 8.58904e-23  1.53917e-24        00000 
-1.44282e-23 -2.29084e-25        00000 
 2.42620e-24  3.46206e-26        00000 
-4.02698e-25 -5.29835e-27        00000 
 6.67700e-26  8.19440e-28        00000 
-1.10818e-26 -1.27870e-28        00000 
 1.83866e-27  2.01066e-29        00000 
-3.02878e-28 -3.18262e-30        00000 
 3.31143e-29  5.06687e-31        00000 
-6.10300e-30 -8.10779e-32        00000 
 1.01188e-30  1.30323e-32        00000 
-1.67164e-31 -2.10323e-33        00000 
 2.77306e-32  3.40654e-34        00000 
-4.61857e-33 -5.53551e-35        00000 
 7.72144e-34  9.02763e-36        00000 
-1.32823e-34 -1.51375e-36        00000 
 4.33367e-35  4.82932e-37        00000 
-3.13622e-08  1.26749e-10        00000 
 7.42301e-07 -1.78019e-11        00000 
-2.75497e-05 -8.62339e-12        00000 
 1.01909e-03 -1.38500e-12        00000 
-3.61265e-02 -1.83580e-14        00000 
 8.55069e-01  7.23483e-14        00000 
-9.98798e-03  2.56095e-18        00000 
-6.59199e-18 -1.39903e-19        00000 
 1.14103e-18  1.83775e-20        00000 
-1.08471e-19 -2.58632e-21        00000 
 1.72027e-20  3.72419e-22        00000 
-2.83161e-21 -5.46098e-23        00000 
 4.68123e-22  8.13566e-24        00000 
-8.31174e-23 -1.22879e-24        00000 
 1.41230e-23  1.87800e-25        00000 
-2.31489e-24 -2.89954e-26        00000 
 3.83123e-25  4.51628e-27        00000 
-6.36570e-26 -7.08837e-28        00000 
 1.05638e-26  1.11997e-28        00000 
-1.75193e-27 -1.77997e-29        00000 
 2.88939e-28  2.84361e-30        00000 
-3.87103e-29 -4.56380e-31        00000 
 5.82462e-30  7.35479e-32        00000 
-9.56266e-31 -1.18965e-32        00000 
 1.58943e-31  1.93070e-33        00000 
-2.65319e-32 -3.14285e-34        00000 
 4.44014e-33  5.13018e-35        00000 
-7.44984e-34 -8.40101e-36        00000 
 1.28516e-34  1.41416e-36        00000 
-4.20185e-35 -4.52616e-37        00000 
-2.98641e-10 -1.03505e-09        00000 
 6.04452e-09  9.01596e-12        00000 
-2.24423e-07  1.71612e-14        00000 
 8.33766e-06 -3.13807e-13        00000 
-3.05333e-04 -7.23808e-14        00000 
 9.98798e-03 -3.38653e-18        00000 
-2.70651e-17  2.38712e-18        00000 
 2.85935e-18 -8.91687e-20        00000 
-4.87206e-19  5.24906e-21        00000 
 8.58411e-20 -1.18698e-22        00000 
-1.43908e-20 -4.57406e-23        00000 
 2.35322e-21  1.35185e-23        00000 
-3.90606e-22 -2.79334e-24        00000 
 8.16984e-23  5.15006e-25        00000 
-1.18749e-23 -9.02299e-26        00000 
 1.95853e-24  1.53985e-26        00000 
-3.29406e-25 -2.58999e-27        00000 
 5.46327e-26  4.32034e-28        00000 
-9.03053e-27 -7.17268e-29        00000 
 1.50251e-27  1.18772e-29        00000 
-2.50936e-28 -1.96420e-30        00000 
 2.71055e-29  3.24685e-31        00000 
-4.75373e-30 -5.36754e-32        00000 
 8.11303e-31  8.87716e-33        00000 
-1.38067e-31 -1.46911e-33        00000 
 2.34252e-32  2.43319e-34        00000 
-3.96676e-33 -4.03352e-35        00000 
 6.71552e-34  6.69734e-36        00000 
-1.16702e-34 -1.14214e-36        00000 
 3.83653e-35  3.69491e-37        00000 
 2.02192e-20  1.18796e-21        00000 
-5.30505e-20 -4.22956e-21        00000 
 2.42965e-19  2.92605e-20        00000 
-9.57169e-19 -2.04324e-19        00000 
 1.76742e-18  2.17689e-19        00000 
-3.48915e-18  1.73997e-19        00000 
 3.32179e-18 -3.19686e-19        00000 
-1.47161e-18  1.18914e-19        00000 
 2.63279e-19 -1.35969e-20        00000 
-6.02767e-20  1.53621e-21        00000 
 9.47532e-21 -1.70142e-22        00000 
-1.61800e-21  1.81844e-23        00000 
 2.82095e-22 -1.81254e-24        00000 
-3.39702e-23  1.54044e-25        00000 
 8.00696e-24 -7.38822e-27        00000 
-1.52077e-24 -1.06466e-27        00000 
 2.45910e-25  4.70422e-28        00000 
-3.96600e-26 -1.16377e-28        00000 
 6.61068e-27  2.43934e-29        00000 
-1.16656e-27 -4.73299e-30        00000 
 2.06918e-28  8.79296e-31        00000 
-1.80581e-29 -1.58992e-31        00000 
 3.62355e-30  2.82353e-32        00000 
-6.50061e-31 -4.95192e-33        00000 
 1.13104e-31  8.60703e-34        00000 
-1.94747e-32 -1.48617e-34        00000 
 3.33675e-33  2.55358e-35        00000 
-5.70555e-34 -4.37471e-36        00000 
 1.00048e-34  7.67692e-37        00000 
-3.31281e-35 -2.54137e-37        00000 
-7.38409e-21 -8.23636e-22        00000 
 2.14530e-20  2.44765e-21        00000 
-7.02525e-20 -1.18624e-20        00000 
 1.46803e-19  2.58673e-20        00000 
-3.40564e-19 -1.73648e-20        00000 
 4.38792e-19 -1.77271e-20        00000 
-3.74759e-19  3.68270e-20        00000 
 1.93808e-19 -2.40562e-20        00000 
-8.97048e-20  7.36342e-21        00000 
 1.52164e-20 -1.24523e-21        00000 
-4.18226e-21  1.85096e-22        00000 
 9.62699e-22 -2.60803e-23        00000 
-1.93613e-22  3.56804e-24        00000 
 2.86583e-23 -4.78057e-25        00000 
-8.15207e-24  6.28235e-26        00000 
 8.43768e-25 -8.07109e-27        00000 
-1.14839e-25  1.00517e-27        00000 
 1.91910e-26 -1.19324e-28        00000 
-4.51623e-27  1.30287e-29        00000 
 1.02615e-27 -1.19046e-30        00000 
-1.73450e-28  5.72134e-32        00000 
 1.99359e-29  1.09286e-32        00000 
-3.08058e-30 -4.80905e-33        00000 
 5.21783e-31  1.24096e-33        00000 
-8.98485e-32 -2.71959e-34        00000 
 1.55022e-32  5.50541e-35        00000 
-2.67277e-33 -1.06400e-35        00000 
 4.60579e-34  1.99735e-36        00000 
-8.14544e-35 -3.78313e-37        00000 
 2.71751e-35  1.32590e-37        00000 
 3.03728e-21  3.76102e-22        00000 
-5.75098e-21 -8.41981e-22        00000 
 1.40323e-20  2.19459e-21        00000 
-3.02314e-20 -3.21121e-21        00000 
 4.66821e-20  1.61739e-21        00000 
-6.56521e-20  2.21475e-21        00000 
 5.79004e-20 -4.63069e-21        00000 
-3.66804e-20  3.83129e-21        00000 
 1.69936e-20 -1.79042e-21        00000 
-5.99211e-21  5.17309e-22        00000 
 1.41739e-21 -1.04855e-22        00000 
-3.58285e-22  1.83751e-23        00000 
 8.28148e-23 -2.99150e-24        00000 
-1.70628e-23  4.66739e-25        00000 
 3.28063e-24 -7.08740e-26        00000 
-6.77457e-25  1.05601e-26        00000 
 1.04838e-25 -1.55051e-27        00000 
-1.64472e-26  2.24769e-28        00000 
 2.80902e-27 -3.21791e-29        00000 
-5.40568e-28  4.54459e-30        00000 
 6.42528e-29 -6.31477e-31        00000 
-1.42500e-29  8.59322e-32        00000 
 2.36912e-30 -1.13636e-32        00000 
-3.97550e-31  1.44049e-33        00000 
 6.80663e-32 -1.70467e-34        00000 
-1.17615e-32  1.76969e-35        00000 
 2.03885e-33 -1.29536e-36        00000 
-3.53934e-34 -4.09924e-38        00000 
 6.31352e-35  4.98517e-38        00000 
-2.12308e-35 -2.79503e-38        00000 
-8.52639e-22 -1.19010e-22        00000 
 1.33025e-21  1.91167e-22        00000 
-2.83240e-21 -3.51435e-22        00000 
 5.18502e-21  4.08352e-22        00000 
-7.42669e-21 -1.60000e-22        00000 
 9.81047e-21 -3.04448e-22        00000 
-9.13989e-21  6.21074e-22        00000 
 6.33880e-21 -5.83431e-22        00000 
-3.36697e-21  3.43113e-22        00000 
 1.40652e-21 -1.36545e-22        00000 
-4.57406e-22  3.89135e-23        00000 
 1.21141e-22 -8.68950e-24        00000 
-3.06163e-23  1.69463e-24        00000 
 7.16285e-24 -3.05063e-25        00000 
-1.54520e-24  5.22015e-26        00000 
 3.17542e-25 -8.63399e-27        00000 
-6.31273e-26  1.39426e-27        00000 
 1.12138e-26 -2.21214e-28        00000 
-1.93772e-27  3.46219e-29        00000 
 3.38112e-28 -5.35862e-30        00000 
-3.34302e-29  8.21446e-31        00000 
 7.23154e-30 -1.24814e-31        00000 
-1.46145e-30  1.88008e-32        00000 
 2.67076e-31 -2.80648e-33        00000 
-4.74103e-32  4.14776e-34        00000 
 8.35396e-33 -6.05956e-35        00000 
-1.46842e-33  8.72921e-36        00000 
 2.57929e-34 -1.23566e-36        00000 
-4.65325e-35  1.73643e-37        00000 
 1.57984e-35 -4.56589e-38        00000 
 2.02062e-22  2.83901e-23        00000 
-2.86123e-22 -3.73346e-23        00000 
 5.31022e-22  5.40739e-23        00000 
-8.81411e-22 -5.32903e-23        00000 
 1.19117e-21  1.59156e-23        00000 
-1.51721e-21  4.41736e-23        00000 
 1.44762e-21 -8.71624e-23        00000 
-1.07276e-21  8.83966e-23        00000 
 6.24819e-22 -6.00324e-23        00000 
-2.99118e-22  2.93014e-23        00000 
 1.15503e-22 -1.06858e-23        00000 
-3.67345e-23  3.04345e-24        00000 
 1.01599e-23 -7.20527e-25        00000 
-2.61619e-24  1.51208e-25        00000 
 6.23440e-25 -2.93062e-26        00000 
-1.40316e-25  5.37949e-27        00000 
 3.00467e-26 -9.50195e-28        00000 
-6.06413e-27  1.63181e-28        00000 
 1.14051e-27 -2.74372e-29        00000 
-2.01249e-28  4.53841e-30        00000 
 2.74367e-29 -7.41004e-31        00000 
-4.63656e-30  1.19707e-31        00000 
 8.68189e-31 -1.91657e-32        00000 
-1.64721e-31  3.04466e-33        00000 
 3.04659e-32 -4.80273e-34        00000 
-5.53249e-33  7.52600e-35        00000 
 9.94253e-34 -1.17177e-35        00000 
-1.77718e-34  1.81341e-36        00000 
 3.25571e-35 -2.84840e-37        00000 
-1.11889e-35  8.49006e-38        00000 
-3.97564e-23 -5.82740e-24        00000 
 3.39746e-23  6.78733e-24        00000 
-9.20379e-23 -8.26021e-24        00000 
 1.35418e-22  7.12269e-24        00000 
-2.43122e-22 -1.50464e-24        00000 
 2.66673e-22 -6.63071e-24        00000 
-2.40261e-22  1.26407e-23        00000 
 1.77236e-22 -1.34688e-23        00000 
-1.13122e-22  1.00880e-23        00000 
 5.90594e-23 -5.66691e-24        00000 
-2.60100e-23  2.46520e-24        00000 
 8.81529e-24 -8.53828e-25        00000 
-3.29532e-24  2.43881e-25        00000 
 8.33204e-25 -6.00228e-26        00000 
-2.37881e-25  1.32774e-26        00000 
 6.35437e-26 -2.72191e-27        00000 
-1.35003e-26  5.28061e-28        00000 
 2.99195e-27 -9.83431e-29        00000 
-4.44538e-28  1.77565e-29        00000 
 9.50199e-29 -3.13024e-30        00000 
-1.71433e-29  5.41509e-31        00000 
 3.08265e-30 -9.22698e-32        00000 
-5.50682e-31  1.55291e-32        00000 
 1.01191e-31 -2.58682e-33        00000 
-1.88085e-32  4.27175e-34        00000 
 3.47832e-33 -7.00135e-35        00000 
-6.37749e-34  1.13995e-35        00000 
 1.16142e-34 -1.84614e-36        00000 
-2.16523e-35  3.04530e-37        00000 
 7.54690e-36 -9.50963e-38        00000 
 6.78606e-24  1.09888e-24        00000 
-9.01604e-24 -1.18538e-24        00000 
 1.55844e-23  1.26707e-24        00000 
-2.62889e-23 -9.73573e-25        00000 
 4.01338e-23  1.21410e-25        00000 
-4.29306e-23  1.01818e-24        00000 
 3.91293e-23 -1.87875e-24        00000 
-3.02161e-23  2.06957e-24        00000 
 1.99093e-23 -1.66313e-24        00000 
-1.13106e-23  1.03487e-24        00000 
 5.41684e-24 -5.12953e-25        00000 
-2.19992e-24  2.06770e-25        00000 
 7.89086e-25 -6.93125e-26        00000 
-2.59707e-25  1.98670e-26        00000 
 7.32007e-26 -5.02642e-27        00000 
-2.04009e-26  1.15648e-27        00000 
 5.24770e-27 -2.47704e-28        00000 
-1.20230e-27  5.02491e-29        00000 
 2.55460e-28 -9.77609e-30        00000 
-4.77230e-29  1.84085e-30        00000 
 9.44026e-30 -3.37773e-31        00000 
-1.78777e-30  6.06999e-32        00000 
 3.32356e-31 -1.07245e-32        00000 
-6.12833e-32  1.86846e-33        00000 
 1.13581e-32 -3.21736e-34        00000 
-2.11252e-33  5.48542e-35        00000 
 3.92149e-34 -9.27336e-36        00000 
-7.25132e-35  1.55729e-36        00000 
 1.37456e-35 -2.66535e-37        00000 
-4.86044e-36  8.60122e-38        00000 
-1.43329e-24 -1.96866e-25        00000 
 1.80846e-24  2.01943e-25        00000 
-2.91451e-24 -1.95822e-25        00000 
 4.64676e-24  1.35925e-25        00000 
-6.44935e-24 -5.17357e-27        00000 
 6.96881e-24 -1.58829e-25        00000 
-6.41547e-24  2.84539e-25        00000 
 5.09618e-24 -3.20775e-25        00000 
-3.51183e-24  2.71706e-25        00000 
 2.09689e-24 -1.82696e-25        00000 
-1.08624e-24  1.00078e-25        00000 
 4.86343e-25 -4.54315e-26        00000 
-1.91091e-25  1.73670e-26        00000 
 6.74771e-26 -5.69492e-27        00000 
-2.15687e-26  1.63771e-27        00000 
 6.27797e-27 -4.22987e-28        00000 
-1.73511e-27  1.00322e-28        00000 
 4.44834e-28 -2.22533e-29        00000 
-1.04602e-28  4.68285e-30        00000 
 2.27509e-29 -9.45084e-31        00000 
-4.61951e-30  1.84449e-31        00000 
 9.26351e-31 -3.50337e-32        00000 
-1.80845e-31  6.50774e-33        00000 
 3.46177e-32 -1.18679e-33        00000 
-6.54879e-33  2.13120e-34        00000 
 1.23333e-33 -3.77767e-35        00000 
-2.31694e-34  6.62245e-36        00000 
 4.34226e-35 -1.15085e-36        00000 
-8.35876e-36  2.03767e-37        00000 
 2.99700e-36 -6.77072e-38        00000 
 2.91876e-25  3.41355e-26        00000 
-3.55186e-25 -3.38438e-26        00000 
 5.36637e-25  3.04962e-26        00000 
-7.93598e-25 -1.93579e-26        00000 
 9.61652e-25 -9.23434e-28        00000 
-1.12732e-24  2.50525e-26        00000 
 1.05652e-24 -4.37324e-26        00000 
-8.57534e-25  5.01232e-26        00000 
 5.96049e-25 -4.42125e-26        00000 
-3.81612e-25  3.15860e-26        00000 
 2.10370e-25 -1.87204e-26        00000 
-1.01699e-25  9.34391e-27        00000 
 4.34155e-26 -3.97722e-27        00000 
-1.65880e-26  1.46295e-27        00000 
 5.74762e-27 -4.72301e-28        00000 
-1.82139e-27  1.36217e-28        00000 
 5.34890e-28 -3.57501e-29        00000 
-1.47629e-28  8.68585e-30        00000 
 3.80075e-29 -1.98241e-30        00000 
-9.09675e-30  4.30112e-31        00000 
 2.03577e-30 -8.95517e-32        00000 
-4.32085e-31  1.80261e-32        00000 
 8.90075e-32 -3.52872e-33        00000 
-1.78560e-32  6.74904e-34        00000 
 3.50833e-33 -1.26588e-34        00000 
-6.79222e-34  2.33543e-35        00000 
 1.30259e-34 -4.24845e-36        00000 
-2.48420e-35  7.64221e-37        00000 
 4.86459e-36 -1.39964e-37        00000 
-1.76987e-36  4.78551e-38        00000 
-4.71758e-26 -5.79185e-27        00000 
 8.69588e-26  5.60824e-27        00000 
-1.02352e-25 -4.78102e-27        00000 
 1.52379e-25  2.80750e-27        00000 
-1.59672e-25  3.67473e-28        00000 
 1.86710e-25 -3.98300e-27        00000 
-1.93013e-25  6.80021e-27        00000 
 1.44323e-25 -7.88917e-27        00000 
-1.04475e-25  7.18523e-27        00000 
 6.81290e-26 -5.38853e-27        00000 
-3.97161e-26  3.40323e-27        00000 
 2.04519e-26 -1.83489e-27        00000 
-9.37409e-27  8.53487e-28        00000 
 3.85568e-27 -3.46000e-28        00000 
-1.43781e-27  1.23644e-28        00000 
 4.90808e-28 -3.94600e-29        00000 
-1.54762e-28  1.14096e-29        00000 
 4.55407e-29 -3.03296e-30        00000 
-1.25848e-29  7.51439e-31        00000 
 3.26088e-30 -1.75604e-31        00000 
-7.92541e-31  3.90961e-32        00000 
 1.81735e-31 -8.36083e-33        00000 
-3.97625e-32  1.72890e-33        00000 
 8.40776e-33 -3.47564e-34        00000 
-1.72928e-33  6.82246e-35        00000 
 3.47898e-34 -1.31230e-35        00000 
-6.88180e-35  2.48081e-36        00000 
 1.34591e-35 -4.62472e-37        00000 
-2.69522e-36  8.77001e-38        00000 
 9.97999e-37 -3.08700e-38        00000 
 1.19517e-26  9.68197e-28        00000 
-1.41519e-26 -9.21918e-28        00000 
 1.90706e-26  7.53585e-28        00000 
-2.41908e-26 -4.13838e-28        00000 
 2.81105e-26 -8.68590e-29        00000 
-3.08120e-26  6.36889e-28        00000 
 3.02768e-26 -1.06731e-27        00000 
-2.49656e-26  1.24969e-27        00000 
 1.79581e-26 -1.16795e-27        00000 
-1.21375e-26  9.11335e-28        00000 
 7.35279e-27 -6.06447e-28        00000 
-3.99481e-27  3.48527e-28        00000 
 1.94584e-27 -1.74586e-28        00000 
-8.54657e-28  7.68629e-29        00000 
 3.40983e-28 -3.00010e-29        00000 
-1.24587e-28  1.04840e-29        00000 
 4.20248e-29 -3.31652e-30        00000 
-1.31921e-29  9.61053e-31        00000 
 3.88206e-30 -2.58156e-31        00000 
-1.07524e-30  6.50024e-32        00000 
 2.80583e-31 -1.54951e-32        00000 
-6.91355e-32  3.52674e-33        00000 
 1.61746e-32 -7.71911e-34        00000 
-3.62356e-33  1.63439e-34        00000 
 7.84126e-34 -3.36411e-35        00000 
-1.64942e-34  6.75897e-36        00000 
 3.39058e-35 -1.33005e-36        00000 
-6.85130e-36  2.57349e-37        00000 
 1.41240e-36 -5.06052e-38        00000 
-5.34690e-37  1.83555e-38        00000 
-2.29806e-27 -1.60162e-28        00000 
 2.58701e-27  1.50670e-28        00000 
-3.29026e-27 -1.19277e-28        00000 
 4.08456e-27  6.18652e-29        00000 
-4.73926e-27  1.75462e-29        00000 
 5.09415e-27 -1.02275e-28        00000 
-4.93014e-27  1.68783e-28        00000 
 4.18084e-27 -1.99065e-28        00000 
-3.14042e-27  1.90036e-28        00000 
 2.14667e-27 -1.53251e-28        00000 
-1.34530e-27  1.06533e-28        00000 
 7.63213e-28 -6.45961e-29        00000 
-3.91684e-28  3.44501e-29        00000 
 1.82260e-28 -1.62741e-29        00000 
-7.72935e-29  6.85746e-30        00000 
 3.00634e-29 -2.59712e-30        00000 
-1.07979e-29  8.91640e-31        00000 
 3.60601e-30 -2.80116e-31        00000 
-1.12711e-30  8.13261e-32        00000 
 3.31528e-31 -2.20363e-32        00000 
-9.20756e-32  5.62451e-33        00000 
 2.41969e-32 -1.36363e-33        00000 
-6.03511e-33  3.16332e-34        00000 
 1.43585e-33 -7.06555e-35        00000 
-3.28011e-34  1.52760e-35        00000 
 7.24273e-35 -3.21127e-36        00000 
-1.55453e-35  6.58883e-37        00000 
 3.26341e-36 -1.32530e-37        00000 
-6.96722e-37  2.70680e-38        00000 
 2.70917e-37 -1.01284e-38        00000 
 4.27342e-28  2.62956e-29        00000 
-4.67934e-28 -2.45182e-29        00000 
 5.70300e-28  1.89384e-29        00000 
-6.91617e-28 -9.35841e-30        00000 
 7.92454e-28 -3.29139e-30        00000 
-8.41307e-28  1.64781e-29        00000 
 8.10941e-28 -2.68558e-29        00000 
-6.99520e-28  3.18636e-29        00000 
 5.46491e-28 -3.09636e-29        00000 
-3.79601e-28  2.56738e-29        00000 
 2.43849e-28 -1.85198e-29        00000 
-1.43466e-28  1.17534e-29        00000 
 7.69649e-29 -6.61311e-30        00000 
-3.76701e-29  3.31941e-30        00000 
 1.68723e-29 -1.49507e-30        00000 
-6.94784e-30  6.07936e-31        00000 
 2.64489e-30 -2.24683e-31        00000 
-9.36222e-31  7.60397e-32        00000 
 3.09951e-31 -2.37557e-32        00000 
-9.64903e-32  6.90853e-33        00000 
 2.83687e-32 -1.88574e-33        00000 
-7.90150e-33  4.86913e-34        00000 
 2.09042e-33 -1.19781e-34        00000 
-5.27044e-34  2.82513e-35        00000 
 1.27203e-34 -6.42391e-36        00000 
-2.95461e-35  1.41494e-36        00000 
 6.64075e-36 -3.03143e-37        00000 
-1.45361e-36  6.34816e-38        00000 
 3.22851e-37 -1.34884e-38        00000 
-1.29442e-37  5.21234e-39        00000 
-7.79967e-29 -4.29350e-30        00000 
 8.38580e-29  3.97681e-30        00000 
-9.88221e-29 -3.01394e-30        00000 
 1.15705e-28  1.42941e-30        00000 
-1.10906e-28  5.92369e-31        00000 
 1.28120e-28 -2.66192e-30        00000 
-1.24983e-28  4.29492e-30        00000 
 1.11338e-28 -5.12181e-30        00000 
-9.17977e-29  5.05297e-30        00000 
 6.66921e-29 -4.29043e-30        00000 
-4.39130e-29  3.19467e-30        00000 
 2.66325e-29 -2.10857e-30        00000 
-1.48409e-29  1.24255e-30        00000 
 7.59108e-30 -6.57416e-31        00000 
-3.56946e-30  3.13871e-31        00000 
 1.54787e-30 -1.35906e-31        00000 
-6.21642e-31  5.36617e-32        00000 