<?xml version="1.0" encoding="utf-8"?>
<VTKFile byte_order="LittleEndian" type="UnstructuredGrid" version="0.1">
   <UnstructuredGrid>
      <Piece NumberOfCells="3364" NumberOfPoints="1741">
         <Points>
            <DataArray Name="Points" NumberOfComponents="3" format="ascii" type="Float32">
0.0000 1.0000 0.0000
0.0000 1.0345 0.0000
0.0000 1.0690 0.0000
0.0000 1.1034 0.0000
0.0000 1.1379 0.0000
0.0000 1.1724 0.0000
0.0000 1.2069 0.0000
0.0000 1.2414 0.0000
0.0000 1.2759 0.0000
0.0000 1.3103 0.0000
0.0000 1.3448 0.0000
0.0000 1.3793 0.0000
0.0000 1.4138 0.0000
0.0000 1.4483 0.0000
0.0000 1.4828 0.0000
0.0000 1.5172 0.0000
0.0000 1.5517 0.0000
0.0000 1.5862 0.0000
0.0000 1.6207 0.0000
0.0000 1.6552 0.0000
0.0000 1.6897 0.0000
0.0000 1.7241 0.0000
0.0000 1.7586 0.0000
0.0000 1.7931 0.0000
0.0000 1.8276 0.0000
0.0000 1.8621 0.0000
0.0000 1.8966 0.0000
0.0000 1.9310 0.0000
0.0000 1.9655 0.0000
0.0000 2.0000 0.0000
0.0690 1.0000 0.0000
0.0690 1.0345 0.0000
0.0690 1.0690 0.0000
0.0690 1.1034 0.0000
0.0690 1.1379 0.0000
0.0690 1.1724 0.0000
0.0690 1.2069 0.0000
0.0690 1.2414 0.0000
0.0690 1.2759 0.0000
0.0690 1.3103 0.0000
0.0690 1.3448 0.0000
0.0690 1.3793 0.0000
0.0690 1.4138 0.0000
0.0690 1.4483 0.0000
0.0690 1.4828 0.0000
0.0690 1.5172 0.0000
0.0690 1.5517 0.0000
0.0690 1.5862 0.0000
0.0690 1.6207 0.0000
0.0690 1.6552 0.0000
0.0690 1.6897 0.0000
0.0690 1.7241 0.0000
0.0690 1.7586 0.0000
0.0690 1.7931 0.0000
0.0690 1.8276 0.0000
0.0690 1.8621 0.0000
0.0690 1.8966 0.0000
0.0690 1.9310 0.0000
0.0690 1.9655 0.0000
0.0690 2.0000 0.0000
0.1379 1.0000 0.0000
0.1379 1.0345 0.0000
0.1379 1.0690 0.0000
0.1379 1.1034 0.0000
0.1379 1.1379 0.0000
0.1379 1.1724 0.0000
0.1379 1.2069 0.0000
0.1379 1.2414 0.0000
0.1379 1.2759 0.0000
0.1379 1.3103 0.0000
0.1379 1.3448 0.0000
0.1379 1.3793 0.0000
0.1379 1.4138 0.0000
0.1379 1.4483 0.0000
0.1379 1.4828 0.0000
0.1379 1.5172 0.0000
0.1379 1.5517 0.0000
0.1379 1.5862 0.0000
0.1379 1.6207 0.0000
0.1379 1.6552 0.0000
0.1379 1.6897 0.0000
0.1379 1.7241 0.0000
0.1379 1.7586 0.0000
0.1379 1.7931 0.0000
0.1379 1.8276 0.0000
0.1379 1.8621 0.0000
0.1379 1.8966 0.0000
0.1379 1.9310 0.0000
0.1379 1.9655 0.0000
0.1379 2.0000 0.0000
0.2069 1.0000 0.0000
0.2069 1.0345 0.0000
0.2069 1.0690 0.0000
0.2069 1.1034 0.0000
0.2069 1.1379 0.0000
0.2069 1.1724 0.0000
0.2069 1.2069 0.0000
0.2069 1.2414 0.0000
0.2069 1.2759 0.0000
0.2069 1.3103 0.0000
0.2069 1.3448 0.0000
0.2069 1.3793 0.0000
0.2069 1.4138 0.0000
0.2069 1.4483 0.0000
0.2069 1.4828 0.0000
0.2069 1.5172 0.0000
0.2069 1.5517 0.0000
0.2069 1.5862 0.0000
0.2069 1.6207 0.0000
0.2069 1.6552 0.0000
0.2069 1.6897 0.0000
0.2069 1.7241 0.0000
0.2069 1.7586 0.0000
0.2069 1.7931 0.0000
0.2069 1.8276 0.0000
0.2069 1.8621 0.0000
0.2069 1.8966 0.0000
0.2069 1.9310 0.0000
0.2069 1.9655 0.0000
0.2069 2.0000 0.0000
0.2759 1.0000 0.0000
0.2759 1.0345 0.0000
0.2759 1.0690 0.0000
0.2759 1.1034 0.0000
0.2759 1.1379 0.0000
0.2759 1.1724 0.0000
0.2759 1.2069 0.0000
0.2759 1.2414 0.0000
0.2759 1.2759 0.0000
0.2759 1.3103 0.0000
0.2759 1.3448 0.0000
0.2759 1.3793 0.0000
0.2759 1.4138 0.0000
0.2759 1.4483 0.0000
0.2759 1.4828 0.0000
0.2759 1.5172 0.0000
0.2759 1.5517 0.0000
0.2759 1.5862 0.0000
0.2759 1.6207 0.0000
0.2759 1.6552 0.0000
0.2759 1.6897 0.0000
0.2759 1.7241 0.0000
0.2759 1.7586 0.0000
0.2759 1.7931 0.0000
0.2759 1.8276 0.0000
0.2759 1.8621 0.0000
0.2759 1.8966 0.0000
0.2759 1.9310 0.0000
0.2759 1.9655 0.0000
0.2759 2.0000 0.0000
0.3448 1.0000 0.0000
0.3448 1.0345 0.0000
0.3448 1.0690 0.0000
0.3448 1.1034 0.0000
0.3448 1.1379 0.0000
0.3448 1.1724 0.0000
0.3448 1.2069 0.0000
0.3448 1.2414 0.0000
0.3448 1.2759 0.0000
0.3448 1.3103 0.0000
0.3448 1.3448 0.0000
0.3448 1.3793 0.0000
0.3448 1.4138 0.0000
0.3448 1.4483 0.0000
0.3448 1.4828 0.0000
0.3448 1.5172 0.0000
0.3448 1.5517 0.0000
0.3448 1.5862 0.0000
0.3448 1.6207 0.0000
0.3448 1.6552 0.0000
0.3448 1.6897 0.0000
0.3448 1.7241 0.0000
0.3448 1.7586 0.0000
0.3448 1.7931 0.0000
0.3448 1.8276 0.0000
0.3448 1.8621 0.0000
0.3448 1.8966 0.0000
0.3448 1.9310 0.0000
0.3448 1.9655 0.0000
0.3448 2.0000 0.0000
0.4138 1.0000 0.0000
0.4138 1.0345 0.0000
0.4138 1.0690 0.0000
0.4138 1.1034 0.0000
0.4138 1.1379 0.0000
0.4138 1.1724 0.0000
0.4138 1.2069 0.0000
0.4138 1.2414 0.0000
0.4138 1.2759 0.0000
0.4138 1.3103 0.0000
0.4138 1.3448 0.0000
0.4138 1.3793 0.0000
0.4138 1.4138 0.0000
0.4138 1.4483 0.0000
0.4138 1.4828 0.0000
0.4138 1.5172 0.0000
0.4138 1.5517 0.0000
0.4138 1.5862 0.0000
0.4138 1.6207 0.0000
0.4138 1.6552 0.0000
0.4138 1.6897 0.0000
0.4138 1.7241 0.0000
0.4138 1.7586 0.0000
0.4138 1.7931 0.0000
0.4138 1.8276 0.0000
0.4138 1.8621 0.0000
0.4138 1.8966 0.0000
0.4138 1.9310 0.0000
0.4138 1.9655 0.0000
0.4138 2.0000 0.0000
0.4828 1.0000 0.0000
0.4828 1.0345 0.0000
0.4828 1.0690 0.0000
0.4828 1.1034 0.0000
0.4828 1.1379 0.0000
0.4828 1.1724 0.0000
0.4828 1.2069 0.0000
0.4828 1.2414 0.0000
0.4828 1.2759 0.0000
0.4828 1.3103 0.0000
0.4828 1.3448 0.0000
0.4828 1.3793 0.0000
0.4828 1.4138 0.0000
0.4828 1.4483 0.0000
0.4828 1.4828 0.0000
0.4828 1.5172 0.0000
0.4828 1.5517 0.0000
0.4828 1.5862 0.0000
0.4828 1.6207 0.0000
0.4828 1.6552 0.0000
0.4828 1.6897 0.0000
0.4828 1.7241 0.0000
0.4828 1.7586 0.0000
0.4828 1.7931 0.0000
0.4828 1.8276 0.0000
0.4828 1.8621 0.0000
0.4828 1.8966 0.0000
0.4828 1.9310 0.0000
0.4828 1.9655 0.0000
0.4828 2.0000 0.0000
0.5517 1.0000 0.0000
0.5517 1.0345 0.0000
0.5517 1.0690 0.0000
0.5517 1.1034 0.0000
0.5517 1.1379 0.0000
0.5517 1.1724 0.0000
0.5517 1.2069 0.0000
0.5517 1.2414 0.0000
0.5517 1.2759 0.0000
0.5517 1.3103 0.0000
0.5517 1.3448 0.0000
0.5517 1.3793 0.0000
0.5517 1.4138 0.0000
0.5517 1.4483 0.0000
0.5517 1.4828 0.0000
0.5517 1.5172 0.0000
0.5517 1.5517 0.0000
0.5517 1.5862 0.0000
0.5517 1.6207 0.0000
0.5517 1.6552 0.0000
0.5517 1.6897 0.0000
0.5517 1.7241 0.0000
0.5517 1.7586 0.0000
0.5517 1.7931 0.0000
0.5517 1.8276 0.0000
0.5517 1.8621 0.0000
0.5517 1.8966 0.0000
0.5517 1.9310 0.0000
0.5517 1.9655 0.0000
0.5517 2.0000 0.0000
0.6207 1.0000 0.0000
0.6207 1.0345 0.0000
0.6207 1.0690 0.0000
0.6207 1.1034 0.0000
0.6207 1.1379 0.0000
0.6207 1.1724 0.0000
0.6207 1.2069 0.0000
0.6207 1.2414 0.0000
0.6207 1.2759 0.0000
0.6207 1.3103 0.0000
0.6207 1.3448 0.0000
0.6207 1.3793 0.0000
0.6207 1.4138 0.0000
0.6207 1.4483 0.0000
0.6207 1.4828 0.0000
0.6207 1.5172 0.0000
0.6207 1.5517 0.0000
0.6207 1.5862 0.0000
0.6207 1.6207 0.0000
0.6207 1.6552 0.0000
0.6207 1.6897 0.0000
0.6207 1.7241 0.0000
0.6207 1.7586 0.0000
0.6207 1.7931 0.0000
0.6207 1.8276 0.0000
0.6207 1.8621 0.0000
0.6207 1.8966 0.0000
0.6207 1.9310 0.0000
0.6207 1.9655 0.0000
0.6207 2.0000 0.0000
0.6897 1.0000 0.0000
0.6897 1.0345 0.0000
0.6897 1.0690 0.0000
0.6897 1.1034 0.0000
0.6897 1.1379 0.0000
0.6897 1.1724 0.0000
0.6897 1.2069 0.0000
0.6897 1.2414 0.0000
0.6897 1.2759 0.0000
0.6897 1.3103 0.0000
0.6897 1.3448 0.0000
0.6897 1.3793 0.0000
0.6897 1.4138 0.0000
0.6897 1.4483 0.0000
0.6897 1.4828 0.0000
0.6897 1.5172 0.0000
0.6897 1.5517 0.0000
0.6897 1.5862 0.0000
0.6897 1.6207 0.0000
0.6897 1.6552 0.0000
0.6897 1.6897 0.0000
0.6897 1.7241 0.0000
0.6897 1.7586 0.0000
0.6897 1.7931 0.0000
0.6897 1.8276 0.0000
0.6897 1.8621 0.0000
0.6897 1.8966 0.0000
0.6897 1.9310 0.0000
0.6897 1.9655 0.0000
0.6897 2.0000 0.0000
0.7586 1.0000 0.0000
0.7586 1.0345 0.0000
0.7586 1.0690 0.0000
0.7586 1.1034 0.0000
0.7586 1.1379 0.0000
0.7586 1.1724 0.0000
0.7586 1.2069 0.0000
0.7586 1.2414 0.0000
0.7586 1.2759 0.0000
0.7586 1.3103 0.0000
0.7586 1.3448 0.0000
0.7586 1.3793 0.0000
0.7586 1.4138 0.0000
0.7586 1.4483 0.0000
0.7586 1.4828 0.0000
0.7586 1.5172 0.0000
0.7586 1.5517 0.0000
0.7586 1.5862 0.0000
0.7586 1.6207 0.0000
0.7586 1.6552 0.0000
0.7586 1.6897 0.0000
0.7586 1.7241 0.0000
0.7586 1.7586 0.0000
0.7586 1.7931 0.0000
0.7586 1.8276 0.0000
0.7586 1.8621 0.0000
0.7586 1.8966 0.0000
0.7586 1.9310 0.0000
0.7586 1.9655 0.0000
0.7586 2.0000 0.0000
0.8276 1.0000 0.0000
0.8276 1.0345 0.0000
0.8276 1.0690 0.0000
0.8276 1.1034 0.0000
0.8276 1.1379 0.0000
0.8276 1.1724 0.0000
0.8276 1.2069 0.0000
0.8276 1.2414 0.0000
0.8276 1.2759 0.0000
0.8276 1.3103 0.0000
0.8276 1.3448 0.0000
0.8276 1.3793 0.0000
0.8276 1.4138 0.0000
0.8276 1.4483 0.0000
0.8276 1.4828 0.0000
0.8276 1.5172 0.0000
0.8276 1.5517 0.0000
0.8276 1.5862 0.0000
0.8276 1.6207 0.0000
0.8276 1.6552 0.0000
0.8276 1.6897 0.0000
0.8276 1.7241 0.0000
0.8276 1.7586 0.0000
0.8276 1.7931 0.0000
0.8276 1.8276 0.0000
0.8276 1.8621 0.0000
0.8276 1.8966 0.0000
0.8276 1.9310 0.0000
0.8276 1.9655 0.0000
0.8276 2.0000 0.0000
0.8966 1.0000 0.0000
0.8966 1.0345 0.0000
0.8966 1.0690 0.0000
0.8966 1.1034 0.0000
0.8966 1.1379 0.0000
0.8966 1.1724 0.0000
0.8966 1.2069 0.0000
0.8966 1.2414 0.0000
0.8966 1.2759 0.0000
0.8966 1.3103 0.0000
0.8966 1.3448 0.0000
0.8966 1.3793 0.0000
0.8966 1.4138 0.0000
0.8966 1.4483 0.0000
0.8966 1.4828 0.0000
0.8966 1.5172 0.0000
0.8966 1.5517 0.0000
0.8966 1.5862 0.0000
0.8966 1.6207 0.0000
0.8966 1.6552 0.0000
0.8966 1.6897 0.0000
0.8966 1.7241 0.0000
0.8966 1.7586 0.0000
0.8966 1.7931 0.0000
0.8966 1.8276 0.0000
0.8966 1.8621 0.0000
0.8966 1.8966 0.0000
0.8966 1.9310 0.0000
0.8966 1.9655 0.0000
0.8966 2.0000 0.0000
0.9655 1.0000 0.0000
0.9655 1.0345 0.0000
0.9655 1.0690 0.0000
0.9655 1.1034 0.0000
0.9655 1.1379 0.0000
0.9655 1.1724 0.0000
0.9655 1.2069 0.0000
0.9655 1.2414 0.0000
0.9655 1.2759 0.0000
0.9655 1.3103 0.0000
0.9655 1.3448 0.0000
0.9655 1.3793 0.0000
0.9655 1.4138 0.0000
0.9655 1.4483 0.0000
0.9655 1.4828 0.0000
0.9655 1.5172 0.0000
0.9655 1.5517 0.0000
0.9655 1.5862 0.0000
0.9655 1.6207 0.0000
0.9655 1.6552 0.0000
0.9655 1.6897 0.0000
0.9655 1.7241 0.0000
0.9655 1.7586 0.0000
0.9655 1.7931 0.0000
0.9655 1.8276 0.0000
0.9655 1.8621 0.0000
0.9655 1.8966 0.0000
0.9655 1.9310 0.0000
0.9655 1.9655 0.0000
0.9655 2.0000 0.0000
1.0345 1.0000 0.0000
1.0345 1.0345 0.0000
1.0345 1.0690 0.0000
1.0345 1.1034 0.0000
1.0345 1.1379 0.0000
1.0345 1.1724 0.0000
1.0345 1.2069 0.0000
1.0345 1.2414 0.0000
1.0345 1.2759 0.0000
1.0345 1.3103 0.0000
1.0345 1.3448 0.0000
[...]
         <PointData>
            <DataArray Name="fValues" NumberOfComponents="3" format="ascii" type="Float64">
-7.01832e-25 -1.71790e-23        00000 
 2.80733e-24 -5.61466e-23        00000 
 3.33132e-23 -5.55220e-23        00000 
 1.67422e-23  9.06871e-23        00000 
 1.11044e-23  6.66264e-23        00000 
 2.32088e-22  9.47939e-22        00000 
 1.11044e-23  3.66445e-22        00000 
-3.27869e-23 -5.79700e-22        00000 
 1.55462e-22  9.77187e-22        00000 
 4.13505e-22 -1.12631e-21        00000 
 1.11044e-22  2.13204e-21        00000 
 1.01151e-22  8.20369e-22        00000 
 3.33132e-23  4.88593e-21        00000 
 2.92177e-23  1.32420e-21        00000 
-1.11044e-22  4.70826e-21        00000 
-1.18591e-23  1.73003e-22        00000 
-6.66264e-22  1.43247e-21        00000 
-4.54863e-22 -2.41102e-23        00000 
-1.77670e-22 -5.77429e-22        00000 
 4.20300e-23 -1.20265e-21        00000 
-2.48461e-22  8.88352e-23        00000 
 7.19047e-25 -4.69201e-22        00000 
 7.07905e-23 -1.06602e-21        00000 
-6.32194e-23  5.02267e-22        00000 
 1.99879e-22 -9.99396e-23        00000 
 1.22859e-22 -4.46979e-22        00000 
-7.77308e-23  2.77610e-22        00000 
 5.45138e-23  2.18055e-22        00000 
-3.77988e-23  8.57473e-23        00000 
 3.88292e-23 -8.01958e-23        00000 
 2.80605e-07  4.93853e-08        00000 
 1.00509e-07  5.73697e-08        00000 
 2.03549e-07  1.37166e-07        00000 
 3.67304e-07  2.49033e-07        00000 
 6.09299e-07  4.47916e-07        00000 
 9.45840e-07  7.91454e-07        00000 
 1.37559e-06  1.34486e-06        00000 
 1.85939e-06  2.17016e-06        00000 
 2.30477e-06  3.29771e-06        00000 
 2.56538e-06  4.68730e-06        00000 
 2.46831e-06  6.19367e-06        00000 
 1.87337e-06  7.55883e-06        00000 
 7.48845e-07  8.45192e-06        00000 
-7.71348e-07  8.55931e-06        00000 
-2.38900e-06  7.69991e-06        00000 
-3.71986e-06  5.91678e-06        00000 
-4.42640e-06  3.49611e-06        00000 
-4.34603e-06  8.93477e-07        00000 
-3.55109e-06 -1.40726e-06        00000 
-2.31064e-06 -3.04234e-06        00000 
-9.76704e-07 -3.86097e-06        00000 
 1.45456e-07 -3.93101e-06        00000 
 8.83583e-07 -3.46965e-06        00000 
 1.21436e-06 -2.74245e-06        00000 
 1.22161e-06 -1.97731e-06        00000 
 1.03179e-06 -1.32018e-06        00000 
 7.59330e-07 -8.31625e-07        00000 
 4.85572e-07 -4.96953e-07        00000 
 2.65740e-07 -2.27875e-07        00000 
 8.98137e-07 -1.91248e-07        00000 
-3.06270e-07 -1.07847e-07        00000 
-1.48428e-07 -1.43297e-07        00000 
-2.32517e-07 -2.43613e-07        00000 
-4.30875e-07 -4.46241e-07        00000 
-7.28573e-07 -8.22535e-07        00000 
-1.15459e-06 -1.48679e-06        00000 
-1.71771e-06 -2.58280e-06        00000 
-2.37882e-06 -4.25703e-06        00000 
-3.02385e-06 -6.59792e-06        00000 
-3.45426e-06 -9.54727e-06        00000 
-3.41728e-06 -1.28140e-05        00000 
-2.68845e-06 -1.58435e-05        00000 
-1.18897e-06 -1.78951e-05        00000 
 9.15114e-07 -1.82440e-05        00000 
 3.19990e-06 -1.64525e-05        00000 
 5.09533e-06 -1.25936e-05        00000 
 6.09151e-06 -7.30615e-06        00000 
 5.94389e-06 -1.62557e-06        00000 
 4.76941e-06  3.34972e-06        00000 
 2.98254e-06  6.80824e-06        00000 
 1.11087e-06  8.43860e-06        00000 
-4.07686e-07  8.43084e-06        00000 
-1.34957e-06  7.30205e-06        00000 
-1.71471e-06  5.65599e-06        00000 
-1.64956e-06  3.98856e-06        00000 
-1.34469e-06  2.59738e-06        00000 
-9.58364e-07  1.58785e-06        00000 
-5.88575e-07  9.29950e-07        00000 
-4.28134e-07  5.56357e-07        00000 
-9.89702e-07  4.14219e-07        00000 
 2.91694e-07  1.58788e-07        00000 
 1.50025e-07  2.17332e-07        00000 
 2.31478e-07  3.47342e-07        00000 
 4.33383e-07  6.29734e-07        00000 
 7.54602e-07  1.17212e-06        00000 
 1.23682e-06  2.14738e-06        00000 
 1.90957e-06  3.79018e-06        00000 
 2.74980e-06  6.35709e-06        00000 
 3.63727e-06  1.00311e-05        00000 
 4.32463e-06  1.47701e-05        00000 
 4.45987e-06  2.01444e-05        00000 
 3.69159e-06  2.52560e-05        00000 
 1.84534e-06  2.88462e-05        00000 
-9.04893e-07  2.96352e-05        00000 
-3.98600e-06  2.68099e-05        00000 
-6.57553e-06  2.04477e-05        00000 
-7.91800e-06  1.16364e-05        00000 
-7.65284e-06  2.17774e-06        00000 
-5.96843e-06 -6.01871e-06        00000 
-3.49408e-06 -1.15721e-05        00000 
-1.00102e-06 -1.40036e-05        00000 
 9.11015e-07 -1.37131e-05        00000 
 1.98432e-06 -1.16411e-05        00000 
 2.28523e-06 -8.82968e-06        00000 
 2.06364e-06 -6.09164e-06        00000 
 1.59594e-06 -3.87799e-06        00000 
 1.08550e-06 -2.31806e-06        00000 
 6.51071e-07 -1.34680e-06        00000 
 4.63243e-07 -8.35135e-07        00000 
 9.56803e-07 -6.01827e-07        00000 
-2.62026e-07 -2.04987e-07        00000 
-1.38867e-07 -2.80150e-07        00000 
-2.17692e-07 -4.38366e-07        00000 
-4.17461e-07 -7.89284e-07        00000 
-7.54312e-07 -1.47754e-06        00000 
-1.29307e-06 -2.74200e-06        00000 
-2.09666e-06 -4.92637e-06        00000 
-3.17598e-06 -8.43765e-06        00000 
-4.41824e-06 -1.36161e-05        00000 
-5.51942e-06 -2.05019e-05        00000 
-5.98165e-06 -2.85530e-05        00000 
-5.24226e-06 -3.64626e-05        00000 
-2.94357e-06 -4.22698e-05        00000 
 7.63054e-07 -4.38793e-05        00000 
 5.08173e-06 -3.98776e-05        00000 
 8.77242e-06 -3.02854e-05        00000 
 1.06589e-05 -1.68088e-05        00000 
 1.01814e-05 -2.35802e-06        00000 
 7.65835e-06  9.98801e-06        00000 
 4.09351e-06  1.80649e-05        00000 
 6.64844e-07  2.12295e-05        00000 
-1.78239e-06  2.02655e-05        00000 
-2.97044e-06  1.67627e-05        00000 
-3.10388e-06  1.23739e-05        00000 
-2.61022e-06  8.30099e-06        00000 
-1.89515e-06  5.13907e-06        00000 
-1.21855e-06  2.99464e-06        00000 
-6.98606e-07  1.71148e-06        00000 
-4.65384e-07  1.06222e-06        00000 
-8.72792e-07  7.59895e-07        00000 
 2.24480e-07  2.44670e-07        00000 
 1.21529e-07  3.32154e-07        00000 
 1.95455e-07  5.12250e-07        00000 
 3.87404e-07  9.15798e-07        00000 
 7.32938e-07  1.72105e-06        00000 
 1.32733e-06  3.23653e-06        00000 
 2.28369e-06  5.93604e-06        00000 
 3.67397e-06  1.04316e-05        00000 
 5.42082e-06  1.73171e-05        00000 
 7.16577e-06  2.68322e-05        00000 
 8.20673e-06  3.83943e-05        00000 
 7.63847e-06  5.02163e-05        00000 
 4.76281e-06  5.93571e-05        00000 
-3.68589e-07  6.24696e-05        00000 
-6.63431e-06  5.71343e-05        00000 
-1.20991e-05  4.31840e-05        00000 
-1.48563e-05  2.32164e-05        00000 
-1.39993e-05  1.83435e-06        00000 
-1.00852e-05 -1.61015e-05        00000 
-4.77740e-06 -2.72971e-05        00000 
 6.38343e-08 -3.09851e-05        00000 
 3.22759e-06 -2.86567e-05        00000 
 4.46657e-06 -2.29377e-05        00000 
 4.25671e-06 -1.63559e-05        00000 
 3.31992e-06 -1.05880e-05        00000 
 2.24581e-06 -6.32956e-06        00000 
 1.35094e-06 -3.57478e-06        00000 
 7.29715e-07 -1.99837e-06        00000 
 4.47072e-07 -1.23288e-06        00000 
 7.54883e-07 -8.79532e-07        00000 
-1.81586e-07 -2.77105e-07        00000 
-9.99599e-08 -3.73329e-07        00000 
-1.65496e-07 -5.67439e-07        00000 
-3.41641e-07 -1.00454e-06        00000 
-6.83184e-07 -1.88942e-06        00000 
-1.32086e-06 -3.59763e-06        00000 
-2.43671e-06 -6.75028e-06        00000 
-4.20359e-06 -1.22285e-05        00000 
-6.63403e-06 -2.10164e-05        00000 
-9.34708e-06 -3.37492e-05        00000 
-1.13794e-05 -4.99668e-05        00000 
-1.12885e-05 -6.73620e-05        00000 
-7.75419e-06 -8.16210e-05        00000 
-5.43205e-07 -8.74354e-05        00000 
 8.77522e-06 -8.06611e-05        00000 
 1.71081e-05 -6.06623e-05        00000 
 2.12663e-05 -3.13569e-05        00000 
 1.97291e-05 -2.66211e-08        00000 
 1.34987e-05  2.56556e-05        00000 
 5.41426e-06  4.07223e-05        00000 
-1.51899e-06  4.44203e-05        00000 
-5.57230e-06  3.95451e-05        00000 
-6.67189e-06  3.03983e-05        00000 
-5.81114e-06  2.07626e-05        00000 
-4.18229e-06  1.28581e-05        00000 
-2.61373e-06  7.36374e-06        00000 
-1.45420e-06  4.00678e-06        00000 
-7.29843e-07  2.18471e-06        00000 
-4.06079e-07  1.34113e-06        00000 
-6.06950e-07  9.56745e-07        00000 
 1.35029e-07  3.02073e-07        00000 
 7.52394e-08  4.03867e-07        00000 
 1.28547e-07  6.04311e-07        00000 
 2.78894e-07  1.05494e-06        00000 
 5.96810e-07  1.97566e-06        00000 
 1.24869e-06  3.79641e-06        00000 
 2.50241e-06  7.28949e-06        00000 
 4.68378e-06  1.36670e-05        00000 
 7.98907e-06  2.44796e-05        00000 
 1.21079e-05  4.10680e-05        00000 
 1.57924e-05  6.34286e-05        00000 
 1.67931e-05  8.88089e-05        00000 
 1.26709e-05  1.11013e-04        00000 
 2.48809e-06  1.21631e-04        00000 
-1.16350e-05  1.13514e-04        00000 
-2.46664e-05  8.49633e-05        00000 
-3.11139e-05  4.18815e-05        00000 
-2.83412e-05 -4.08865e-06        00000 
-1.82018e-05 -4.07094e-05        00000 
-5.67709e-06 -6.04952e-05        00000 
 4.29619e-06 -6.30791e-05        00000 
 9.31583e-06 -5.36628e-05        00000 
 9.83384e-06 -3.92690e-05        00000 
 7.80560e-06 -2.54415e-05        00000 
 5.14100e-06 -1.49242e-05        00000 
 2.93358e-06 -8.11762e-06        00000 
 1.48677e-06 -4.23342e-06        00000 
 6.80758e-07 -2.25284e-06        00000 
 3.37765e-07 -1.38484e-06        00000 
 4.33252e-07 -9.92496e-07        00000 
-8.63016e-08 -3.19547e-07        00000 
-4.84808e-08 -4.24230e-07        00000 
-8.61419e-08 -6.24674e-07        00000 
-2.00113e-07 -1.07063e-06        00000 
-4.69136e-07 -1.98160e-06        00000 
-1.08721e-06 -3.81623e-06        00000 
-2.41517e-06 -7.47614e-06        00000 
-4.98831e-06 -1.45403e-05        00000 
-9.32901e-06 -2.73235e-05        00000 
-1.53997e-05 -4.83275e-05        00000 
-2.17548e-05 -7.86356e-05        00000 
-2.50150e-05 -1.15417e-04        00000 
-2.07730e-05 -1.50028e-04        00000 
-6.46736e-06 -1.69155e-04        00000 
 1.52846e-05 -1.60324e-04        00000 
 3.61799e-05 -1.19525e-04        00000 
 4.64660e-05 -5.56615e-05        00000 
 4.14009e-05  1.23320e-05        00000 
 2.45261e-05  6.46086e-05        00000 
 4.84103e-06  8.98574e-05        00000 
-9.43658e-06  8.90093e-05        00000 
-1.51933e-05  7.17244e-05        00000 
-1.42171e-05  4.94295e-05        00000 
-1.01992e-05  3.00152e-05        00000 
-6.06613e-06  1.64818e-05        00000 
-3.10455e-06  8.43604e-06        00000 
-1.39925e-06  4.20342e-06        00000 
-5.66361e-07  2.19662e-06        00000 
-2.40227e-07  1.36894e-06        00000 
-2.41644e-07  9.92637e-07        00000 
 3.67230e-08  3.29490e-07        00000 
 2.08852e-08  4.34923e-07        00000 
 4.06203e-08  6.31049e-07        00000 
 1.09139e-07  1.05865e-06        00000 
 3.02229e-07  1.91961e-06        00000 
 8.22302e-07  3.66250e-06        00000 
 2.10904e-06  7.25858e-06        00000 
 4.94698e-06  1.46255e-05        00000 
 1.03671e-05  2.90062e-05        00000 
 1.89743e-05  5.46622e-05        00000 
 2.94770e-05  9.48597e-05        00000 
 3.71196e-05  1.47707e-04        00000 
 3.41577e-05  2.01737e-04        00000 
 1.44450e-05  2.35959e-04        00000 
-1.95420e-05  2.28320e-04        00000 
-5.39771e-05  1.69811e-04        00000 
-7.09273e-05  7.38818e-05        00000 
-6.14838e-05 -2.79883e-05        00000 
-3.26874e-05 -1.02903e-04        00000 
-1.34984e-06 -1.33718e-04        00000 
 1.87339e-05 -1.24816e-04        00000 
 2.42146e-05 -9.41792e-05        00000 
 1.99998e-05 -6.02712e-05        00000 
 1.27774e-05 -3.37737e-05        00000 
 6.71933e-06 -1.71066e-05        00000 
 2.99325e-06 -8.16105e-06        00000 
 1.14549e-06 -3.89189e-06        00000 
 3.79819e-07 -2.02891e-06        00000 
 1.17293e-07 -1.30662e-06        00000 
 4.34288e-08 -9.66757e-07        00000 
 1.26258e-08 -3.31765e-07        00000 
 6.44288e-09 -4.36224e-07        00000 
 5.31869e-09 -6.25708e-07        00000 
-1.23073e-08 -1.02753e-06        00000 
-1.06634e-07 -1.81133e-06        00000 
-4.58562e-07 -3.37019e-06        00000 
-1.53983e-06 -6.64347e-06        00000 
-4.36962e-06 -1.37500e-05        00000 
-1.06583e-05 -2.88775e-05        00000 
-2.22218e-05 -5.86850e-05        00000 
-3.87968e-05 -1.10347e-04        00000 
-5.44806e-05 -1.85219e-04        00000 
-5.62482e-05 -2.69573e-04        00000 
-3.03198e-05 -3.30728e-04        00000 
 2.34228e-05 -3.29130e-04        00000 
 8.19854e-05 -2.44863e-04        00000 
 1.11033e-04 -9.81797e-05        00000 
 9.29055e-05  5.71241e-05        00000 
 4.23148e-05  1.65017e-04        00000 
-8.09012e-06  1.99505e-04        00000 
-3.51957e-05  1.73496e-04        00000 
-3.75792e-05  1.20647e-04        00000 
-2.70238e-05  7.03104e-05        00000 
-1.50097e-05  3.55837e-05        00000 
-6.73453e-06  1.63066e-05        00000 
-2.45836e-06  7.19164e-06        00000 
-7.02405e-07  3.32693e-06        00000 
-1.31083e-07  1.78603e-06        00000 
 2.02521e-08  1.21726e-06        00000 
 1.48902e-07  9.25333e-07        00000 
-6.08920e-08  3.26178e-07        00000 
-3.26929e-08  4.28067e-07        00000 
-4.93089e-08  6.09798e-07        00000 
-8.30969e-08  9.84325e-07        00000 
-9.98073e-08  1.68211e-06        00000 
 2.54303e-08  3.00211e-06        00000 
 7.15093e-07  5.72488e-06        00000 
 3.10937e-06  1.18959e-05        00000 
 9.63522e-06  2.63483e-05        00000 
 2.39880e-05  5.84961e-05        00000 
 4.86358e-05  1.21723e-04        00000 
 7.81743e-05  2.25233e-04        00000 
 9.23557e-05  3.56402e-04        00000 
 6.18872e-05  4.66011e-04        00000 
-2.35960e-05  4.82126e-04        00000 
-1.26874e-04  3.60409e-04        00000 
-1.79123e-04  1.30854e-04        00000 
-1.42946e-04 -1.11358e-04        00000 
-5.10330e-05 -2.67423e-04        00000 
 3.03689e-05 -2.98303e-04        00000 
 6.35727e-05 -2.37624e-04        00000 
 5.61982e-05 -1.48758e-04        00000 
 3.42964e-05 -7.66746e-05        00000 
 1.58971e-05 -3.39196e-05        00000 
 5.66150e-06 -1.36846e-05        00000 
 1.41059e-06 -5.57489e-06        00000 
 9.52180e-08 -2.61017e-06        00000 
-1.49426e-07 -1.52332e-06        00000 
-1.56419e-07 -1.12052e-06        00000 
-3.25165e-07 -8.75709e-07        00000 
 1.07353e-07 -3.12612e-07        00000 
 5.74187e-08 -4.10177e-07        00000 
 8.98942e-08 -5.83048e-07        00000 
 1.71033e-07 -9.31979e-07        00000 
 2.96868e-07 -1.55183e-06        00000 
 4.25810e-07 -2.63229e-06        00000 
 2.82374e-07 -4.68603e-06        00000 
-1.16571e-06 -9.31352e-06        00000 
-6.78671e-06 -2.12296e-05        00000 
-2.25327e-05 -5.20551e-05        00000 
-5.61322e-05 -1.23490e-04        00000 
-1.07447e-04 -2.60440e-04        00000 
-1.49712e-04 -4.61751e-04        00000 
-1.24604e-04 -6.59206e-04        00000 
 1.00390e-05 -7.20987e-04        00000 
 1.99570e-04 -5.45746e-04        00000 
 2.99243e-04 -1.75196e-04        00000 
 2.23464e-04  2.14236e-04        00000 
 5.03159e-05  4.39982e-04        00000 
-7.95750e-05  4.45896e-04        00000 
-1.10364e-04  3.16795e-04        00000 
-7.92373e-05  1.72036e-04        00000 
-3.92062e-05  7.46972e-05        00000 
-1.39680e-05  2.72450e-05        00000 
-3.14542e-06  9.24854e-06        00000 
 9.54617e-08  3.59501e-06        00000 
 5.87050e-07  1.90834e-06        00000 
 4.16667e-07  1.29700e-06        00000 
 2.75278e-07  1.02809e-06        00000 
 4.80485e-07  8.18873e-07        00000 
-1.51285e-07  2.91197e-07        00000 
-8.04277e-08  3.82395e-07        00000 
-1.26641e-07  5.44299e-07        00000 
-2.48427e-07  8.68591e-07        00000 
-4.68966e-07  1.42648e-06        00000 
-8.38086e-07  2.31580e-06        00000 
-1.30159e-06  3.74727e-06        00000 
-1.22411e-06  6.55218e-06        00000 
 2.03157e-06  1.41841e-05        00000 
 1.59944e-05  3.82666e-05        00000 
 5.58256e-05  1.08438e-04        00000 
 1.36144e-04  2.75479e-04        00000 
 2.34700e-04  5.74618e-04        00000 
 2.47696e-04  9.31294e-04        00000 
 4.61932e-05  1.10735e-03        00000 
-3.14851e-04  8.61175e-04        00000 
-5.17835e-04  2.36056e-04        00000 
-3.50461e-04 -4.17894e-04        00000 
-1.35386e-05 -7.39319e-04        00000 
 1.82851e-04 -6.61704e-04        00000 
 1.81072e-04 -4.00865e-04        00000 
 1.00721e-04 -1.76769e-04        00000 
 3.68442e-05 -5.84438e-05        00000 
 7.77901e-06 -1.50603e-05        00000 
-7.19869e-07 -3.79959e-06        00000 
-1.79309e-06 -1.76979e-06        00000 
-1.20870e-06 -1.39370e-06        00000 
-6.28617e-07 -1.13642e-06        00000 
-3.67620e-07 -9.37639e-07        00000 
-6.15720e-07 -7.49516e-07        00000 
 1.91880e-07 -2.62384e-07        00000 
 1.01556e-07 -3.44983e-07        00000 
 1.59703e-07 -4.92606e-07        00000 
 3.15259e-07 -7.89535e-07        00000 
 6.10271e-07 -1.29673e-06        00000 
 1.17148e-06 -2.06151e-06        00000 
 2.17894e-06 -3.06247e-06        00000 
 3.59864e-06 -4.29023e-06        00000 
 3.92557e-06 -6.92570e-06        00000 
-3.88715e-06 -1.88719e-05        00000 
-4.04322e-05 -7.09287e-05        00000 
-1.46894e-04 -2.44361e-04        00000 
-3.40442e-04 -6.57131e-04        00000 
-4.79188e-04 -1.29508e-03        00000 
-2.26105e-04 -1.76025e-03        00000 
 4.73574e-04 -1.44989e-03        00000 
 9.12700e-04 -3.20860e-04        00000 
 5.25307e-04  8.53576e-04        00000 
-1.36890e-04  1.27789e-03        00000 
-3.85112e-04  9.57595e-04        00000 
-2.68016e-04  4.54502e-04        00000 
-1.04121e-04  1.39962e-04        00000 
-2.09830e-05  2.40520e-05        00000 
 2.59769e-06 -3.45546e-07        00000 
 5.09912e-06 -9.79077e-07        00000 
 3.25348e-06  6.46840e-07        00000 
 1.64932e-06  1.14384e-06        00000 
 7.67115e-07  1.02424e-06        00000 
 4.34377e-07  8.34718e-07        00000 
 7.34437e-07  6.60296e-07        00000 
-2.28217e-07  2.26924e-07        00000 
-1.20436e-07  2.98704e-07        00000 
-1.89119e-07  4.28177e-07        00000 
-3.72950e-07  6.91192e-07        00000 
-7.23882e-07  1.14604e-06        00000 
-1.41799e-06  1.83063e-06        00000 
-2.81410e-06  2.62793e-06        00000 
-5.48314e-06  2.95612e-06        00000 
-9.59180e-06  1.62709e-06        00000 
-1.16151e-05 -4.79485e-07        00000 
 8.11798e-06  1.56277e-05        00000 
 1.06642e-04  1.37966e-04        00000 
 4.14249e-04  6.16584e-04        00000 
 8.59670e-04  1.70412e-03        00000 
 7.51907e-04  2.91622e-03        00000 
-5.54085e-04  2.71721e-03        00000 
-1.51319e-03  4.41140e-04        00000 
-6.20053e-04 -1.90696e-03        00000 
 6.19147e-04 -2.28345e-03        00000 
 7.23146e-04 -1.28857e-03        00000 
 3.18807e-04 -3.91093e-04        00000 
 5.87753e-05 -3.75914e-05        00000 
-8.46352e-06  2.16820e-05        00000 
-1.44053e-05  1.31485e-05        00000 
-8.55505e-06  3.26382e-06        00000 
-4.12325e-06 -4.23776e-07        00000 
-1.87339e-06 -1.07448e-06        00000 
-8.44911e-07 -9.06901e-07        00000 
-4.82590e-07 -7.03137e-07        00000 
-8.37893e-07 -5.47780e-07        00000 
 2.59130e-07 -1.85808e-07        00000 
 1.36221e-07 -2.44567e-07        00000 
 2.14193e-07 -3.52573e-07        00000 
 4.22037e-07 -5.73686e-07        00000 
 8.15452e-07 -9.62994e-07        00000 
 1.59353e-06 -1.56867e-06        00000 
 3.21021e-06 -2.29466e-06        00000 
 6.63546e-06 -2.42409e-06        00000 
 1.36091e-05  5.72119e-07        00000 
 2.52736e-05  1.24947e-05        00000 
 3.46739e-05  3.71987e-05        00000 
-1.51555e-05  2.79427e-05        00000 
-2.60580e-04 -2.91209e-04        00000 
-1.31178e-03 -1.88668e-03        00000 
-2.09016e-03 -4.99079e-03        00000 
-3.63679e-04 -6.01359e-03        00000 
 1.66452e-03 -6.10744e-04        00000 