<?xml version="1.0" encoding="utf-8"?>
<VTKFile byte_order="LittleEndian" type="UnstructuredGrid" version="0.1">
   <UnstructuredGrid>
      <Piece NumberOfCells="3364" NumberOfPoints="1741">
         <Points>
            <DataArray Name="Points" NumberOfComponents="3" format="ascii" type="Float32">
0.0000 1.0000 0.0000
0.0000 1.0345 0.0000
0.0000 1.0690 0.0000
0.0000 1.1034 0.0000
0.0000 1.1379 0.0000
0.0000 1.1724 0.0000
0.0000 1.2069 0.0000
0.0000 1.2414 0.0000
0.0000 1.2759 0.0000
0.0000 1.3103 0.0000
0.0000 1.3448 0.0000
0.0000 1.3793 0.0000
0.0000 1.4138 0.0000
0.0000 1.4483 0.0000
0.0000 1.4828 0.0000
0.0000 1.5172 0.0000
0.0000 1.5517 0.0000
0.0000 1.5862 0.0000
0.0000 1.6207 0.0000
0.0000 1.6552 0.0000
0.0000 1.6897 0.0000
0.0000 1.7241 0.0000
0.0000 1.7586 0.0000
0.0000 1.7931 0.0000
0.0000 1.8276 0.0000
0.0000 1.8621 0.0000
0.0000 1.8966 0.0000
0.0000 1.9310 0.0000
0.0000 1.9655 0.0000
0.0000 2.0000 0.0000
0.0690 1.0000 0.0000
0.0690 1.0345 0.0000
0.0690 1.0690 0.0000
0.0690 1.1034 0.0000
0.0690 1.1379 0.0000
0.0690 1.1724 0.0000
0.0690 1.2069 0.0000
0.0690 1.2414 0.0000
0.0690 1.2759 0.0000
0.0690 1.3103 0.0000
0.0690 1.3448 0.0000
0.0690 1.3793 0.0000
0.0690 1.4138 0.0000
0.0690 1.4483 0.0000
0.0690 1.4828 0.0000
0.0690 1.5172 0.0000
0.0690 1.5517 0.0000
0.0690 1.5862 0.0000
0.0690 1.6207 0.0000
0.0690 1.6552 0.0000
0.0690 1.6897 0.0000
0.0690 1.7241 0.0000
0.0690 1.7586 0.0000
0.0690 1.7931 0.0000
0.0690 1.8276 0.0000
0.0690 1.8621 0.0000
0.0690 1.8966 0.0000
0.0690 1.9310 0.0000
0.0690 1.9655 0.0000
0.0690 2.0000 0.0000
0.1379 1.0000 0.0000
0.1379 1.0345 0.0000
0.1379 1.0690 0.0000
0.1379 1.1034 0.0000
0.1379 1.1379 0.0000
0.1379 1.1724 0.0000
0.1379 1.2069 0.0000
0.1379 1.2414 0.0000
0.1379 1.2759 0.0000
0.1379 1.3103 0.0000
0.1379 1.3448 0.0000
0.1379 1.3793 0.0000
0.1379 1.4138 0.0000
0.1379 1.4483 0.0000
0.1379 1.4828 0.0000
0.1379 1.5172 0.0000
0.1379 1.5517 0.0000
0.1379 1.5862 0.0000
0.1379 1.6207 0.0000
0.1379 1.6552 0.0000
0.1379 1.6897 0.0000
0.1379 1.7241 0.0000
0.1379 1.7586 0.0000
0.1379 1.7931 0.0000
0.1379 1.8276 0.0000
0.1379 1.8621 0.0000
0.1379 1.8966 0.0000
0.1379 1.9310 0.0000
0.1379 1.9655 0.0000
0.1379 2.0000 0.0000
0.2069 1.0000 0.0000
0.2069 1.0345 0.0000
0.2069 1.0690 0.0000
0.2069 1.1034 0.0000
0.2069 1.1379 0.0000
0.2069 1.1724 0.0000
0.2069 1.2069 0.0000
0.2069 1.2414 0.0000
0.2069 1.2759 0.0000
0.2069 1.3103 0.0000
0.2069 1.3448 0.0000
0.2069 1.3793 0.0000
0.2069 1.4138 0.0000
0.2069 1.4483 0.0000
0.2069 1.4828 0.0000
0.2069 1.5172 0.0000
0.2069 1.5517 0.0000
0.2069 1.5862 0.0000
0.2069 1.6207 0.0000
0.2069 1.6552 0.0000
0.2069 1.6897 0.0000
0.2069 1.7241 0.0000
0.2069 1.7586 0.0000
0.2069 1.7931 0.0000
0.2069 1.8276 0.0000
0.2069 1.8621 0.0000
0.2069 1.8966 0.0000
0.2069 1.9310 0.0000
0.2069 1.9655 0.0000
0.2069 2.0000 0.0000
0.2759 1.0000 0.0000
0.2759 1.0345 0.0000
0.2759 1.0690 0.0000
0.2759 1.1034 0.0000
0.2759 1.1379 0.0000
0.2759 1.1724 0.0000
0.2759 1.2069 0.0000
0.2759 1.2414 0.0000
0.2759 1.2759 0.0000
0.2759 1.3103 0.0000
0.2759 1.3448 0.0000
0.2759 1.3793 0.0000
0.2759 1.4138 0.0000
0.2759 1.4483 0.0000
0.2759 1.4828 0.0000
0.2759 1.5172 0.0000
0.2759 1.5517 0.0000
0.2759 1.5862 0.0000
0.2759 1.6207 0.0000
0.2759 1.6552 0.0000
0.2759 1.6897 0.0000
0.2759 1.7241 0.0000
0.2759 1.7586 0.0000
0.2759 1.7931 0.0000
0.2759 1.8276 0.0000
0.2759 1.8621 0.0000
0.2759 1.8966 0.0000
0.2759 1.9310 0.0000
0.2759 1.9655 0.0000
0.2759 2.0000 0.0000
0.3448 1.0000 0.0000
0.3448 1.0345 0.0000
0.3448 1.0690 0.0000
0.3448 1.1034 0.0000
0.3448 1.1379 0.0000
0.3448 1.1724 0.0000
0.3448 1.2069 0.0000
0.3448 1.2414 0.0000
0.3448 1.2759 0.0000
0.3448 1.3103 0.0000
0.3448 1.3448 0.0000
0.3448 1.3793 0.0000
0.3448 1.4138 0.0000
0.3448 1.4483 0.0000
0.3448 1.4828 0.0000
0.3448 1.5172 0.0000
0.3448 1.5517 0.0000
0.3448 1.5862 0.0000
0.3448 1.6207 0.0000
0.3448 1.6552 0.0000
0.3448 1.6897 0.0000
0.3448 1.7241 0.0000
0.3448 1.7586 0.0000
0.3448 1.7931 0.0000
0.3448 1.8276 0.0000
0.3448 1.8621 0.0000
0.3448 1.8966 0.0000
0.3448 1.9310 0.0000
0.3448 1.9655 0.0000
0.3448 2.0000 0.0000
0.4138 1.0000 0.0000
0.4138 1.0345 0.0000
0.4138 1.0690 0.0000
0.4138 1.1034 0.0000
0.4138 1.1379 0.0000
0.4138 1.1724 0.0000
0.4138 1.2069 0.0000
0.4138 1.2414 0.0000
0.4138 1.2759 0.0000
0.4138 1.3103 0.0000
0.4138 1.3448 0.0000
0.4138 1.3793 0.0000
0.4138 1.4138 0.0000
0.4138 1.4483 0.0000
0.4138 1.4828 0.0000
0.4138 1.5172 0.0000
0.4138 1.5517 0.0000
0.4138 1.5862 0.0000
0.4138 1.6207 0.0000
0.4138 1.6552 0.0000
0.4138 1.6897 0.0000
0.4138 1.7241 0.0000
0.4138 1.7586 0.0000
0.4138 1.7931 0.0000
0.4138 1.8276 0.0000
0.4138 1.8621 0.0000
0.4138 1.8966 0.0000
0.4138 1.9310 0.0000
0.4138 1.9655 0.0000
0.4138 2.0000 0.0000
0.4828 1.0000 0.0000
0.4828 1.0345 0.0000
0.4828 1.0690 0.0000
0.4828 1.1034 0.0000
0.4828 1.1379 0.0000
0.4828 1.1724 0.0000
0.4828 1.2069 0.0000
0.4828 1.2414 0.0000
0.4828 1.2759 0.0000
0.4828 1.3103 0.0000
0.4828 1.3448 0.0000
0.4828 1.3793 0.0000
0.4828 1.4138 0.0000
0.4828 1.4483 0.0000
0.4828 1.4828 0.0000
0.4828 1.5172 0.0000
0.4828 1.5517 0.0000
0.4828 1.5862 0.0000
0.4828 1.6207 0.0000
0.4828 1.6552 0.0000
0.4828 1.6897 0.0000
0.4828 1.7241 0.0000
0.4828 1.7586 0.0000
0.4828 1.7931 0.0000
0.4828 1.8276 0.0000
0.4828 1.8621 0.0000
0.4828 1.8966 0.0000
0.4828 1.9310 0.0000
0.4828 1.9655 0.0000
0.4828 2.0000 0.0000
0.5517 1.0000 0.0000
0.5517 1.0345 0.0000
0.5517 1.0690 0.0000
0.5517 1.1034 0.0000
0.5517 1.1379 0.0000
0.5517 1.1724 0.0000
0.5517 1.2069 0.0000
0.5517 1.2414 0.0000
0.5517 1.2759 0.0000
0.5517 1.3103 0.0000
0.5517 1.3448 0.0000
0.5517 1.3793 0.0000
0.5517 1.4138 0.0000
0.5517 1.4483 0.0000
0.5517 1.4828 0.0000
0.5517 1.5172 0.0000
0.5517 1.5517 0.0000
0.5517 1.5862 0.0000
0.5517 1.6207 0.0000
0.5517 1.6552 0.0000
0.5517 1.6897 0.0000
0.5517 1.7241 0.0000
0.5517 1.7586 0.0000
0.5517 1.7931 0.0000
0.5517 1.8276 0.0000
0.5517 1.8621 0.0000
0.5517 1.8966 0.0000
0.5517 1.9310 0.0000
0.5517 1.9655 0.0000
0.5517 2.0000 0.0000
0.6207 1.0000 0.0000
0.6207 1.0345 0.0000
0.6207 1.0690 0.0000
0.6207 1.1034 0.0000
0.6207 1.1379 0.0000
0.6207 1.1724 0.0000
0.6207 1.2069 0.0000
0.6207 1.2414 0.0000
0.6207 1.2759 0.0000
0.6207 1.3103 0.0000
0.6207 1.3448 0.0000
0.6207 1.3793 0.0000
0.6207 1.4138 0.0000
0.6207 1.4483 0.0000
0.6207 1.4828 0.0000
0.6207 1.5172 0.0000
0.6207 1.5517 0.0000
0.6207 1.5862 0.0000
0.6207 1.6207 0.0000
0.6207 1.6552 0.0000
0.6207 1.6897 0.0000
0.6207 1.7241 0.0000
0.6207 1.7586 0.0000
0.6207 1.7931 0.0000
0.6207 1.8276 0.0000
0.6207 1.8621 0.0000
0.6207 1.8966 0.0000
0.6207 1.9310 0.0000
0.6207 1.9655 0.0000
0.6207 2.0000 0.0000
0.6897 1.0000 0.0000
0.6897 1.0345 0.0000
0.6897 1.0690 0.0000
0.6897 1.1034 0.0000
0.6897 1.1379 0.0000
0.6897 1.1724 0.0000
0.6897 1.2069 0.0000
0.6897 1.2414 0.0000
0.6897 1.2759 0.0000
0.6897 1.3103 0.0000
0.6897 1.3448 0.0000
0.6897 1.3793 0.0000
0.6897 1.4138 0.0000
0.6897 1.4483 0.0000
0.6897 1.4828 0.0000
0.6897 1.5172 0.0000
0.6897 1.5517 0.0000
0.6897 1.5862 0.0000
0.6897 1.6207 0.0000
0.6897 1.6552 0.0000
0.6897 1.6897 0.0000
0.6897 1.7241 0.0000
0.6897 1.7586 0.0000
0.6897 1.7931 0.0000
0.6897 1.8276 0.0000
0.6897 1.8621 0.0000
0.6897 1.8966 0.0000
0.6897 1.9310 0.0000
0.6897 1.9655 0.0000
0.6897 2.0000 0.0000
0.7586 1.0000 0.0000
0.7586 1.0345 0.0000
0.7586 1.0690 0.0000
0.7586 1.1034 0.0000
0.7586 1.1379 0.0000
0.7586 1.1724 0.0000
0.7586 1.2069 0.0000
0.7586 1.2414 0.0000
0.7586 1.2759 0.0000
0.7586 1.3103 0.0000
0.7586 1.3448 0.0000
0.7586 1.3793 0.0000
0.7586 1.4138 0.0000
0.7586 1.4483 0.0000
0.7586 1.4828 0.0000
0.7586 1.5172 0.0000
0.7586 1.5517 0.0000
0.7586 1.5862 0.0000
0.7586 1.6207 0.0000
0.7586 1.6552 0.0000
0.7586 1.6897 0.0000
0.7586 1.7241 0.0000
0.7586 1.7586 0.0000
0.7586 1.7931 0.0000
0.7586 1.8276 0.0000
0.7586 1.8621 0.0000
0.7586 1.8966 0.0000
0.7586 1.9310 0.0000
0.7586 1.9655 0.0000
0.7586 2.0000 0.0000
0.8276 1.0000 0.0000
0.8276 1.0345 0.0000
0.8276 1.0690 0.0000
0.8276 1.1034 0.0000
0.8276 1.1379 0.0000
0.8276 1.1724 0.0000
0.8276 1.2069 0.0000
0.8276 1.2414 0.0000
0.8276 1.2759 0.0000
0.8276 1.3103 0.0000
0.8276 1.3448 0.0000
0.8276 1.3793 0.0000
0.8276 1.4138 0.0000
0.8276 1.4483 0.0000
0.8276 1.4828 0.0000
0.8276 1.5172 0.0000
0.8276 1.5517 0.0000
0.8276 1.5862 0.0000
0.8276 1.6207 0.0000
0.8276 1.6552 0.0000
0.8276 1.6897 0.0000
0.8276 1.7241 0.0000
0.8276 1.7586 0.0000
0.8276 1.7931 0.0000
0.8276 1.8276 0.0000
0.8276 1.8621 0.0000
0.8276 1.8966 0.0000
0.8276 1.9310 0.0000
0.8276 1.9655 0.0000
0.8276 2.0000 0.0000
0.8966 1.0000 0.0000
0.8966 1.0345 0.0000
0.8966 1.0690 0.0000
0.8966 1.1034 0.0000
0.8966 1.1379 0.0000
0.8966 1.1724 0.0000
0.8966 1.2069 0.0000
0.8966 1.2414 0.0000
0.8966 1.2759 0.0000
0.8966 1.3103 0.0000
0.8966 1.3448 0.0000
0.8966 1.3793 0.0000
0.8966 1.4138 0.0000
0.8966 1.4483 0.0000
0.8966 1.4828 0.0000
0.8966 1.5172 0.0000
0.8966 1.5517 0.0000
0.8966 1.5862 0.0000
0.8966 1.6207 0.0000
0.8966 1.6552 0.0000
0.8966 1.6897 0.0000
0.8966 1.7241 0.0000
0.8966 1.7586 0.0000
0.8966 1.7931 0.0000
0.8966 1.8276 0.0000
0.8966 1.8621 0.0000
0.8966 1.8966 0.0000
0.8966 1.9310 0.0000
0.8966 1.9655 0.0000
0.8966 2.0000 0.0000
0.9655 1.0000 0.0000
0.9655 1.0345 0.0000
0.9655 1.0690 0.0000
0.9655 1.1034 0.0000
0.9655 1.1379 0.0000
0.9655 1.1724 0.0000
0.9655 1.2069 0.0000
0.9655 1.2414 0.0000
0.9655 1.2759 0.0000
0.9655 1.3103 0.0000
0.9655 1.3448 0.0000
0.9655 1.3793 0.0000
0.9655 1.4138 0.0000
0.9655 1.4483 0.0000
0.9655 1.4828 0.0000
0.9655 1.5172 0.0000
0.9655 1.5517 0.0000
0.9655 1.5862 0.0000
0.9655 1.6207 0.0000
0.9655 1.6552 0.0000
0.9655 1.6897 0.0000
0.9655 1.7241 0.0000
0.9655 1.7586 0.0000
0.9655 1.7931 0.0000
0.9655 1.8276 0.0000
0.9655 1.8621 0.0000
0.9655 1.8966 0.0000
0.9655 1.9310 0.0000
0.9655 1.9655 0.0000
0.9655 2.0000 0.0000
1.0345 1.0000 0.0000
1.0345 1.0345 0.0000
1.0345 1.0690 0.0000
1.0345 1.1034 0.0000
1.0345 1.1379 0.0000
1.0345 1.1724 0.0000
1.0345 1.2069 0.0000
1.0345 1.2414 0.0000
1.0345 1.2759 0.0000
1.0345 1.3103 0.0000
1.0345 1.3448 0.0000
[...]
         <PointData>
            <DataArray Name="fValues" NumberOfComponents="3" format="ascii" type="Float64">
-3.26816e-33 -8.93206e-32        00000 
 1.30726e-32  8.36649e-32        00000 
 2.48203e-31 -1.32375e-30        00000 
 3.53428e-31  2.99374e-30        00000 
 8.27342e-31 -2.64749e-29        00000 
-6.93586e-32  1.20664e-28        00000 
-1.23274e-28  2.27685e-28        00000 
 2.01392e-28 -7.80369e-28        00000 
-4.65959e-28  6.77759e-27        00000 
 2.22697e-27 -4.16344e-26        00000 
 1.89349e-26  7.99755e-26        00000 
 1.66223e-25  1.52598e-25        00000 
       00000        00000        00000 
 1.21177e-25 -2.11159e-25        00000 
-3.00383e-24  7.28726e-24        00000 
-8.19604e-24 -2.21486e-23        00000 
-1.08268e-22 -2.66506e-22        00000 
 4.25741e-22 -1.08594e-21        00000 
-5.91309e-22 -1.77670e-22        00000 
 6.25043e-22  2.85734e-21        00000 
-2.84273e-21  6.82254e-20        00000 
-3.65159e-20  1.72464e-19        00000 
-7.24895e-20  3.18385e-19        00000 
-1.91817e-18 -1.79584e-18        00000 
 3.09289e-18 -2.91095e-18        00000 
-3.03565e-18 -2.01124e-17        00000 
 1.09161e-18 -2.91095e-18        00000 
-1.60310e-19  1.55729e-18        00000 
 1.10932e-19 -1.70951e-19        00000 
-2.98191e-20 -8.51216e-20        00000 
-2.09493e-16 -2.60070e-16        00000 
 4.92267e-17 -1.68131e-15        00000 
 1.04693e-15 -7.48120e-15        00000 
 6.63940e-15 -1.46869e-14        00000 
 2.09608e-14  3.72249e-14        00000 
 1.25975e-14  4.47505e-13        00000 
-2.64752e-13  1.94655e-12        00000 
-1.70679e-12  3.88277e-12        00000 
-5.45276e-12 -9.17638e-12        00000 
-3.61450e-12 -1.14528e-10        00000 
 6.68839e-11 -5.03850e-10        00000 
 4.38096e-10 -1.02480e-09        00000 
 1.41927e-09  2.27286e-09        00000 
 1.05675e-09  2.94040e-08        00000 
-1.67254e-08  1.30478e-07        00000 
-1.12481e-07  2.67144e-07        00000 
-3.75713e-07 -5.86257e-07        00000 
-3.45507e-07 -7.59446e-06        00000 
 4.13822e-06 -3.31910e-05        00000 
 3.01626e-05 -6.38907e-05        00000 
 1.09202e-04  1.67661e-04        00000 
 1.29705e-04  1.85935e-03        00000 
-1.28349e-03  7.13272e-03        00000 
-1.01918e-02  1.02756e-02        00000 
-4.15558e-02 -3.26704e-02        00000 
 1.39679e-02 -1.53635e-01        00000 
 4.33319e-02  1.87748e-02        00000 
-1.83903e-03  1.31034e-02        00000 
 5.17230e-05  2.31418e-03        00000 
 9.98101e-07  1.66087e-04        00000 
-2.24812e-16  2.30973e-16        00000 
 6.26327e-17  1.54929e-15        00000 
 1.17657e-15  7.17739e-15        00000 
 7.18404e-15  1.50530e-14        00000 
 2.19864e-14 -3.02526e-14        00000 
 9.68326e-15 -4.13677e-13        00000 
-2.97898e-13 -1.86573e-12        00000 
-1.84909e-12 -3.96583e-12        00000 
-5.72972e-12  7.39494e-12        00000 
-2.88022e-12  1.05633e-10        00000 
 7.56697e-11  4.81651e-10        00000 
 4.76457e-10  1.04365e-09        00000 
 1.49148e-09 -1.78567e-09        00000 
 8.11312e-10 -2.68618e-08        00000 
-1.93701e-08 -1.24225e-07        00000 
-1.22684e-07 -2.77758e-07        00000 
-3.81901e-07  4.03603e-07        00000 
-1.87005e-07  6.77830e-06        00000 
 4.99071e-06  3.26505e-05        00000 
 3.03543e-05  7.98493e-05        00000 
 8.79091e-05 -7.18393e-05        00000 
 2.56860e-05 -1.81593e-03        00000 
-1.07261e-03 -9.94135e-03        00000 
-4.95063e-03 -2.80085e-02        00000 
-1.56727e-02  2.66094e-02        00000 
 5.48166e-03  7.87421e-01        00000 
 4.47980e-04 -2.20565e-01        00000 
-1.55475e-05 -4.85298e-04        00000 
 4.23101e-07  4.57727e-04        00000 
 1.28921e-05  1.35863e-04        00000 
-2.26709e-17  1.99290e-16        00000 
 8.28857e-19  5.02142e-16        00000 
 1.46131e-17 -1.87846e-16        00000 
 8.61772e-17 -8.32649e-15        00000 
 2.55904e-16 -4.42745e-14        00000 
 7.15988e-17 -1.18063e-13        00000 
-3.70100e-15  3.94677e-14        00000 
-2.21907e-14  2.11898e-12        00000 
-6.67382e-14  1.14101e-11        00000 
-2.30536e-14  3.08480e-11        00000 
 9.41060e-13 -7.73300e-12        00000 
 5.72012e-12 -5.38695e-10        00000 
 1.73802e-11 -2.93721e-09        00000 
 6.74964e-12 -8.05834e-09        00000 
-2.41035e-10  1.25063e-09        00000 
-1.47256e-09  1.36177e-07        00000 
-4.44561e-09  7.55352e-07        00000 
-1.47289e-09  2.12709e-06        00000 
 6.19363e-08  4.56251e-08        00000 
 3.63062e-07 -3.40655e-05        00000 
 1.01815e-06 -1.98512e-04        00000 
 1.44181e-07 -6.02695e-04        00000 
-1.30266e-05 -2.26301e-04        00000 
-5.86228e-05  9.25189e-03        00000 
-1.77475e-04  6.16482e-02        00000 
 6.00774e-05  2.04776e-01        00000 
-3.16009e-18 -1.41021e-17        00000 
 1.81215e-19  2.93163e-18        00000 
-3.89512e-20  1.45167e-19        00000 
 1.33819e-20 -7.33286e-20        00000 
-1.53345e-33 -1.16991e-32        00000 
 7.60650e-33  7.79510e-32        00000 
-4.50826e-32 -2.08404e-31        00000 
 1.21800e-31  3.96301e-31        00000 
-6.30329e-31  9.83853e-31        00000 
 4.03516e-30 -1.21031e-29        00000 
-1.23023e-29  2.01933e-29        00000 
 3.37325e-29 -9.90291e-29        00000 
-6.61091e-29  3.34004e-28        00000 
 3.30051e-28  2.14577e-27        00000 
 8.70432e-28 -2.68768e-26        00000 
-3.78495e-27  8.55202e-26        00000 
 7.69188e-27 -7.08585e-26        00000 
-4.08058e-26 -5.76874e-25        00000 
 6.37576e-26  3.76332e-24        00000 
 5.16020e-25 -4.84937e-24        00000 
-3.02003e-24  4.88306e-23        00000 
 1.89717e-23 -3.31128e-23        00000 
-1.21388e-22 -6.31471e-22        00000 
 1.25655e-22  2.81168e-21        00000 
 1.11172e-21 -1.76842e-20        00000 
-1.05003e-20 -1.82040e-20        00000 
 5.12464e-20  6.56208e-19        00000 
-4.30894e-20 -2.55678e-18        00000 
-8.96778e-21  8.63174e-18        00000 
-1.64250e-19 -1.49181e-17        00000 
 2.94397e-19  8.43976e-18        00000 
-1.53125e-19 -1.40329e-18        00000 
 2.30171e-20  2.20462e-19        00000 
-8.01956e-21 -2.66316e-20        00000 
 1.29773e-33  9.07236e-33        00000 
-3.56794e-33 -1.63219e-32        00000 
 1.35123e-32  2.85834e-32        00000 
-5.87920e-32  4.49591e-32        00000 
 2.84784e-31 -5.67003e-31        00000 
-1.01559e-30  2.02915e-30        00000 
 2.86128e-30 -5.21483e-30        00000 
-6.60591e-30  3.02973e-30        00000 
 1.56602e-29  1.75079e-28        00000 
 2.52081e-29 -1.56850e-27        00000 
-2.51985e-28  5.66074e-27        00000 
 7.68132e-28 -7.07402e-27        00000 
-2.25831e-27 -3.18823e-26        00000 
 2.16328e-27  2.33972e-25        00000 
 3.58687e-26 -6.73937e-25        00000 
-2.62634e-25  2.42642e-24        00000 
 1.38854e-24 -2.46977e-24        00000 
-6.04929e-24 -3.10811e-23        00000 
 5.52339e-24  1.72574e-22        00000 
 8.95747e-23 -5.27147e-22        00000 
-7.24008e-22 -2.95304e-21        00000 
 3.20857e-21  4.13560e-20        00000 
-6.35847e-21 -1.97043e-19        00000 
 5.91717e-21  6.51182e-19        00000 
-9.40142e-21 -1.45145e-18        00000 
 2.60361e-20  1.87668e-18        00000 
-3.71093e-20 -1.19904e-18        00000 
 2.62016e-20  4.83839e-19        00000 
-9.90932e-21 -1.11144e-19        00000 
 3.89322e-21  3.76562e-20        00000 
-5.84486e-34 -2.20431e-33        00000 
 1.30785e-33  2.51488e-33        00000 
-5.25314e-33  1.53849e-33        00000 
 2.22391e-32 -3.28861e-32        00000 
-8.08422e-32  1.31856e-31        00000 
 2.39764e-31 -2.56987e-31        00000 
-5.81038e-31 -7.76597e-31        00000 
 1.09855e-30  1.43253e-29        00000 
 7.32097e-31 -9.82676e-29        00000 
-1.50658e-29  3.69429e-28        00000 
 5.80937e-29 -5.74995e-28        00000 
-1.41890e-28 -1.72343e-27        00000 
 1.30232e-29  1.53881e-26        00000 
 2.77273e-27 -5.67713e-26        00000 
-1.97362e-26  1.64445e-25        00000 
 9.34373e-26 -2.10925e-25        00000 
-3.10024e-25 -1.22669e-24        00000 
 1.39046e-26  6.91796e-24        00000 
 7.13303e-24  1.41264e-24        00000 
-5.14453e-23 -3.29997e-22        00000 
 2.22073e-22  2.95655e-21        00000 
-5.79470e-22 -1.46520e-20        00000 
 9.35200e-22  5.07824e-20        00000 
-1.25314e-21 -1.28516e-19        00000 
 2.26196e-21  2.26802e-19        00000 
-4.14556e-21 -2.64498e-19        00000 
 5.21396e-21  2.00516e-19        00000 
-4.17455e-21 -1.01551e-19        00000 
 2.26200e-21  3.85306e-20        00000 
-1.38780e-21 -1.92730e-20        00000 
 2.20824e-34  3.46935e-34        00000 
-4.80609e-34 -8.94701e-35        00000 
 1.81653e-33 -1.74041e-33        00000 
-6.49557e-33  7.47348e-33        00000 
 1.98168e-32 -8.99758e-33        00000 
-4.97844e-32 -1.09726e-31        00000 
 9.30057e-32  1.14456e-30        00000 
-1.25930e-32 -6.69779e-30        00000 
-7.89974e-31  2.46755e-29        00000 
 3.87670e-30 -4.47440e-29        00000 
-8.90570e-30 -8.94997e-29        00000 
-6.28744e-30  1.02188e-27        00000 
 2.12190e-28 -4.42308e-27        00000 
-1.39103e-27  1.33474e-26        00000 
 5.91184e-27 -2.50492e-26        00000 
-1.47718e-26 -2.64883e-27        00000 
-2.84043e-26 -1.40995e-26        00000 
 5.80967e-25  2.75631e-24        00000 
-3.78483e-24 -3.26645e-23        00000 
 1.62327e-23  2.28685e-22        00000 
-4.81716e-23 -1.10778e-21        00000 
 1.00418e-22  3.98451e-21        00000 
-1.62002e-22 -1.09942e-20        00000 
 2.53282e-22  2.29736e-20        00000 
-4.30930e-22 -3.54863e-20        00000 
 6.64416e-22  3.98268e-20        00000 
-7.81106e-22 -3.23333e-20        00000 
 6.67726e-22  1.92582e-20        00000 
-4.44092e-22 -9.16079e-21        00000 
 3.34989e-22  5.67603e-21        00000 
-7.79722e-35  1.80597e-36        00000 
 1.60008e-34 -3.92304e-35        00000 
-5.31030e-34  3.23200e-34        00000 
 1.63517e-33  1.70339e-34        00000 
-4.23453e-33 -1.13683e-32        00000 
 8.34468e-33  9.03701e-32        00000 
-5.98650e-33 -4.78343e-31        00000 
-4.13010e-32  1.76402e-30        00000 
 2.22882e-31 -4.19695e-30        00000 
-4.33423e-31  1.70022e-31        00000 
-8.90733e-31  3.41766e-29        00000 
 1.76143e-29 -2.79513e-28        00000 
-8.82575e-29  7.34390e-28        00000 
 3.47762e-28 -4.08836e-27        00000 
-6.48432e-28  1.24968e-26        00000 
-4.12139e-27 -5.43131e-26        00000 
 5.04450e-26  3.66812e-25        00000 
-2.85309e-25 -3.25996e-24        00000 
 1.22433e-24  1.85827e-23        00000 
-3.91657e-24 -8.53925e-23        00000 
 9.44822e-24  3.14952e-22        00000 
-1.79767e-23 -9.23586e-22        00000 
 2.97451e-23  2.15713e-21        00000 
-4.81609e-23 -3.95107e-21        00000 
 7.65338e-23  5.62380e-21        00000 
-1.07295e-22 -6.17393e-21        00000 
 1.21428e-22  5.22483e-21        00000 
-1.08511e-22 -3.45766e-21        00000 
 8.24188e-23  1.95126e-21        00000 
-6.94361e-23 -1.38799e-21        00000 
 2.51064e-35 -2.54827e-36        00000 
-4.69526e-35  4.24756e-36        00000 
 1.36246e-34  8.43314e-35        00000 
-3.60442e-34 -1.05910e-33        00000 
 7.56568e-34  7.14098e-33        00000 
-8.77916e-34 -3.49888e-32        00000 
-1.66039e-33  1.26444e-31        00000 
 1.24181e-32 -3.01095e-31        00000 
-2.43509e-32  9.81738e-32        00000 
-8.99240e-32  2.96002e-30        00000 
 1.14505e-30 -2.06624e-29        00000 
-5.75600e-30  8.44988e-29        00000 
 1.80181e-29 -3.70651e-28        00000 
-2.68190e-30  1.56633e-27        00000 
-4.73523e-28 -7.58215e-27        00000 
 4.12400e-27  4.49976e-26        00000 
-2.25230e-26 -2.86805e-25        00000 
 9.48097e-26  1.53159e-24        00000 
-3.16440e-25 -6.79221e-24        00000 
 8.39416e-25  2.51397e-23        00000 
-1.80457e-24 -7.70267e-23        00000 
 3.29737e-24  1.94284e-22        00000 
-5.50067e-24 -4.00359e-22        00000 
 8.80097e-24  6.68839e-22        00000 
-1.32132e-23 -9.00676e-22        00000 
 1.74553e-23  9.74748e-22        00000 
-1.93379e-23 -8.49447e-22        00000 
 1.78922e-23  6.06862e-22        00000 
-1.48547e-23 -3.88766e-22        00000 
 1.33320e-23  3.03788e-22        00000 
-7.25585e-36 -1.99938e-36        00000 
 1.23485e-35  1.18563e-35        00000 
-3.09962e-35 -9.52571e-35        00000 
 6.85040e-35  5.64503e-34        00000 
-1.02826e-34 -2.59403e-33        00000 
-8.60358e-36  9.09467e-33        00000 
 6.06718e-34 -2.12834e-32        00000 
-1.20500e-33  5.51873e-33        00000 
-6.82984e-33  2.54234e-31        00000 
 7.11949e-32 -1.75840e-30        00000 
-3.26241e-31  8.34154e-30        00000 
 6.83640e-31 -3.74912e-29        00000 
 3.22874e-30  1.72425e-28        00000 
-4.84869e-29 -8.57576e-28        00000 
 3.45908e-28  4.65607e-27        00000 
-1.79894e-27 -2.56076e-26        00000 
 7.49570e-27  1.27352e-25        00000 
-2.56657e-26 -5.48974e-25        00000 
 7.25242e-26  2.03183e-24        00000 
-1.70605e-25 -6.40861e-24        00000 
 3.42211e-25  1.71065e-23        00000 
-6.09689e-25 -3.83963e-23        00000 
 1.00754e-24  7.20371e-23        00000 
-1.56964e-24 -1.12421e-22        00000 
 2.25189e-24  1.45478e-22        00000 
-2.85957e-24 -1.55912e-22        00000 
 3.13229e-24  1.39013e-22        00000 
-2.98137e-24 -1.05420e-22        00000 
 2.63090e-24  7.43144e-23        00000 
-2.45354e-24 -6.19321e-23        00000 
 1.89587e-36  2.56660e-36        00000 
-2.92995e-36 -8.50793e-36        00000 
 6.24119e-36  4.45930e-35        00000 
-1.08916e-35 -1.93275e-34        00000 
 8.74674e-36  6.52877e-34        00000 
 2.11577e-35 -1.44904e-33        00000 
-5.15635e-35 -2.17056e-34        00000 
-4.24352e-34  2.32784e-32        00000 
 3.86409e-33 -1.59608e-31        00000 
-1.42989e-32  8.07694e-31        00000 
-5.69658e-33 -3.78432e-30        00000 
 5.13871e-31  1.79039e-29        00000 
-4.69477e-30 -8.83172e-29        00000 
 2.93688e-29  4.51105e-28        00000 
-1.45787e-28 -2.27915e-27        00000 
 6.01286e-28  1.07021e-26        00000 
-2.09410e-27 -4.49308e-26        00000 
 6.18401e-27  1.65928e-25        00000 
-1.55544e-26 -5.33929e-25        00000 
 3.37383e-26  1.48654e-24        00000 
-6.45893e-26 -3.55912e-24        00000 
 1.12459e-25  7.28960e-24        00000 
-1.82304e-25 -1.27173e-23        00000 
 2.75690e-25  1.88389e-23        00000 
-3.81502e-25 -2.36521e-23        00000 
 4.71404e-25  2.51881e-23        00000 
-5.13621e-25 -2.28929e-23        00000 
 5.00297e-25  1.82210e-23        00000 
-4.60716e-25 -1.38205e-23        00000 
 4.40263e-25  1.20485e-23        00000 
-4.48998e-37 -1.47725e-36        00000 
 6.28983e-37  3.58367e-36        00000 
-1.10829e-36 -1.42890e-35        00000 
 1.41975e-36  4.60041e-35        00000 
-2.10671e-37 -9.21633e-35        00000 
-1.89768e-36 -1.02840e-34        00000 
-1.79004e-35  2.25179e-33        00000 
 1.42971e-34 -1.49926e-32        00000 
-1.39841e-34  7.79954e-32        00000 
-5.32391e-33 -3.74880e-31        00000 
 6.09173e-32  1.78724e-30        00000 
-4.40518e-31 -8.65597e-30        00000 
 2.51029e-30  4.22565e-29        00000 
-1.19661e-29 -2.01778e-28        00000 
 4.88101e-29  9.06544e-28        00000 
-1.71901e-28 -3.71762e-27        00000 
 5.24156e-28  1.36724e-26        00000 
-1.38701e-27 -4.46126e-26        00000 
 3.20602e-27  1.28234e-25        00000 
-6.55996e-27 -3.22744e-25        00000 
 1.21146e-26  7.07765e-25        00000 
-2.06005e-26 -1.34699e-24        00000 
 3.26237e-26  2.21798e-24        00000 
-4.79516e-26 -3.15339e-24        00000 
 6.44793e-26  3.86831e-24        00000 
-7.81402e-26 -4.10186e-24        00000 
 8.49817e-26  3.79126e-24        00000 
-8.43403e-26 -3.14094e-24        00000 
 8.00607e-26  2.52139e-24        00000 
-7.77518e-26 -2.27026e-24        00000 
 9.74817e-38  5.47626e-37        00000 
-1.22911e-37 -1.11300e-36        00000 
 1.73557e-37  3.16921e-36        00000 
-1.47263e-37 -5.07367e-36        00000 
-8.78010e-38 -1.77495e-35        00000 
 3.33113e-37  2.24483e-34        00000 
-3.48162e-36 -1.43341e-33        00000 
 7.37125e-35  7.50841e-33        00000 
-8.22620e-34 -3.64671e-32        00000 
 6.45486e-33  1.73458e-31        00000 
-4.05475e-32 -8.23451e-31        00000 
 2.15485e-31  3.88055e-30        00000 
-9.92373e-31 -1.77857e-29        00000 
 4.00227e-30  7.72199e-29        00000 
-1.41949e-29 -3.10286e-28        00000 
 4.43271e-29  1.13520e-27        00000 
-1.21990e-28 -3.74059e-27        00000 
 2.96879e-28  1.10191e-26        00000 
-6.43772e-28 -2.88464e-26        00000 
 1.25927e-27  6.67930e-26        00000 
-2.25504e-27 -1.36272e-25        00000 
 3.74306e-27  2.44242e-25        00000 
-5.78577e-27 -3.83740e-25        00000 
 8.28829e-27  5.27853e-25        00000 
-1.08909e-26 -6.35766e-25        00000 
 1.30141e-26  6.72456e-25        00000 
-1.41544e-26 -6.30929e-25        00000 
 1.42603e-26  5.40562e-25        00000 
-1.38374e-26 -4.53639e-25        00000 
 1.35877e-26  4.18251e-25        00000 
-1.92883e-38 -1.52720e-37        00000 
 2.16519e-38  2.27134e-37        00000 
-2.15876e-38 -1.89617e-37        00000 
-1.08949e-38 -2.40764e-36        00000 
 2.06420e-37  2.26117e-35        00000 
-1.60640e-36 -1.38027e-34        00000 
 1.30848e-35  7.19239e-34        00000 
-9.84921e-35 -3.49409e-33        00000 
 6.45360e-34  1.64946e-32        00000 
-3.68565e-33 -7.68172e-32        00000 
 1.85539e-32  3.51862e-31        00000 
-8.29812e-32 -1.56273e-30        00000 
 3.30981e-31  6.60400e-30        00000 
-1.17874e-30 -2.60806e-29        00000 
 3.74781e-30  9.48923e-29        00000 
-1.06379e-29 -3.14812e-28        00000 
 2.69976e-29  9.45202e-28        00000 
-6.15167e-29 -2.55351e-27        00000 
 1.26841e-28  6.17841e-27        00000 
-2.39092e-28 -1.33393e-26        00000 
 4.16373e-28  2.56227e-26        00000 
-6.74777e-28 -4.36908e-26        00000 
 1.01888e-27  6.60351e-26        00000 
-1.42681e-27 -8.84113e-26        00000 
 1.84006e-27  1.04940e-25        00000 
-2.17612e-27 -1.10863e-25        00000 
 2.36921e-27  1.05434e-25        00000 
-2.41579e-27 -9.29277e-26        00000 
 2.38229e-27  8.07724e-26        00000 
-2.35754e-27 -7.58054e-26        00000 
 3.36517e-39  2.42965e-38        00000 
-2.97468e-39  1.10975e-39        00000 
-1.67572e-39 -2.89815e-37        00000 
 3.39729e-38  2.27406e-36        00000 
-2.46051e-37 -1.32991e-35        00000 
 1.65764e-36  6.84773e-35        00000 
-1.05998e-35 -3.30671e-34        00000 
 6.23122e-35  1.54495e-33        00000 
-3.32141e-34 -7.06884e-33        00000 
 1.60129e-33  3.16305e-32        00000 
-6.98499e-33 -1.37005e-31        00000 
 2.75694e-32  5.66488e-31        00000 
-9.83907e-32 -2.20460e-30        00000 
 3.17161e-31  7.97790e-30        00000 
-9.22704e-31 -2.65909e-29        00000 
 2.42358e-30  8.10423e-29        00000 
-5.76023e-30 -2.24589e-28        00000 
 1.24461e-29  5.63360e-28        00000 
-2.46201e-29 -1.27449e-27        00000 
 4.49474e-29  2.59283e-27        00000 
-7.62754e-29 -4.73274e-27        00000 
 1.20795e-28  7.73816e-27        00000 
-1.78451e-28 -1.13219e-26        00000 
 2.44980e-28  1.48221e-26        00000 
-3.11108e-28 -1.73876e-26        00000 
 3.65084e-28  1.83645e-26        00000 
-3.98040e-28 -1.76804e-26        00000 
 4.09762e-28  1.59613e-26        00000 
-4.08968e-28 -1.42680e-26        00000 
 4.06988e-28  1.35733e-26        00000 
-3.87835e-40  5.11010e-39        00000 
-1.64927e-40 -3.23733e-38        00000 
 4.32561e-39  2.26783e-37        00000 
-3.00398e-38 -1.27728e-36        00000 
 1.84759e-37  6.47729e-36        00000 
-1.07650e-36 -3.09812e-35        00000 
 5.88063e-36  1.43080e-34        00000 
-2.97473e-35 -6.44204e-34        00000 
 1.38457e-34  2.82614e-33        00000 
-5.91146e-34 -1.19923e-32        00000 
 2.31047e-33  4.87062e-32        00000 
-8.25159e-33 -1.87213e-31        00000 
 2.68818e-32  6.73985e-31        00000 
-7.97761e-32 -2.25368e-30        00000 
 2.15597e-31  6.95156e-30        00000 
-5.31038e-31 -1.96716e-29        00000 
 1.19554e-30  5.08111e-29        00000 