<?xml version="1.0" encoding="utf-8"?>
<VTKFile byte_order="LittleEndian" type="UnstructuredGrid" version="0.1">
   <UnstructuredGrid>
      <Piece NumberOfCells="3364" NumberOfPoints="1741">
         <Points>
            <DataArray Name="Points" NumberOfComponents="3" format="ascii" type="Float32">
0.0000 1.0000 0.0000
0.0000 1.0345 0.0000
0.0000 1.0690 0.0000
0.0000 1.1034 0.0000
0.0000 1.1379 0.0000
0.0000 1.1724 0.0000
0.0000 1.2069 0.0000
0.0000 1.2414 0.0000
0.0000 1.2759 0.0000
0.0000 1.3103 0.0000
0.0000 1.3448 0.0000
0.0000 1.3793 0.0000
0.0000 1.4138 0.0000
0.0000 1.4483 0.0000
0.0000 1.4828 0.0000
0.0000 1.5172 0.0000
0.0000 1.5517 0.0000
0.0000 1.5862 0.0000
0.0000 1.6207 0.0000
0.0000 1.6552 0.0000
0.0000 1.6897 0.0000
0.0000 1.7241 0.0000
0.0000 1.7586 0.0000
0.0000 1.7931 0.0000
0.0000 1.8276 0.0000
0.0000 1.8621 0.0000
0.0000 1.8966 0.0000
0.0000 1.9310 0.0000
0.0000 1.9655 0.0000
0.0000 2.0000 0.0000
0.0690 1.0000 0.0000
0.0690 1.0345 0.0000
0.0690 1.0690 0.0000
0.0690 1.1034 0.0000
0.0690 1.1379 0.0000
0.0690 1.1724 0.0000
0.0690 1.2069 0.0000
0.0690 1.2414 0.0000
0.0690 1.2759 0.0000
0.0690 1.3103 0.0000
0.0690 1.3448 0.0000
0.0690 1.3793 0.0000
0.0690 1.4138 0.0000
0.0690 1.4483 0.0000
0.0690 1.4828 0.0000
0.0690 1.5172 0.0000
0.0690 1.5517 0.0000
0.0690 1.5862 0.0000
0.0690 1.6207 0.0000
0.0690 1.6552 0.0000
0.0690 1.6897 0.0000
0.0690 1.7241 0.0000
0.0690 1.7586 0.0000
0.0690 1.7931 0.0000
0.0690 1.8276 0.0000
0.0690 1.8621 0.0000
0.0690 1.8966 0.0000
0.0690 1.9310 0.0000
0.0690 1.9655 0.0000
0.0690 2.0000 0.0000
0.1379 1.0000 0.0000
0.1379 1.0345 0.0000
0.1379 1.0690 0.0000
0.1379 1.1034 0.0000
0.1379 1.1379 0.0000
0.1379 1.1724 0.0000
0.1379 1.2069 0.0000
0.1379 1.2414 0.0000
0.1379 1.2759 0.0000
0.1379 1.3103 0.0000
0.1379 1.3448 0.0000
0.1379 1.3793 0.0000
0.1379 1.4138 0.0000
0.1379 1.4483 0.0000
0.1379 1.4828 0.0000
0.1379 1.5172 0.0000
0.1379 1.5517 0.0000
0.1379 1.5862 0.0000
0.1379 1.6207 0.0000
0.1379 1.6552 0.0000
0.1379 1.6897 0.0000
0.1379 1.7241 0.0000
0.1379 1.7586 0.0000
0.1379 1.7931 0.0000
0.1379 1.8276 0.0000
0.1379 1.8621 0.0000
0.1379 1.8966 0.0000
0.1379 1.9310 0.0000
0.1379 1.9655 0.0000
0.1379 2.0000 0.0000
0.2069 1.0000 0.0000
0.2069 1.0345 0.0000
0.2069 1.0690 0.0000
0.2069 1.1034 0.0000
0.2069 1.1379 0.0000
0.2069 1.1724 0.0000
0.2069 1.2069 0.0000
0.2069 1.2414 0.0000
0.2069 1.2759 0.0000
0.2069 1.3103 0.0000
0.2069 1.3448 0.0000
0.2069 1.3793 0.0000
0.2069 1.4138 0.0000
0.2069 1.4483 0.0000
0.2069 1.4828 0.0000
0.2069 1.5172 0.0000
0.2069 1.5517 0.0000
0.2069 1.5862 0.0000
0.2069 1.6207 0.0000
0.2069 1.6552 0.0000
0.2069 1.6897 0.0000
0.2069 1.7241 0.0000
0.2069 1.7586 0.0000
0.2069 1.7931 0.0000
0.2069 1.8276 0.0000
0.2069 1.8621 0.0000
0.2069 1.8966 0.0000
0.2069 1.9310 0.0000
0.2069 1.9655 0.0000
0.2069 2.0000 0.0000
0.2759 1.0000 0.0000
0.2759 1.0345 0.0000
0.2759 1.0690 0.0000
0.2759 1.1034 0.0000
0.2759 1.1379 0.0000
0.2759 1.1724 0.0000
0.2759 1.2069 0.0000
0.2759 1.2414 0.0000
0.2759 1.2759 0.0000
0.2759 1.3103 0.0000
0.2759 1.3448 0.0000
0.2759 1.3793 0.0000
0.2759 1.4138 0.0000
0.2759 1.4483 0.0000
0.2759 1.4828 0.0000
0.2759 1.5172 0.0000
0.2759 1.5517 0.0000
0.2759 1.5862 0.0000
0.2759 1.6207 0.0000
0.2759 1.6552 0.0000
0.2759 1.6897 0.0000
0.2759 1.7241 0.0000
0.2759 1.7586 0.0000
0.2759 1.7931 0.0000
0.2759 1.8276 0.0000
0.2759 1.8621 0.0000
0.2759 1.8966 0.0000
0.2759 1.9310 0.0000
0.2759 1.9655 0.0000
0.2759 2.0000 0.0000
0.3448 1.0000 0.0000
0.3448 1.0345 0.0000
0.3448 1.0690 0.0000
0.3448 1.1034 0.0000
0.3448 1.1379 0.0000
0.3448 1.1724 0.0000
0.3448 1.2069 0.0000
0.3448 1.2414 0.0000
0.3448 1.2759 0.0000
0.3448 1.3103 0.0000
0.3448 1.3448 0.0000
0.3448 1.3793 0.0000
0.3448 1.4138 0.0000
0.3448 1.4483 0.0000
0.3448 1.4828 0.0000
0.3448 1.5172 0.0000
0.3448 1.5517 0.0000
0.3448 1.5862 0.0000
0.3448 1.6207 0.0000
0.3448 1.6552 0.0000
0.3448 1.6897 0.0000
0.3448 1.7241 0.0000
0.3448 1.7586 0.0000
0.3448 1.7931 0.0000
0.3448 1.8276 0.0000
0.3448 1.8621 0.0000
0.3448 1.8966 0.0000
0.3448 1.9310 0.0000
0.3448 1.9655 0.0000
0.3448 2.0000 0.0000
0.4138 1.0000 0.0000
0.4138 1.0345 0.0000
0.4138 1.0690 0.0000
0.4138 1.1034 0.0000
0.4138 1.1379 0.0000
0.4138 1.1724 0.0000
0.4138 1.2069 0.0000
0.4138 1.2414 0.0000
0.4138 1.2759 0.0000
0.4138 1.3103 0.0000
0.4138 1.3448 0.0000
0.4138 1.3793 0.0000
0.4138 1.4138 0.0000
0.4138 1.4483 0.0000
0.4138 1.4828 0.0000
0.4138 1.5172 0.0000
0.4138 1.5517 0.0000
0.4138 1.5862 0.0000
0.4138 1.6207 0.0000
0.4138 1.6552 0.0000
0.4138 1.6897 0.0000
0.4138 1.7241 0.0000
0.4138 1.7586 0.0000
0.4138 1.7931 0.0000
0.4138 1.8276 0.0000
0.4138 1.8621 0.0000
0.4138 1.8966 0.0000
0.4138 1.9310 0.0000
0.4138 1.9655 0.0000
0.4138 2.0000 0.0000
0.4828 1.0000 0.0000
0.4828 1.0345 0.0000
0.4828 1.0690 0.0000
0.4828 1.1034 0.0000
0.4828 1.1379 0.0000
0.4828 1.1724 0.0000
0.4828 1.2069 0.0000
0.4828 1.2414 0.0000
0.4828 1.2759 0.0000
0.4828 1.3103 0.0000
0.4828 1.3448 0.0000
0.4828 1.3793 0.0000
0.4828 1.4138 0.0000
0.4828 1.4483 0.0000
0.4828 1.4828 0.0000
0.4828 1.5172 0.0000
0.4828 1.5517 0.0000
0.4828 1.5862 0.0000
0.4828 1.6207 0.0000
0.4828 1.6552 0.0000
0.4828 1.6897 0.0000
0.4828 1.7241 0.0000
0.4828 1.7586 0.0000
0.4828 1.7931 0.0000
0.4828 1.8276 0.0000
0.4828 1.8621 0.0000
0.4828 1.8966 0.0000
0.4828 1.9310 0.0000
0.4828 1.9655 0.0000
0.4828 2.0000 0.0000
0.5517 1.0000 0.0000
0.5517 1.0345 0.0000
0.5517 1.0690 0.0000
0.5517 1.1034 0.0000
0.5517 1.1379 0.0000
0.5517 1.1724 0.0000
0.5517 1.2069 0.0000
0.5517 1.2414 0.0000
0.5517 1.2759 0.0000
0.5517 1.3103 0.0000
0.5517 1.3448 0.0000
0.5517 1.3793 0.0000
0.5517 1.4138 0.0000
0.5517 1.4483 0.0000
0.5517 1.4828 0.0000
0.5517 1.5172 0.0000
0.5517 1.5517 0.0000
0.5517 1.5862 0.0000
0.5517 1.6207 0.0000
0.5517 1.6552 0.0000
0.5517 1.6897 0.0000
0.5517 1.7241 0.0000
0.5517 1.7586 0.0000
0.5517 1.7931 0.0000
0.5517 1.8276 0.0000
0.5517 1.8621 0.0000
0.5517 1.8966 0.0000
0.5517 1.9310 0.0000
0.5517 1.9655 0.0000
0.5517 2.0000 0.0000
0.6207 1.0000 0.0000
0.6207 1.0345 0.0000
0.6207 1.0690 0.0000
0.6207 1.1034 0.0000
0.6207 1.1379 0.0000
0.6207 1.1724 0.0000
0.6207 1.2069 0.0000
0.6207 1.2414 0.0000
0.6207 1.2759 0.0000
0.6207 1.3103 0.0000
0.6207 1.3448 0.0000
0.6207 1.3793 0.0000
0.6207 1.4138 0.0000
0.6207 1.4483 0.0000
0.6207 1.4828 0.0000
0.6207 1.5172 0.0000
0.6207 1.5517 0.0000
0.6207 1.5862 0.0000
0.6207 1.6207 0.0000
0.6207 1.6552 0.0000
0.6207 1.6897 0.0000
0.6207 1.7241 0.0000
0.6207 1.7586 0.0000
0.6207 1.7931 0.0000
0.6207 1.8276 0.0000
0.6207 1.8621 0.0000
0.6207 1.8966 0.0000
0.6207 1.9310 0.0000
0.6207 1.9655 0.0000
0.6207 2.0000 0.0000
0.6897 1.0000 0.0000
0.6897 1.0345 0.0000
0.6897 1.0690 0.0000
0.6897 1.1034 0.0000
0.6897 1.1379 0.0000
0.6897 1.1724 0.0000
0.6897 1.2069 0.0000
0.6897 1.2414 0.0000
0.6897 1.2759 0.0000
0.6897 1.3103 0.0000
0.6897 1.3448 0.0000
0.6897 1.3793 0.0000
0.6897 1.4138 0.0000
0.6897 1.4483 0.0000
0.6897 1.4828 0.0000
0.6897 1.5172 0.0000
0.6897 1.5517 0.0000
0.6897 1.5862 0.0000
0.6897 1.6207 0.0000
0.6897 1.6552 0.0000
0.6897 1.6897 0.0000
0.6897 1.7241 0.0000
0.6897 1.7586 0.0000
0.6897 1.7931 0.0000
0.6897 1.8276 0.0000
0.6897 1.8621 0.0000
0.6897 1.8966 0.0000
0.6897 1.9310 0.0000
0.6897 1.9655 0.0000
0.6897 2.0000 0.0000
0.7586 1.0000 0.0000
0.7586 1.0345 0.0000
0.7586 1.0690 0.0000
0.7586 1.1034 0.0000
0.7586 1.1379 0.0000
0.7586 1.1724 0.0000
0.7586 1.2069 0.0000
0.7586 1.2414 0.0000
0.7586 1.2759 0.0000
0.7586 1.3103 0.0000
0.7586 1.3448 0.0000
0.7586 1.3793 0.0000
0.7586 1.4138 0.0000
0.7586 1.4483 0.0000
0.7586 1.4828 0.0000
0.7586 1.5172 0.0000
0.7586 1.5517 0.0000
0.7586 1.5862 0.0000
0.7586 1.6207 0.0000
0.7586 1.6552 0.0000
0.7586 1.6897 0.0000
0.7586 1.7241 0.0000
0.7586 1.7586 0.0000
0.7586 1.7931 0.0000
0.7586 1.8276 0.0000
0.7586 1.8621 0.0000
0.7586 1.8966 0.0000
0.7586 1.9310 0.0000
0.7586 1.9655 0.0000
0.7586 2.0000 0.0000
0.8276 1.0000 0.0000
0.8276 1.0345 0.0000
0.8276 1.0690 0.0000
0.8276 1.1034 0.0000
0.8276 1.1379 0.0000
0.8276 1.1724 0.0000
0.8276 1.2069 0.0000
0.8276 1.2414 0.0000
0.8276 1.2759 0.0000
0.8276 1.3103 0.0000
0.8276 1.3448 0.0000
0.8276 1.3793 0.0000
0.8276 1.4138 0.0000
0.8276 1.4483 0.0000
0.8276 1.4828 0.0000
0.8276 1.5172 0.0000
0.8276 1.5517 0.0000
0.8276 1.5862 0.0000
0.8276 1.6207 0.0000
0.8276 1.6552 0.0000
0.8276 1.6897 0.0000
0.8276 1.7241 0.0000
0.8276 1.7586 0.0000
0.8276 1.7931 0.0000
0.8276 1.8276 0.0000
0.8276 1.8621 0.0000
0.8276 1.8966 0.0000
0.8276 1.9310 0.0000
0.8276 1.9655 0.0000
0.8276 2.0000 0.0000
0.8966 1.0000 0.0000
0.8966 1.0345 0.0000
0.8966 1.0690 0.0000
0.8966 1.1034 0.0000
0.8966 1.1379 0.0000
0.8966 1.1724 0.0000
0.8966 1.2069 0.0000
0.8966 1.2414 0.0000
0.8966 1.2759 0.0000
0.8966 1.3103 0.0000
0.8966 1.3448 0.0000
0.8966 1.3793 0.0000
0.8966 1.4138 0.0000
0.8966 1.4483 0.0000
0.8966 1.4828 0.0000
0.8966 1.5172 0.0000
0.8966 1.5517 0.0000
0.8966 1.5862 0.0000
0.8966 1.6207 0.0000
0.8966 1.6552 0.0000
0.8966 1.6897 0.0000
0.8966 1.7241 0.0000
0.8966 1.7586 0.0000
0.8966 1.7931 0.0000
0.8966 1.8276 0.0000
0.8966 1.8621 0.0000
0.8966 1.8966 0.0000
0.8966 1.9310 0.0000
0.8966 1.9655 0.0000
0.8966 2.0000 0.0000
0.9655 1.0000 0.0000
0.9655 1.0345 0.0000
0.9655 1.0690 0.0000
0.9655 1.1034 0.0000
0.9655 1.1379 0.0000
0.9655 1.1724 0.0000
0.9655 1.2069 0.0000
0.9655 1.2414 0.0000
0.9655 1.2759 0.0000
0.9655 1.3103 0.0000
0.9655 1.3448 0.0000
0.9655 1.3793 0.0000
0.9655 1.4138 0.0000
0.9655 1.4483 0.0000
0.9655 1.4828 0.0000
0.9655 1.5172 0.0000
0.9655 1.5517 0.0000
0.9655 1.5862 0.0000
0.9655 1.6207 0.0000
0.9655 1.6552 0.0000
0.9655 1.6897 0.0000
0.9655 1.7241 0.0000
0.9655 1.7586 0.0000
0.9655 1.7931 0.0000
0.9655 1.8276 0.0000
0.9655 1.8621 0.0000
0.9655 1.8966 0.0000
0.9655 1.9310 0.0000
0.9655 1.9655 0.0000
0.9655 2.0000 0.0000
1.0345 1.0000 0.0000
1.0345 1.0345 0.0000
1.0345 1.0690 0.0000
1.0345 1.1034 0.0000
1.0345 1.1379 0.0000
1.0345 1.1724 0.0000
1.0345 1.2069 0.0000
1.0345 1.2414 0.0000
1.0345 1.2759 0.0000
1.0345 1.3103 0.0000
1.0345 1.3448 0.0000
[...]
         <PointData>
            <DataArray Name="fValues" NumberOfComponents="3" format="ascii" type="Float64">
 1.95538e-23 -9.07508e-24        00000 
 3.93026e-23 -2.24586e-23        00000 
       00000  1.05492e-22        00000 
 2.42762e-22  6.01325e-22        00000 
-1.11044e-22  1.99879e-22        00000 
 5.39014e-22  1.99158e-21        00000 
 5.55220e-22 -5.77429e-22        00000 
 1.67422e-22  4.58040e-21        00000 
 6.21846e-22 -1.42136e-21        00000 
 4.07991e-22  2.75845e-21        00000 
 1.06602e-21  1.27923e-20        00000 
 1.35054e-21  5.71468e-21        00000 
 1.95437e-21        00000        00000 
-3.78779e-22  1.21399e-20        00000 
       00000  1.42136e-20        00000 
-2.00907e-22 -1.05811e-20        00000 
 4.44176e-22  1.35029e-20        00000 
-6.42179e-22  5.89321e-21        00000 
-6.44055e-22  2.34525e-20        00000 
-7.81304e-23  1.81709e-20        00000 
-3.55341e-21  9.59420e-21        00000 
 3.29656e-22  1.00179e-20        00000 
-1.59903e-21  2.06098e-20        00000 
 6.13882e-22  1.11615e-22        00000 
-2.04321e-21  1.68787e-21        00000 
-5.42413e-22  9.52575e-21        00000 
-7.10681e-22  4.44176e-22        00000 
-1.50961e-22  2.90740e-21        00000 
 1.23196e-22 -3.72388e-22        00000 
 4.39273e-22 -1.84595e-21        00000 
 7.39473e-07  1.38885e-07        00000 
 2.48103e-07  1.57296e-07        00000 
 4.99243e-07  3.55469e-07        00000 
 9.08428e-07  6.17983e-07        00000 
 1.53866e-06  1.07838e-06        00000 
 2.48098e-06  1.88345e-06        00000 
 3.83206e-06  3.22888e-06        00000 
 5.65862e-06  5.37168e-06        00000 
 7.95177e-06  8.60958e-06        00000 
 1.05737e-05  1.32253e-05        00000 
 1.32168e-05  1.93942e-05        00000 
 1.54036e-05  2.70702e-05        00000 
 1.65530e-05  3.58829e-05        00000 
 1.61161e-05  4.50949e-05        00000 
 1.37540e-05  5.36628e-05        00000 
 9.49547e-06  6.04144e-05        00000 
 3.80321e-06  6.43075e-05        00000 
-2.49736e-06  6.46959e-05        00000 
-8.41729e-06  6.15059e-05        00000 
-1.30647e-05  5.52591e-05        00000 
-1.58701e-05  4.69316e-05        00000 
-1.66965e-05  3.77014e-05        00000 
-1.58066e-05  2.86762e-05        00000 
-1.37191e-05  2.06876e-05        00000 
-1.10244e-05  1.42014e-05        00000 
-8.22722e-06  9.34041e-06        00000 
-5.65471e-06  5.96958e-06        00000 
-3.49315e-06  3.70491e-06        00000 
-1.90862e-06  1.78998e-06        00000 
-6.98181e-06  1.55961e-06        00000 
-8.14239e-07 -3.05517e-07        00000 
-3.73925e-07 -3.95197e-07        00000 
-5.70081e-07 -6.39334e-07        00000 
-1.06060e-06 -1.11216e-06        00000 
-1.81896e-06 -1.97323e-06        00000 
-2.97056e-06 -3.49952e-06        00000 
-4.65323e-06 -6.09358e-06        00000 
-6.97655e-06 -1.02984e-05        00000 
-9.95980e-06 -1.67619e-05        00000 
-1.34539e-05 -2.61256e-05        00000 
-1.70728e-05 -3.88271e-05        00000 
-2.01775e-05 -5.48424e-05        00000 
-2.19532e-05 -7.34420e-05        00000 
-2.15983e-05 -9.30733e-05        00000 
-1.85856e-05 -1.11474e-04        00000 
-1.29076e-05 -1.26057e-04        00000 
-5.19105e-06 -1.34498e-04        00000 
 3.39692e-06 -1.35347e-04        00000 
 1.14430e-05 -1.28435e-04        00000 
 1.76791e-05 -1.14934e-04        00000 
 2.13183e-05 -9.70222e-05        00000 
 2.22106e-05 -7.73082e-05        00000 
 2.07784e-05 -5.82069e-05        00000 
 1.77905e-05 -4.14855e-05        00000 
 1.40850e-05 -2.80787e-05        00000 
 1.03441e-05 -1.81610e-05        00000 
 6.98289e-06 -1.13604e-05        00000 
 4.18098e-06 -6.97991e-06        00000 
 3.14031e-06 -4.42464e-06        00000 
 7.78174e-06 -3.42045e-06        00000 
 7.88640e-07  4.54195e-07        00000 
 3.83093e-07  6.05452e-07        00000 
 5.70217e-07  9.24414e-07        00000 
 1.06125e-06  1.58747e-06        00000 
 1.85321e-06  2.83033e-06        00000 
 3.09003e-06  5.05584e-06        00000 
 4.95501e-06  8.88354e-06        00000 
 7.61853e-06  1.51748e-05        00000 
 1.11616e-05  2.49901e-05        00000 
 1.54673e-05  3.94243e-05        00000 
 2.01092e-05  5.92900e-05        00000 
 2.42982e-05  8.46793e-05        00000 
 2.69555e-05  1.14525e-04        00000 
 2.69545e-05  1.46356e-04        00000 
 2.34926e-05  1.76444e-04        00000 
 1.64651e-05  2.00442e-04        00000 
 6.66328e-06  2.14394e-04        00000 
-4.33744e-06  2.15809e-04        00000 
-1.45992e-05  2.04395e-04        00000 
-2.23960e-05  1.82160e-04        00000 
-2.67020e-05  1.52821e-04        00000 
-2.74004e-05  1.20779e-04        00000 
-2.51596e-05  9.00382e-05        00000 
-2.10809e-05  6.34433e-05        00000 
-1.62960e-05  4.24005e-05        00000 
-1.16696e-05  2.70486e-05        00000 
-7.67944e-06  1.66819e-05        00000 
-4.57341e-06  1.02464e-05        00000 
-3.42364e-06  6.75034e-06        00000 
-7.69403e-06  5.05981e-06        00000 
-7.27381e-07 -5.92952e-07        00000 
-3.62085e-07 -7.91120e-07        00000 
-5.42215e-07 -1.18734e-06        00000 
-1.02052e-06 -2.02385e-06        00000 
-1.82096e-06 -3.61288e-06        00000 
-3.12181e-06 -6.49031e-06        00000 
-5.16662e-06 -1.15070e-05        00000 
-8.21655e-06 -1.98888e-05        00000 
-1.24574e-05 -3.32052e-05        00000 
-1.78480e-05 -5.31599e-05        00000 
-2.39398e-05 -8.11360e-05        00000 
-2.97525e-05 -1.17519e-04        00000 
-3.38226e-05 -1.60966e-04        00000 
-3.45132e-05 -2.07934e-04        00000 
-3.05586e-05 -2.52824e-04        00000 
-2.16590e-05 -2.88927e-04        00000 
-8.83253e-06 -3.10035e-04        00000 
 5.71294e-06 -3.12199e-04        00000 
 1.92095e-05 -2.94951e-04        00000 
 2.92130e-05 -2.61466e-04        00000 
 3.43459e-05 -2.17594e-04        00000 
 3.45841e-05 -1.70162e-04        00000 
 3.10185e-05 -1.25243e-04        00000 
 2.52835e-05 -8.69753e-05        00000 
 1.89519e-05 -5.72182e-05        00000 
 1.31366e-05 -3.59116e-05        00000 
 8.38471e-06 -2.18173e-05        00000 
 4.87935e-06 -1.32882e-05        00000 
 3.49124e-06 -8.78503e-06        00000 
 7.28198e-06 -6.54198e-06        00000 
 6.48040e-07  7.17155e-07        00000 
 3.27709e-07  9.53521e-07        00000 
 4.97888e-07  1.41779e-06        00000 
 9.53421e-07  2.40251e-06        00000 
 1.74715e-06  4.28858e-06        00000 
 3.09906e-06  7.74349e-06        00000 
 5.33227e-06  1.38637e-05        00000 
 8.83681e-06  2.42946e-05        00000 
 1.39637e-05  4.12436e-05        00000 
 2.08168e-05  6.72489e-05        00000 
 2.89669e-05  1.04572e-04        00000 
 3.72010e-05  1.54198e-04        00000 
 4.35014e-05  2.14656e-04        00000 
 4.54337e-05  2.81149e-04        00000 
 4.09594e-05  3.45597e-04        00000 
 2.94041e-05  3.97981e-04        00000 
 1.20954e-05  4.28828e-04        00000 
-7.76777e-06  4.32035e-04        00000 
-2.60886e-05  4.06863e-04        00000 
-3.92834e-05  3.58212e-04        00000 
-4.54534e-05  2.95038e-04        00000 
-4.47842e-05  2.27612e-04        00000 
-3.90880e-05  1.64803e-04        00000 
-3.08491e-05  1.12339e-04        00000 
-2.22954e-05  7.24431e-05        00000 
-1.48634e-05  4.45591e-05        00000 
-9.13193e-06  2.65753e-05        00000 
-5.13590e-06  1.59712e-05        00000 
-3.45738e-06  1.05129e-05        00000 
-6.66953e-06  7.80330e-06        00000 
-5.55693e-07 -8.24342e-07        00000 
-2.84560e-07 -1.09183e-06        00000 
-4.39605e-07 -1.61082e-06        00000 
-8.59966e-07 -2.71263e-06        00000 
-1.62631e-06 -4.83460e-06        00000 
-3.00313e-06 -8.76537e-06        00000 
-5.41006e-06 -1.58521e-05        00000 
-9.41044e-06 -2.82137e-05        00000 
-1.56035e-05 -4.88499e-05        00000 
-2.43515e-05 -8.14387e-05        00000 
-3.53393e-05 -1.29578e-04        00000 
-4.71088e-05 -1.95356e-04        00000 
-5.68749e-05 -2.77495e-04        00000 
-6.09790e-05 -3.69774e-04        00000 
-5.61002e-05 -4.60771e-04        00000 
-4.08562e-05 -5.35700e-04        00000 
-1.69703e-05 -5.80212e-04        00000 
 1.08133e-05 -5.84917e-04        00000 
 3.62698e-05 -5.48651e-04        00000 
 5.40098e-05 -4.78941e-04        00000 
 6.13778e-05 -3.89409e-04        00000 
 5.90057e-05 -2.95357e-04        00000 
 4.99312e-05 -2.09513e-04        00000 
 3.79777e-05 -1.39540e-04        00000 
 2.63142e-05 -8.77853e-05        00000 
 1.67578e-05 -5.26828e-05        00000 
 9.83076e-06 -3.07308e-05        00000 
 5.29341e-06 -1.81698e-05        00000 
 3.32234e-06 -1.18871e-05        00000 
 5.86489e-06 -8.79938e-06        00000 
 4.53100e-07  9.13080e-07        00000 
 2.34511e-07  1.20497e-06        00000 
 3.68600e-07  1.76431e-06        00000 
 7.38898e-07  2.94929e-06        00000 
 1.44924e-06  5.23707e-06        00000 
 2.80499e-06  9.51559e-06        00000 
 5.33229e-06  1.73699e-05        00000 
 9.81359e-06  3.14290e-05        00000 
 1.72042e-05  5.56485e-05        00000 
 2.83002e-05  9.52309e-05        00000 
 4.30901e-05  1.55765e-04        00000 
 5.99332e-05  2.41260e-04        00000 
 7.50350e-05  3.51259e-04        00000 
 8.28836e-05  4.78057e-04        00000 
 7.80317e-05  6.05731e-04        00000 
 5.77647e-05  7.12519e-04        00000 
 2.42593e-05  7.76631e-04        00000 
-1.53240e-05  7.83540e-04        00000 
-5.13223e-05  7.31398e-04        00000 
-7.54649e-05  6.31829e-04        00000 
-8.40198e-05  5.05629e-04        00000 
-7.85378e-05  3.75579e-04        00000 
-6.41458e-05  2.59782e-04        00000 
-4.67592e-05  1.68164e-04        00000 
-3.08525e-05  1.02659e-04        00000 
-1.86179e-05  5.98238e-05        00000 
-1.03299e-05  3.40134e-05        00000 
-5.27070e-06  1.97583e-05        00000 
-3.05627e-06  1.28597e-05        00000 
-4.86312e-06  9.50331e-06        00000 
-3.42665e-07 -9.82408e-07        00000 
-1.79123e-07 -1.29224e-06        00000 
-2.86706e-07 -1.87817e-06        00000 
-5.91067e-07 -3.11284e-06        00000 
-1.21027e-06 -5.49244e-06        00000 
-2.47783e-06 -9.96934e-06        00000 
-5.02289e-06 -1.83256e-05        00000 
-9.88373e-06 -3.36973e-05        00000 
-1.84986e-05 -6.11347e-05        00000 
-3.23537e-05 -1.07812e-04        00000 
-5.20826e-05 -1.82204e-04        00000 
-7.60888e-05 -2.91519e-04        00000 
-9.93488e-05 -4.37314e-04        00000 
-1.13592e-04 -6.10655e-04        00000 
-1.09840e-04 -7.89621e-04        00000 
-8.28683e-05 -9.42142e-04        00000 
-3.52481e-05 -1.03487e-03        00000 
 2.20491e-05 -1.04509e-03        00000 
 7.37145e-05 -9.69823e-04        00000 
 1.06815e-04 -8.27212e-04        00000 
 1.16127e-04 -6.49302e-04        00000 
 1.05066e-04 -4.70143e-04        00000 
 8.23396e-05 -3.15320e-04        00000 
 5.71082e-05 -1.97165e-04        00000 
 3.55684e-05 -1.16087e-04        00000 
 2.01240e-05 -6.53594e-05        00000 
 1.04281e-05 -3.61209e-05        00000 
 4.97256e-06 -2.06263e-05        00000 
 2.62712e-06 -1.34008e-05        00000 
 3.67296e-06 -9.90848e-06        00000 
 2.26708e-07  1.03158e-06        00000 
 1.20062e-07  1.35326e-06        00000 
 1.96678e-07  1.95367e-06        00000 
 4.20432e-07  3.20804e-06        00000 
 9.10703e-07  5.60875e-06        00000 
 2.00554e-06  1.01252e-05        00000 
 4.41165e-06  1.86600e-05        00000 
 9.43276e-06  3.47840e-05        00000 
 1.91155e-05  6.47014e-05        00000 
 3.59788e-05  1.18007e-04        00000 
 6.18719e-05  2.07214e-04        00000 
 9.57902e-05  3.44669e-04        00000 
 1.31429e-04  5.36103e-04        00000 
 1.56521e-04  7.72340e-04        00000 
 1.56215e-04  1.02370e-03        00000 
 1.20534e-04  1.24279e-03        00000 
 5.20465e-05  1.37803e-03        00000 
-3.21965e-05  1.39332e-03        00000 
-1.07408e-04  1.28378e-03        00000 
-1.52964e-04  1.07819e-03        00000 
-1.61672e-04  8.26533e-04        00000 
-1.40708e-04  5.80054e-04        00000 
-1.04975e-04  3.74628e-04        00000 
-6.85943e-05  2.24577e-04        00000 
-3.98402e-05  1.26626e-04        00000 
-2.08174e-05  6.85273e-05        00000 
-9.88696e-06  3.67612e-05        00000 
-4.30839e-06  2.07068e-05        00000 
-2.01529e-06  1.35132e-05        00000 
-2.32625e-06  1.00323e-05        00000 
-1.07407e-07 -1.05994e-06        00000 
-5.90076e-08 -1.38773e-06        00000 
-1.01920e-07 -1.99250e-06        00000 
-2.33970e-07 -3.24240e-06        00000 
-5.60736e-07 -5.60473e-06        00000 
-1.39069e-06 -1.00112e-05        00000 
-3.45331e-06 -1.83713e-05        00000 
-8.27452e-06 -3.45214e-05        00000 
-1.85884e-05 -6.57160e-05        00000 
-3.83464e-05 -1.24291e-04        00000 
-7.14910e-05 -2.28143e-04        00000 
-1.18736e-04 -3.97567e-04        00000 
-1.72947e-04 -6.46228e-04        00000 
-2.16342e-04 -9.67276e-04        00000 
-2.24335e-04 -1.32159e-03        00000 
-1.77875e-04 -1.63892e-03        00000 
-7.82150e-05 -1.83838e-03        00000 
 4.77630e-05 -1.86161e-03        00000 
 1.58915e-04 -1.70043e-03        00000 
 2.21618e-04 -1.40127e-03        00000 
 2.26351e-04 -1.04336e-03        00000 
 1.87924e-04 -7.04456e-04        00000 
 1.32020e-04 -4.34234e-04        00000 
 8.01601e-05 -2.47195e-04        00000 
 4.26541e-05 -1.32355e-04        00000 
 2.01020e-05 -6.85196e-05        00000 
 8.46593e-06 -3.57305e-05        00000 
 3.21938e-06 -2.00113e-05        00000 
 1.22637e-06 -1.32418e-05        00000 
 8.78989e-07 -9.91566e-06        00000 
-1.32404e-08  1.06694e-06        00000 
-2.55579e-09  1.39527e-06        00000 
 5.86796e-09  1.99587e-06        00000 
 4.05514e-08  3.22361e-06        00000 
 1.79165e-07  5.50556e-06        00000 
 6.60420e-07  9.68434e-06        00000 
 2.15070e-06  1.75372e-05        00000 
 6.27454e-06  3.28859e-05        00000 
 1.64092e-05  6.36707e-05        00000 
 3.82959e-05  1.24935e-04        00000 
 7.91723e-05  2.41236e-04        00000 
 1.43542e-04  4.44610e-04        00000 
 2.25109e-04  7.62943e-04        00000 
 2.99190e-04  1.19748e-03        00000 
 3.25269e-04  1.69908e-03        00000 
 2.66779e-04  2.16353e-03        00000 
 1.19983e-04  2.46193e-03        00000 
-7.21575e-05  2.49789e-03        00000 
-2.39274e-04  2.25733e-03        00000 
-3.25102e-04  1.81682e-03        00000 
-3.18196e-04  1.30432e-03        00000 
-2.49084e-04  8.38852e-04        00000 
-1.62262e-04  4.87604e-04        00000 
-8.97124e-05  2.60299e-04        00000 
-4.25193e-05  1.31018e-04        00000 
-1.73056e-05  6.46800e-05        00000 
-5.99051e-06  3.30216e-05        00000 
-1.71325e-06  1.86609e-05        00000 
-3.00944e-07  1.26726e-05        00000 
 5.95897e-07  9.61455e-06        00000 
 1.33365e-07 -1.05224e-06        00000 
 6.34858e-08 -1.37546e-06        00000 
 8.86964e-08 -1.96392e-06        00000 
 1.51043e-07 -3.15664e-06        00000 
 2.10000e-07 -5.33540e-06        00000 
 1.33724e-07 -9.21949e-06        00000 
-5.74791e-07 -1.63197e-05        00000 
-3.42023e-06 -3.00752e-05        00000 
-1.21571e-05 -5.84116e-05        00000 
-3.44110e-05 -1.18362e-04        00000 
-8.20721e-05 -2.41770e-04        00000 
-1.66830e-04 -4.76886e-04        00000 
-2.87421e-04 -8.75775e-04        00000 
-4.12439e-04 -1.45970e-03        00000 
-4.76097e-04 -2.17287e-03        00000 
-4.07735e-04 -2.86123e-03        00000 
-1.88751e-04 -3.31563e-03        00000 
 1.11437e-04 -3.37255e-03        00000 
 3.67913e-04 -3.00720e-03        00000 
 4.83478e-04 -2.34905e-03        00000 
 4.48081e-04 -1.60941e-03        00000 
 3.25228e-04 -9.72070e-04        00000 
 1.92061e-04 -5.23769e-04        00000 
 9.36332e-05 -2.57659e-04        00000 
 3.75178e-05 -1.20477e-04        00000 
 1.18531e-05 -5.68300e-05        00000 
 2.45630e-06 -2.89403e-05        00000 
-1.04427e-07 -1.68943e-05        00000 
-6.84496e-07 -1.19156e-05        00000 
-2.02396e-06 -9.18309e-06        00000 
-2.51097e-07  1.01589e-06        00000 
-1.22967e-07  1.32807e-06        00000 
-1.80052e-07  1.89579e-06        00000 
-3.34258e-07  3.04200e-06        00000 
-5.83657e-07  5.10860e-06        00000 
-9.25412e-07  8.68723e-06        00000 
-1.13175e-06  1.49372e-05        00000 
-1.08092e-07  2.65434e-05        00000 
 5.71325e-06  5.04076e-05        00000 
 2.53295e-05  1.03808e-04        00000 
 7.62120e-05  2.24790e-04        00000 
 1.81964e-04  4.81689e-04        00000 
 3.55142e-04  9.65090e-04        00000 
 5.63083e-04  1.73950e-03        00000 
 7.02831e-04  2.75665e-03        00000 
 6.37253e-04  3.79219e-03        00000 
 3.06614e-04  4.49936e-03        00000 
-1.76920e-04  4.59189e-03        00000 
-5.80678e-04  4.02504e-03        00000 
-7.29908e-04  3.02398e-03        00000 
-6.29264e-04  1.94749e-03        00000 
-4.13032e-04  1.08133e-03        00000 
-2.13337e-04  5.26049e-04        00000 
-8.64626e-05  2.32324e-04        00000 
-2.56916e-05  9.96399e-05        00000 
-3.58840e-06  4.56848e-05        00000 
 1.85962e-06  2.41649e-05        00000 
 2.02475e-06  1.50251e-05        00000 
 1.63256e-06  1.10695e-05        00000 
 3.34864e-06  8.65263e-06        00000 
 3.64446e-07 -9.58516e-07        00000 
 1.80322e-07 -1.25348e-06        00000 
 2.67406e-07 -1.79055e-06        00000 
 5.05960e-07 -2.87620e-06        00000 
 9.26309e-07 -4.82414e-06        00000 
 1.65269e-06 -8.12584e-06        00000 
 2.78211e-06 -1.35951e-05        00000 
 3.91119e-06 -2.29318e-05        00000 
 2.48183e-06 -4.09300e-05        00000 
-1.04009e-05 -8.22583e-05        00000 
-5.70966e-05 -1.86937e-04        00000 
-1.77882e-04 -4.43453e-04        00000 
-4.14594e-04 -9.98033e-04        00000 
-7.52356e-04 -2.00019e-03        00000 
-1.04311e-03 -3.45056e-03        00000 
-1.02256e-03 -5.03584e-03        00000 
-5.19476e-04 -6.16737e-03        00000 
 2.91079e-04 -6.32259e-03        00000 
 9.47557e-04 -5.41934e-03        00000 
 1.11934e-03 -3.86225e-03        00000 
 8.73256e-04 -2.28277e-03        00000 
 4.98135e-04 -1.12498e-03        00000 
 2.11014e-04 -4.72189e-04        00000 
 6.14637e-05 -1.79045e-04        00000 
 6.03117e-06 -6.99323e-05        00000 
-6.80291e-06 -3.31702e-05        00000 
-6.35659e-06 -1.96404e-05        00000 
-3.78248e-06 -1.33327e-05        00000 
-2.45654e-06 -1.01791e-05        00000 
-4.54514e-06 -8.01807e-06        00000 
-4.71276e-07  8.81348e-07        00000 
-2.34744e-07  1.15297e-06        00000 
-3.50240e-07  1.64848e-06        00000 
-6.65858e-07  2.65488e-06        00000 
-1.23361e-06  4.46763e-06        00000 
-2.27937e-06  7.52311e-06        00000 
-4.20666e-06  1.23949e-05        00000 
-7.44930e-06  1.98543e-05        00000 
-1.12888e-05  3.19080e-05        00000 
-9.36594e-06  5.72823e-05        00000 
 2.16831e-05  1.29657e-04        00000 
 1.39570e-04  3.48220e-04        00000 
 4.36273e-04  9.26296e-04        00000 
 9.61518e-04  2.16420e-03        00000 
 1.54340e-03  4.21477e-03        00000 
 1.68991e-03  6.68990e-03        00000 
 9.30527e-04  8.56892e-03        00000 
-5.01723e-04  8.84049e-03        00000 
-1.61410e-03  7.34946e-03        00000 
-1.73959e-03  4.85644e-03        00000 
-1.17413e-03  2.52726e-03        00000 
-5.42532e-04  1.03450e-03        00000 
-1.61858e-04  3.39303e-04        00000 
-1.34721e-05  9.93572e-05        00000 
 1.98834e-05  3.68481e-05        00000 
 1.75403e-05  2.22211e-05        00000 
 1.02506e-05  1.62207e-05        00000 
 5.15940e-06  1.19174e-05        00000 
 3.11536e-06  9.21063e-06        00000 
 5.61822e-06  7.24399e-06        00000 
 5.69383e-07 -7.86078e-07        00000 
 2.85110e-07 -1.02867e-06        00000 
 4.27513e-07 -1.47190e-06        00000 
 8.14278e-07 -2.37701e-06        00000 
 1.50978e-06 -4.02205e-06        00000 
 2.80528e-06 -6.82430e-06        00000 
 5.32306e-06 -1.12720e-05        00000 
 1.02459e-05 -1.75821e-05        00000 
 1.90931e-05 -2.52359e-05        00000 
 3.06187e-05 -3.48671e-05        00000 
 2.80139e-05 -6.29834e-05        00000 
-5.35856e-05 -1.94489e-04        00000 
-3.69725e-04 -6.93594e-04        00000 
-1.12093e-03 -2.08712e-03        00000 
-2.23097e-03 -4.90514e-03        00000 
-2.87148e-03 -8.84389e-03        00000 
-1.78990e-03 -1.21327e-02        00000 