<?xml version="1.0" encoding="utf-8"?>
<VTKFile byte_order="LittleEndian" type="UnstructuredGrid" version="0.1">
   <UnstructuredGrid>
      <Piece NumberOfCells="3364" NumberOfPoints="1741">
         <Points>
            <DataArray Name="Points" NumberOfComponents="3" format="ascii" type="Float32">
0.0000 1.0000 0.0000
0.0000 1.0345 0.0000
0.0000 1.0690 0.0000
0.0000 1.1034 0.0000
0.0000 1.1379 0.0000
0.0000 1.1724 0.0000
0.0000 1.2069 0.0000
0.0000 1.2414 0.0000
0.0000 1.2759 0.0000
0.0000 1.3103 0.0000
0.0000 1.3448 0.0000
0.0000 1.3793 0.0000
0.0000 1.4138 0.0000
0.0000 1.4483 0.0000
0.0000 1.4828 0.0000
0.0000 1.5172 0.0000
0.0000 1.5517 0.0000
0.0000 1.5862 0.0000
0.0000 1.6207 0.0000
0.0000 1.6552 0.0000
0.0000 1.6897 0.0000
0.0000 1.7241 0.0000
0.0000 1.7586 0.0000
0.0000 1.7931 0.0000
0.0000 1.8276 0.0000
0.0000 1.8621 0.0000
0.0000 1.8966 0.0000
0.0000 1.9310 0.0000
0.0000 1.9655 0.0000
0.0000 2.0000 0.0000
0.0690 1.0000 0.0000
0.0690 1.0345 0.0000
0.0690 1.0690 0.0000
0.0690 1.1034 0.0000
0.0690 1.1379 0.0000
0.0690 1.1724 0.0000
0.0690 1.2069 0.0000
0.0690 1.2414 0.0000
0.0690 1.2759 0.0000
0.0690 1.3103 0.0000
0.0690 1.3448 0.0000
0.0690 1.3793 0.0000
0.0690 1.4138 0.0000
0.0690 1.4483 0.0000
0.0690 1.4828 0.0000
0.0690 1.5172 0.0000
0.0690 1.5517 0.0000
0.0690 1.5862 0.0000
0.0690 1.6207 0.0000
0.0690 1.6552 0.0000
0.0690 1.6897 0.0000
0.0690 1.7241 0.0000
0.0690 1.7586 0.0000
0.0690 1.7931 0.0000
0.0690 1.8276 0.0000
0.0690 1.8621 0.0000
0.0690 1.8966 0.0000
0.0690 1.9310 0.0000
0.0690 1.9655 0.0000
0.0690 2.0000 0.0000
0.1379 1.0000 0.0000
0.1379 1.0345 0.0000
0.1379 1.0690 0.0000
0.1379 1.1034 0.0000
0.1379 1.1379 0.0000
0.1379 1.1724 0.0000
0.1379 1.2069 0.0000
0.1379 1.2414 0.0000
0.1379 1.2759 0.0000
0.1379 1.3103 0.0000
0.1379 1.3448 0.0000
0.1379 1.3793 0.0000
0.1379 1.4138 0.0000
0.1379 1.4483 0.0000
0.1379 1.4828 0.0000
0.1379 1.5172 0.0000
0.1379 1.5517 0.0000
0.1379 1.5862 0.0000
0.1379 1.6207 0.0000
0.1379 1.6552 0.0000
0.1379 1.6897 0.0000
0.1379 1.7241 0.0000
0.1379 1.7586 0.0000
0.1379 1.7931 0.0000
0.1379 1.8276 0.0000
0.1379 1.8621 0.0000
0.1379 1.8966 0.0000
0.1379 1.9310 0.0000
0.1379 1.9655 0.0000
0.1379 2.0000 0.0000
0.2069 1.0000 0.0000
0.2069 1.0345 0.0000
0.2069 1.0690 0.0000
0.2069 1.1034 0.0000
0.2069 1.1379 0.0000
0.2069 1.1724 0.0000
0.2069 1.2069 0.0000
0.2069 1.2414 0.0000
0.2069 1.2759 0.0000
0.2069 1.3103 0.0000
0.2069 1.3448 0.0000
0.2069 1.3793 0.0000
0.2069 1.4138 0.0000
0.2069 1.4483 0.0000
0.2069 1.4828 0.0000
0.2069 1.5172 0.0000
0.2069 1.5517 0.0000
0.2069 1.5862 0.0000
0.2069 1.6207 0.0000
0.2069 1.6552 0.0000
0.2069 1.6897 0.0000
0.2069 1.7241 0.0000
0.2069 1.7586 0.0000
0.2069 1.7931 0.0000
0.2069 1.8276 0.0000
0.2069 1.8621 0.0000
0.2069 1.8966 0.0000
0.2069 1.9310 0.0000
0.2069 1.9655 0.0000
0.2069 2.0000 0.0000
0.2759 1.0000 0.0000
0.2759 1.0345 0.0000
0.2759 1.0690 0.0000
0.2759 1.1034 0.0000
0.2759 1.1379 0.0000
0.2759 1.1724 0.0000
0.2759 1.2069 0.0000
0.2759 1.2414 0.0000
0.2759 1.2759 0.0000
0.2759 1.3103 0.0000
0.2759 1.3448 0.0000
0.2759 1.3793 0.0000
0.2759 1.4138 0.0000
0.2759 1.4483 0.0000
0.2759 1.4828 0.0000
0.2759 1.5172 0.0000
0.2759 1.5517 0.0000
0.2759 1.5862 0.0000
0.2759 1.6207 0.0000
0.2759 1.6552 0.0000
0.2759 1.6897 0.0000
0.2759 1.7241 0.0000
0.2759 1.7586 0.0000
0.2759 1.7931 0.0000
0.2759 1.8276 0.0000
0.2759 1.8621 0.0000
0.2759 1.8966 0.0000
0.2759 1.9310 0.0000
0.2759 1.9655 0.0000
0.2759 2.0000 0.0000
0.3448 1.0000 0.0000
0.3448 1.0345 0.0000
0.3448 1.0690 0.0000
0.3448 1.1034 0.0000
0.3448 1.1379 0.0000
0.3448 1.1724 0.0000
0.3448 1.2069 0.0000
0.3448 1.2414 0.0000
0.3448 1.2759 0.0000
0.3448 1.3103 0.0000
0.3448 1.3448 0.0000
0.3448 1.3793 0.0000
0.3448 1.4138 0.0000
0.3448 1.4483 0.0000
0.3448 1.4828 0.0000
0.3448 1.5172 0.0000
0.3448 1.5517 0.0000
0.3448 1.5862 0.0000
0.3448 1.6207 0.0000
0.3448 1.6552 0.0000
0.3448 1.6897 0.0000
0.3448 1.7241 0.0000
0.3448 1.7586 0.0000
0.3448 1.7931 0.0000
0.3448 1.8276 0.0000
0.3448 1.8621 0.0000
0.3448 1.8966 0.0000
0.3448 1.9310 0.0000
0.3448 1.9655 0.0000
0.3448 2.0000 0.0000
0.4138 1.0000 0.0000
0.4138 1.0345 0.0000
0.4138 1.0690 0.0000
0.4138 1.1034 0.0000
0.4138 1.1379 0.0000
0.4138 1.1724 0.0000
0.4138 1.2069 0.0000
0.4138 1.2414 0.0000
0.4138 1.2759 0.0000
0.4138 1.3103 0.0000
0.4138 1.3448 0.0000
0.4138 1.3793 0.0000
0.4138 1.4138 0.0000
0.4138 1.4483 0.0000
0.4138 1.4828 0.0000
0.4138 1.5172 0.0000
0.4138 1.5517 0.0000
0.4138 1.5862 0.0000
0.4138 1.6207 0.0000
0.4138 1.6552 0.0000
0.4138 1.6897 0.0000
0.4138 1.7241 0.0000
0.4138 1.7586 0.0000
0.4138 1.7931 0.0000
0.4138 1.8276 0.0000
0.4138 1.8621 0.0000
0.4138 1.8966 0.0000
0.4138 1.9310 0.0000
0.4138 1.9655 0.0000
0.4138 2.0000 0.0000
0.4828 1.0000 0.0000
0.4828 1.0345 0.0000
0.4828 1.0690 0.0000
0.4828 1.1034 0.0000
0.4828 1.1379 0.0000
0.4828 1.1724 0.0000
0.4828 1.2069 0.0000
0.4828 1.2414 0.0000
0.4828 1.2759 0.0000
0.4828 1.3103 0.0000
0.4828 1.3448 0.0000
0.4828 1.3793 0.0000
0.4828 1.4138 0.0000
0.4828 1.4483 0.0000
0.4828 1.4828 0.0000
0.4828 1.5172 0.0000
0.4828 1.5517 0.0000
0.4828 1.5862 0.0000
0.4828 1.6207 0.0000
0.4828 1.6552 0.0000
0.4828 1.6897 0.0000
0.4828 1.7241 0.0000
0.4828 1.7586 0.0000
0.4828 1.7931 0.0000
0.4828 1.8276 0.0000
0.4828 1.8621 0.0000
0.4828 1.8966 0.0000
0.4828 1.9310 0.0000
0.4828 1.9655 0.0000
0.4828 2.0000 0.0000
0.5517 1.0000 0.0000
0.5517 1.0345 0.0000
0.5517 1.0690 0.0000
0.5517 1.1034 0.0000
0.5517 1.1379 0.0000
0.5517 1.1724 0.0000
0.5517 1.2069 0.0000
0.5517 1.2414 0.0000
0.5517 1.2759 0.0000
0.5517 1.3103 0.0000
0.5517 1.3448 0.0000
0.5517 1.3793 0.0000
0.5517 1.4138 0.0000
0.5517 1.4483 0.0000
0.5517 1.4828 0.0000
0.5517 1.5172 0.0000
0.5517 1.5517 0.0000
0.5517 1.5862 0.0000
0.5517 1.6207 0.0000
0.5517 1.6552 0.0000
0.5517 1.6897 0.0000
0.5517 1.7241 0.0000
0.5517 1.7586 0.0000
0.5517 1.7931 0.0000
0.5517 1.8276 0.0000
0.5517 1.8621 0.0000
0.5517 1.8966 0.0000
0.5517 1.9310 0.0000
0.5517 1.9655 0.0000
0.5517 2.0000 0.0000
0.6207 1.0000 0.0000
0.6207 1.0345 0.0000
0.6207 1.0690 0.0000
0.6207 1.1034 0.0000
0.6207 1.1379 0.0000
0.6207 1.1724 0.0000
0.6207 1.2069 0.0000
0.6207 1.2414 0.0000
0.6207 1.2759 0.0000
0.6207 1.3103 0.0000
0.6207 1.3448 0.0000
0.6207 1.3793 0.0000
0.6207 1.4138 0.0000
0.6207 1.4483 0.0000
0.6207 1.4828 0.0000
0.6207 1.5172 0.0000
0.6207 1.5517 0.0000
0.6207 1.5862 0.0000
0.6207 1.6207 0.0000
0.6207 1.6552 0.0000
0.6207 1.6897 0.0000
0.6207 1.7241 0.0000
0.6207 1.7586 0.0000
0.6207 1.7931 0.0000
0.6207 1.8276 0.0000
0.6207 1.8621 0.0000
0.6207 1.8966 0.0000
0.6207 1.9310 0.0000
0.6207 1.9655 0.0000
0.6207 2.0000 0.0000
0.6897 1.0000 0.0000
0.6897 1.0345 0.0000
0.6897 1.0690 0.0000
0.6897 1.1034 0.0000
0.6897 1.1379 0.0000
0.6897 1.1724 0.0000
0.6897 1.2069 0.0000
0.6897 1.2414 0.0000
0.6897 1.2759 0.0000
0.6897 1.3103 0.0000
0.6897 1.3448 0.0000
0.6897 1.3793 0.0000
0.6897 1.4138 0.0000
0.6897 1.4483 0.0000
0.6897 1.4828 0.0000
0.6897 1.5172 0.0000
0.6897 1.5517 0.0000
0.6897 1.5862 0.0000
0.6897 1.6207 0.0000
0.6897 1.6552 0.0000
0.6897 1.6897 0.0000
0.6897 1.7241 0.0000
0.6897 1.7586 0.0000
0.6897 1.7931 0.0000
0.6897 1.8276 0.0000
0.6897 1.8621 0.0000
0.6897 1.8966 0.0000
0.6897 1.9310 0.0000
0.6897 1.9655 0.0000
0.6897 2.0000 0.0000
0.7586 1.0000 0.0000
0.7586 1.0345 0.0000
0.7586 1.0690 0.0000
0.7586 1.1034 0.0000
0.7586 1.1379 0.0000
0.7586 1.1724 0.0000
0.7586 1.2069 0.0000
0.7586 1.2414 0.0000
0.7586 1.2759 0.0000
0.7586 1.3103 0.0000
0.7586 1.3448 0.0000
0.7586 1.3793 0.0000
0.7586 1.4138 0.0000
0.7586 1.4483 0.0000
0.7586 1.4828 0.0000
0.7586 1.5172 0.0000
0.7586 1.5517 0.0000
0.7586 1.5862 0.0000
0.7586 1.6207 0.0000
0.7586 1.6552 0.0000
0.7586 1.6897 0.0000
0.7586 1.7241 0.0000
0.7586 1.7586 0.0000
0.7586 1.7931 0.0000
0.7586 1.8276 0.0000
0.7586 1.8621 0.0000
0.7586 1.8966 0.0000
0.7586 1.9310 0.0000
0.7586 1.9655 0.0000
0.7586 2.0000 0.0000
0.8276 1.0000 0.0000
0.8276 1.0345 0.0000
0.8276 1.0690 0.0000
0.8276 1.1034 0.0000
0.8276 1.1379 0.0000
0.8276 1.1724 0.0000
0.8276 1.2069 0.0000
0.8276 1.2414 0.0000
0.8276 1.2759 0.0000
0.8276 1.3103 0.0000
0.8276 1.3448 0.0000
0.8276 1.3793 0.0000
0.8276 1.4138 0.0000
0.8276 1.4483 0.0000
0.8276 1.4828 0.0000
0.8276 1.5172 0.0000
0.8276 1.5517 0.0000
0.8276 1.5862 0.0000
0.8276 1.6207 0.0000
0.8276 1.6552 0.0000
0.8276 1.6897 0.0000
0.8276 1.7241 0.0000
0.8276 1.7586 0.0000
0.8276 1.7931 0.0000
0.8276 1.8276 0.0000
0.8276 1.8621 0.0000
0.8276 1.8966 0.0000
0.8276 1.9310 0.0000
0.8276 1.9655 0.0000
0.8276 2.0000 0.0000
0.8966 1.0000 0.0000
0.8966 1.0345 0.0000
0.8966 1.0690 0.0000
0.8966 1.1034 0.0000
0.8966 1.1379 0.0000
0.8966 1.1724 0.0000
0.8966 1.2069 0.0000
0.8966 1.2414 0.0000
0.8966 1.2759 0.0000
0.8966 1.3103 0.0000
0.8966 1.3448 0.0000
0.8966 1.3793 0.0000
0.8966 1.4138 0.0000
0.8966 1.4483 0.0000
0.8966 1.4828 0.0000
0.8966 1.5172 0.0000
0.8966 1.5517 0.0000
0.8966 1.5862 0.0000
0.8966 1.6207 0.0000
0.8966 1.6552 0.0000
0.8966 1.6897 0.0000
0.8966 1.7241 0.0000
0.8966 1.7586 0.0000
0.8966 1.7931 0.0000
0.8966 1.8276 0.0000
0.8966 1.8621 0.0000
0.8966 1.8966 0.0000
0.8966 1.9310 0.0000
0.8966 1.9655 0.0000
0.8966 2.0000 0.0000
0.9655 1.0000 0.0000
0.9655 1.0345 0.0000
0.9655 1.0690 0.0000
0.9655 1.1034 0.0000
0.9655 1.1379 0.0000
0.9655 1.1724 0.0000
0.9655 1.2069 0.0000
0.9655 1.2414 0.0000
0.9655 1.2759 0.0000
0.9655 1.3103 0.0000
0.9655 1.3448 0.0000
0.9655 1.3793 0.0000
0.9655 1.4138 0.0000
0.9655 1.4483 0.0000
0.9655 1.4828 0.0000
0.9655 1.5172 0.0000
0.9655 1.5517 0.0000
0.9655 1.5862 0.0000
0.9655 1.6207 0.0000
0.9655 1.6552 0.0000
0.9655 1.6897 0.0000
0.9655 1.7241 0.0000
0.9655 1.7586 0.0000
0.9655 1.7931 0.0000
0.9655 1.8276 0.0000
0.9655 1.8621 0.0000
0.9655 1.8966 0.0000
0.9655 1.9310 0.0000
0.9655 1.9655 0.0000
0.9655 2.0000 0.0000
1.0345 1.0000 0.0000
1.0345 1.0345 0.0000
1.0345 1.0690 0.0000
1.0345 1.1034 0.0000
1.0345 1.1379 0.0000
1.0345 1.1724 0.0000
1.0345 1.2069 0.0000
1.0345 1.2414 0.0000
1.0345 1.2759 0.0000
1.0345 1.3103 0.0000
1.0345 1.3448 0.0000
[...]
         <PointData>
            <DataArray Name="fValues" NumberOfComponents="3" format="ascii" type="Float64">
 1.03797e-25  1.36601e-25        00000 
 4.38645e-26  2.74153e-26        00000 
 2.16883e-26  3.14480e-25        00000 
 3.10647e-25  9.18316e-25        00000 
-4.77142e-25  1.73506e-24        00000 
 1.04990e-24 -1.38954e-24        00000 
 2.16883e-25 -2.60259e-25        00000 
-2.28898e-25  3.35989e-24        00000 
-6.94025e-25  3.47012e-25        00000 
 6.75739e-24  2.17418e-25        00000 
 2.29028e-23  1.63096e-23        00000 
-4.53435e-24  4.69131e-23        00000 
 2.77610e-23  5.55220e-23        00000 
-3.27983e-23 -2.20396e-22        00000 
 1.22148e-22  5.85757e-22        00000 
-8.37112e-24  7.77991e-22        00000 
 4.44176e-22  6.88473e-22        00000 
 3.50057e-23  3.89613e-22        00000 
 7.10681e-22  2.57622e-21        00000 
 3.46006e-22 -3.50471e-21        00000 
 1.77670e-22 -3.55341e-22        00000 
 1.27339e-21  3.15560e-21        00000 
 1.06602e-21  1.13709e-20        00000 
 1.11615e-21 -7.16568e-21        00000 
 1.06602e-21  4.26409e-21        00000 
 4.35615e-21  4.70007e-20        00000 
-1.42136e-21  1.63457e-20        00000 
 1.81153e-21  3.95854e-20        00000 
 3.58389e-21  6.80938e-21        00000 
 6.62517e-21 -2.80264e-20        00000 
 1.08000e-09  1.96027e-10        00000 
 3.74033e-10  2.15994e-10        00000 
 7.72313e-10  4.84193e-10        00000 
 1.47118e-09  8.21668e-10        00000 
 2.67706e-09  1.41209e-09        00000 
 4.78806e-09  2.47504e-09        00000 
 8.51918e-09  4.36888e-09        00000 
 1.51383e-08  7.72972e-09        00000 
 2.69001e-08  1.36946e-08        00000 
 4.78090e-08  2.43101e-08        00000 
 8.49390e-08  4.32973e-08        00000 
 1.50643e-07  7.74955e-08        00000 
 2.66080e-07  1.39561e-07        00000 
 4.66449e-07  2.52872e-07        00000 
 8.07930e-07  4.59993e-07        00000 
 1.37531e-06  8.36243e-07        00000 
 2.28727e-06  1.50924e-06        00000 
 3.69356e-06  2.68304e-06        00000 
 5.75558e-06  4.66071e-06        00000 
 8.60171e-06  7.85262e-06        00000 
 1.22545e-05  1.27511e-05        00000 
 1.65392e-05  1.98517e-05        00000 
 2.10042e-05  2.95122e-05        00000 
 2.48982e-05  4.17694e-05        00000 
 2.72602e-05  5.61660e-05        00000 
 2.71608e-05  7.16079e-05        00000 
 2.42283e-05  8.58227e-05        00000 
 1.75641e-05  9.17562e-05        00000 
 1.62208e-06  7.09872e-05        00000 
-2.08123e-04  7.48159e-05        00000 
-1.19072e-09 -4.33210e-10        00000 
-5.57156e-10 -5.49944e-10        00000 
-8.73425e-10 -8.60440e-10        00000 
-1.68778e-09 -1.44422e-09        00000 
-3.07864e-09 -2.49134e-09        00000 
-5.50842e-09 -4.36916e-09        00000 
-9.79935e-09 -7.71081e-09        00000 
-1.74071e-08 -1.36374e-08        00000 
-3.09167e-08 -2.41496e-08        00000 
-5.49175e-08 -4.28477e-08        00000 
-9.75283e-08 -7.62913e-08        00000 
-1.72988e-07 -1.36601e-07        00000 
-3.05888e-07 -2.46424e-07        00000 
-5.37678e-07 -4.48192e-07        00000 
-9.35765e-07 -8.20596e-07        00000 
-1.60443e-06 -1.50591e-06        00000 
-2.69436e-06 -2.75099e-06        00000 
-4.40359e-06 -4.96055e-06        00000 
-6.95827e-06 -8.75166e-06        00000 
-1.05593e-05 -1.49832e-05        00000 
-1.52860e-05 -2.47175e-05        00000 
-2.09653e-05 -3.90665e-05        00000 
-2.70444e-05 -5.88921e-05        00000 
-3.25393e-05 -8.43859e-05        00000 
-3.61589e-05 -1.14606e-04        00000 
-3.67413e-05 -1.46969e-04        00000 
-3.38183e-05 -1.76236e-04        00000 
-2.68454e-05 -1.92114e-04        00000 
 2.49422e-05 -1.84938e-04        00000 
 2.57909e-04 -1.75017e-04        00000 
 1.15586e-09  6.47326e-10        00000 
 5.67246e-10  8.49326e-10        00000 
 8.59360e-10  1.25238e-09        00000 
 1.64251e-09  2.06988e-09        00000 
 3.00073e-09  3.57445e-09        00000 
 5.37044e-09  6.27330e-09        00000 
 9.55152e-09  1.10739e-08        00000 
 1.69577e-08  1.95873e-08        00000 
 3.00943e-08  3.46848e-08        00000 
 5.34059e-08  6.15201e-08        00000 
 9.47680e-08  1.09451e-07        00000 
 1.68079e-07  1.95704e-07        00000 
 2.97651e-07  3.52401e-07        00000 
 5.25327e-07  6.39795e-07        00000 
 9.21222e-07  1.17030e-06        00000 
 1.59815e-06  2.14940e-06        00000 
 2.72729e-06  3.93935e-06        00000 
 4.54768e-06  7.14598e-06        00000 
 7.35487e-06  1.27149e-05        00000 
 1.14478e-05  2.19976e-05        00000 
 1.70144e-05  3.67181e-05        00000 
 2.39559e-05  5.87519e-05        00000 
 3.16918e-05  8.96494e-05        00000 
 3.90478e-05  1.29913e-04        00000 
 4.43843e-05  1.78135e-04        00000 
 4.61012e-05  2.30099e-04        00000 
 4.33228e-05  2.77781e-04        00000 
 3.20126e-05  3.08617e-04        00000 
-3.42935e-05  3.06442e-04        00000 
-3.06741e-04  2.83994e-04        00000 
-1.06977e-09 -8.50025e-10        00000 
-5.33039e-10 -1.11878e-09        00000 
-8.01503e-10 -1.62668e-09        00000 
-1.52460e-09 -2.67152e-09        00000 
-2.78375e-09 -4.61103e-09        00000 
-4.98214e-09 -8.09562e-09        00000 
-8.85782e-09 -1.42950e-08        00000 
-1.57152e-08 -2.52913e-08        00000 
-2.78604e-08 -4.47918e-08        00000 
-4.93781e-08 -7.94320e-08        00000 
-8.75153e-08 -1.41199e-07        00000 
-1.55151e-07 -2.52017e-07        00000 
-2.75164e-07 -4.52509e-07        00000 
-4.87989e-07 -8.18635e-07        00000 
-8.64012e-07 -1.49245e-06        00000 
-1.52225e-06 -2.73609e-06        00000 
-2.65451e-06 -5.01934e-06        00000 
-4.54832e-06 -9.14611e-06        00000 
-7.59118e-06 -1.64069e-05        00000 
-1.22256e-05 -2.87075e-05        00000 
-1.88178e-05 -4.85728e-05        00000 
-2.74224e-05 -7.88799e-05        00000 
-3.74806e-05 -1.22186e-04        00000 
-4.75899e-05 -1.79616e-04        00000 
-5.55667e-05 -2.49473e-04        00000 
-5.90103e-05 -3.25859e-04        00000 
-5.59254e-05 -3.97565e-04        00000 
-4.08873e-05 -4.46697e-04        00000 
 4.18149e-05 -4.47730e-04        00000 
 3.73420e-04 -4.14353e-04        00000 
 9.57576e-10  1.03430e-09        00000 
 4.80008e-10  1.36003e-09        00000 
 7.20988e-10  1.96851e-09        00000 
 1.36822e-09  3.22401e-09        00000 
 2.49638e-09  5.56161e-09        00000 
 4.46654e-09  9.76609e-09        00000 
 7.93750e-09  1.72494e-08        00000 
 1.40712e-08  3.05276e-08        00000 
 2.49167e-08  5.40779e-08        00000 
 4.40945e-08  9.58917e-08        00000 
 7.80315e-08  1.70328e-07        00000 
 1.38222e-07  3.03441e-07        00000 
 2.45427e-07  5.43087e-07        00000 
 4.37430e-07  9.78186e-07        00000 
 7.82949e-07  1.77496e-06        00000 
 1.40495e-06  3.24270e-06        00000 
 2.51537e-06  5.94560e-06        00000 
 4.45704e-06  1.08750e-05        00000 
 7.73396e-06  1.96770e-05        00000 
 1.29879e-05  3.48810e-05        00000 
 2.08588e-05  5.99935e-05        00000 
 3.16746e-05  9.92336e-05        00000 
 4.49902e-05  1.56660e-04        00000 
 5.91424e-05  2.34566e-04        00000 
 7.11563e-05  3.31334e-04        00000 
 7.73502e-05  4.39267e-04        00000 
 7.43420e-05  5.42774e-04        00000 
 5.48969e-05  6.16051e-04        00000 
-5.03491e-05  6.21429e-04        00000 
-4.67407e-04  5.76244e-04        00000 
-8.25982e-10 -1.19594e-09        00000 
-4.15269e-10 -1.57103e-09        00000 
-6.23785e-10 -2.26957e-09        00000 
-1.18228e-09 -3.71212e-09        00000 
-2.15568e-09 -6.40129e-09        00000 
-3.85524e-09 -1.12415e-08        00000 
-6.84722e-09 -1.98599e-08        00000 
-1.21279e-08 -3.51579e-08        00000 
-2.14492e-08 -6.22959e-08        00000 
-3.78982e-08 -1.10464e-07        00000 
-6.69502e-08 -1.96088e-07        00000 
-1.18447e-07 -3.48729e-07        00000 
-2.10439e-07 -6.22118e-07        00000 
-3.76792e-07 -1.11514e-06        00000 
-6.82055e-07 -2.01187e-06        00000 
-1.24907e-06 -3.65672e-06        00000 
-2.30543e-06 -6.68899e-06        00000 
-4.25003e-06 -1.22651e-05        00000 
-7.72293e-06 -2.23810e-05        00000 
-1.36264e-05 -4.02495e-05        00000 
-2.29992e-05 -7.05667e-05        00000 
-3.66292e-05 -1.19342e-04        00000 
-5.43668e-05 -1.92858e-04        00000 
-7.43257e-05 -2.95456e-04        00000 
-9.24692e-05 -4.26269e-04        00000 
-1.03244e-04 -5.75685e-04        00000 
-1.01139e-04 -7.22212e-04        00000 
-7.60500e-05 -8.28946e-04        00000 
 6.07834e-05 -8.41749e-04        00000 
 5.97544e-04 -7.82789e-04        00000 
 6.78268e-10  1.33195e-09        00000 
 3.41540e-10  1.74858e-09        00000 
 5.13079e-10  2.52371e-09        00000 
 9.71670e-10  4.12488e-09        00000 
 1.77051e-09  7.11150e-09        00000 
 3.16451e-09  1.24894e-08        00000 
 5.61635e-09  2.20686e-08        00000 
 9.93827e-09  3.90773e-08        00000 
 1.75547e-08  6.92564e-08        00000 
 3.09686e-08  1.22811e-07        00000 
 5.46118e-08  2.17904e-07        00000 
 9.64720e-08  3.86967e-07        00000 
 1.71388e-07  6.88288e-07        00000 
 3.08019e-07  1.22781e-06        00000 
 5.63712e-07  2.20098e-06        00000 
 1.05503e-06  3.97362e-06        00000 
 2.01546e-06  7.23453e-06        00000 
 3.89061e-06  1.32670e-05        00000 
 7.46359e-06  2.43826e-05        00000 
 1.39545e-05  4.45035e-05        00000 
 2.49553e-05  7.97185e-05        00000 
 4.19904e-05  1.38373e-04        00000 
 6.55419e-05  2.29983e-04        00000 
 9.36913e-05  3.62295e-04        00000 
 1.21095e-04  5.36412e-04        00000 
 1.39468e-04  7.40953e-04        00000 
 1.39853e-04  9.46648e-04        00000 
 1.07509e-04  1.10100e-03        00000 
-7.32979e-05  1.12668e-03        00000 
-7.75490e-04  1.05143e-03        00000 
-5.17334e-10 -1.43989e-09        00000 
-2.60683e-10 -1.88960e-09        00000 
-3.91549e-10 -2.72589e-09        00000 
-7.40983e-10 -4.45363e-09        00000 
-1.34913e-09 -7.67736e-09        00000 
-2.40931e-09 -1.34838e-08        00000 
-4.27170e-09 -2.38286e-08        00000 
-7.54989e-09 -4.22008e-08        00000 
-1.33178e-08 -7.48037e-08        00000 
-2.34584e-08 -1.32652e-07        00000 
-4.12998e-08 -2.35289e-07        00000 
-7.28445e-08 -4.17385e-07        00000 
-1.29350e-07 -7.40594e-07        00000 
-2.33147e-07 -1.31538e-06        00000 
-4.31211e-07 -2.34265e-06        00000 
-8.26130e-07 -4.19566e-06        00000 
-1.64193e-06 -7.58250e-06        00000 
-3.34824e-06 -1.38578e-05        00000 
-6.85552e-06 -2.55731e-05        00000 
-1.37376e-05 -4.73176e-05        00000 
-2.63091e-05 -8.67172e-05        00000 
-4.72153e-05 -1.55050e-04        00000 
-7.81440e-05 -2.66393e-04        00000 
-1.17637e-04 -4.33966e-04        00000 
-1.58927e-04 -6.62988e-04        00000 
-1.89813e-04 -9.41146e-04        00000 
-1.95704e-04 -1.22915e-03        00000 
-1.54300e-04 -1.45242e-03        00000 
 8.75655e-05 -1.50013e-03        00000 
 1.01761e-03 -1.40582e-03        00000 
 3.46272e-10  1.51783e-09        00000 
 1.74458e-10  1.99148e-09        00000 
 2.61865e-10  2.87213e-09        00000 
 4.95096e-10  4.69163e-09        00000 
 9.00349e-10  8.08718e-09        00000 
 1.60547e-09  1.42040e-08        00000 
 2.84150e-09  2.51031e-08        00000 
 5.01247e-09  4.44613e-08        00000 
 8.82479e-09  7.88147e-08        00000 
 1.55168e-08  1.39761e-07        00000 
 2.72769e-08  2.47838e-07        00000 
 4.80577e-08  4.39321e-07        00000 
 8.53331e-08  7.78165e-07        00000 
 1.54332e-07  1.37735e-06        00000 
 2.88941e-07  2.43857e-06        00000 
 5.69718e-07  4.33036e-06        00000 
 1.19160e-06  7.74887e-06        00000 
 2.61063e-06  1.40502e-05        00000 
 5.81520e-06  2.59006e-05        00000 
 1.27196e-05  4.84081e-05        00000 
 2.65068e-05  9.07321e-05        00000 
 5.14279e-05  1.67618e-04        00000 
 9.12868e-05  2.99334e-04        00000 
 1.46121e-04  5.07589e-04        00000 
 2.08036e-04  8.05440e-04        00000 
 2.59406e-04  1.18189e-03        00000 
 2.76490e-04  1.58531e-03        00000 
 2.24424e-04  1.90959e-03        00000 
-1.02402e-04  1.99457e-03        00000 
-1.34717e-03  1.87872e-03        00000 
-1.68414e-10 -1.56432e-09        00000 
-8.46664e-11 -2.05229e-09        00000 
-1.26783e-10 -2.95952e-09        00000 
-2.39150e-10 -4.83400e-09        00000 
-4.33502e-10 -8.33249e-09        00000 
-7.69767e-10 -1.46352e-08        00000 
-1.35559e-09 -2.58657e-08        00000 
-2.37833e-09 -4.58112e-08        00000 
-4.16556e-09 -8.12025e-08        00000 
-7.29439e-09 -1.43976e-07        00000 
-1.27946e-08 -2.55251e-07        00000 
-2.25518e-08 -4.52243e-07        00000 
-4.02147e-08 -8.00206e-07        00000 
-7.35991e-08 -1.41311e-06        00000 
-1.41806e-07 -2.49047e-06        00000 
-2.96639e-07 -4.38766e-06        00000 
-6.83257e-07 -7.76233e-06        00000 
-1.69404e-06 -1.38973e-05        00000 
-4.30452e-06 -2.54037e-05        00000 
-1.06710e-05 -4.76204e-05        00000 
-2.48922e-05 -9.09702e-05        00000 
-5.33417e-05 -1.73925e-04        00000 
-1.03261e-04 -3.24693e-04        00000 
-1.78137e-04 -5.77660e-04        00000 
-2.70243e-04 -9.59936e-04        00000 
-3.54994e-04 -1.46693e-03        00000 
-3.93917e-04 -2.03302e-03        00000 
-3.30785e-04 -2.50710e-03        00000 
 1.14875e-04 -2.65489e-03        00000 
 1.79761e-03 -2.51630e-03        00000 
-1.27398e-11  1.57852e-09        00000 
-6.83981e-12  2.07087e-09        00000 
-1.08703e-11  2.98631e-09        00000 
-2.15402e-11  4.87779e-09        00000 
-4.17318e-11  8.40816e-09        00000 
-8.04372e-11  1.47683e-08        00000 
-1.55176e-10  2.61004e-08        00000 
-2.98345e-10  4.62229e-08        00000 
-5.66807e-10  8.19181e-08        00000 
-1.05359e-09  1.45208e-07        00000 
-1.89706e-09  2.57353e-07        00000 
-3.27154e-09  4.55797e-07        00000 
-5.28659e-09  8.06058e-07        00000 
-7.41658e-09  1.42181e-06        00000 
-5.70024e-09  2.49890e-06        00000 
 1.92016e-08  4.37608e-06        00000 
 1.45770e-07  7.65670e-06        00000 
 6.48680e-07  1.34874e-05        00000 
 2.36154e-06  2.42334e-05        00000 
 7.46627e-06  4.50343e-05        00000 
 2.08124e-05  8.69154e-05        00000 
 5.12598e-05  1.71703e-04        00000 
 1.11169e-04  3.36948e-04        00000 
 2.10832e-04  6.35021e-04        00000 
 3.46124e-04  1.11702e-03        00000 
 4.84911e-04  1.79527e-03        00000 
 5.65559e-04  2.59130e-03        00000 
 4.94627e-04  3.29016e-03        00000 
-1.18401e-04  3.54401e-03        00000 
-2.41761e-03  3.38496e-03        00000 
 1.93605e-10 -1.56015e-09        00000 
 9.81823e-11 -2.04687e-09        00000 
 1.48235e-10 -2.95194e-09        00000 
 2.81587e-10 -4.82204e-09        00000 
 5.15557e-10 -8.31249e-09        00000 
 9.27618e-10 -1.46004e-08        00000 
 1.65967e-09 -2.58024e-08        00000 
 2.96275e-09 -4.56888e-08        00000 
 5.27722e-09 -8.09510e-08        00000 
 9.36680e-09 -1.43441e-07        00000 
 1.65396e-08 -2.54111e-07        00000 
 2.90164e-08 -4.49870e-07        00000 
 5.05632e-08 -7.95342e-07        00000 
 8.75580e-08 -1.40252e-06        00000 
 1.50316e-07 -2.46279e-06        00000 
 2.51734e-07 -4.29913e-06        00000 
 3.88030e-07 -7.45943e-06        00000 
 4.45870e-07 -1.29223e-05        00000 
-1.21291e-07 -2.26448e-05        00000 
-3.18195e-06 -4.10529e-05        00000 
-1.38305e-05 -7.86598e-05        00000 
-4.32740e-05 -1.59191e-04        00000 
-1.10652e-04 -3.29608e-04        00000 
-2.38177e-04 -6.65925e-04        00000 
-4.32886e-04 -1.25814e-03        00000 
-6.58118e-04 -2.15584e-03        00000 
-8.17578e-04 -3.27678e-03        00000 
-7.51779e-04 -4.31723e-03        00000 
 9.86039e-05 -4.75165e-03        00000 
 3.27926e-03 -4.58234e-03        00000 
-3.70601e-10  1.50957e-09        00000 
-1.87489e-10  1.98073e-09        00000 
-2.82465e-10  2.85708e-09        00000 
-5.35640e-10  4.66782e-09        00000 
-9.78275e-10  8.04729e-09        00000 
-1.75448e-09  1.41347e-08        00000 
-3.12723e-09  2.49776e-08        00000 
-5.56077e-09  4.42209e-08        00000 
-9.87084e-09  7.83267e-08        00000 
-1.74815e-08  1.38730e-07        00000 
-3.08602e-08  2.45629e-07        00000 
-5.42580e-08  4.34621e-07        00000 
-9.50150e-08  7.68143e-07        00000 
-1.65996e-07  1.35474e-06        00000 
-2.90286e-07  2.38004e-06        00000 
-5.09364e-07  4.15393e-06        00000 
-8.90533e-07  7.18055e-06        00000 
-1.49914e-06  1.22829e-05        00000 
-2.19312e-06  2.09381e-05        00000 
-1.82162e-06  3.64068e-05        00000 
 4.04384e-06  6.72414e-05        00000 
 2.78253e-05  1.36146e-04        00000 
 9.60600e-05  2.96644e-04        00000 
 2.49344e-04  6.51976e-04        00000 
 5.20289e-04  1.35098e-03        00000 
 8.80650e-04  2.51786e-03        00000 
 1.18785e-03  4.09516e-03        00000 
 1.16427e-03  5.66181e-03        00000 
-2.38885e-05  6.40816e-03        00000 
-4.49145e-03  6.25584e-03        00000 
 5.40237e-10 -1.42774e-09        00000 
 2.72926e-10 -1.87374e-09        00000 
 4.10774e-10 -2.70358e-09        00000 
 7.78490e-10 -4.41819e-09        00000 
 1.42048e-09 -7.61785e-09        00000 
 2.54430e-09 -1.33806e-08        00000 
 4.52832e-09 -2.36430e-08        00000 
 8.04029e-09 -4.18504e-08        00000 
 1.42556e-08 -7.41045e-08        00000 
 2.52352e-08 -1.31190e-07        00000 
 4.45759e-08 -2.32137e-07        00000 
 7.85263e-08 -4.10473e-07        00000 
 1.37943e-07 -7.25099e-07        00000 
 2.41895e-07 -1.27889e-06        00000 
 4.24845e-07 -2.24916e-06        00000 
 7.51706e-07 -3.93343e-06        00000 
 1.34757e-06 -6.80830e-06        00000 
 2.43890e-06 -1.15924e-05        00000 
 4.32601e-06 -1.93491e-05        00000 
 6.90756e-06 -3.19926e-05        00000 
 7.59508e-06 -5.47686e-05        00000 
-4.74032e-06 -1.05115e-04        00000 
-6.17809e-05 -2.35497e-04        00000 
-2.27671e-04 -5.72661e-04        00000 
-5.83772e-04 -1.34496e-03        00000 
-1.14579e-03 -2.81411e-03        00000 
-1.72694e-03 -5.02107e-03        00000 
-1.84213e-03 -7.41028e-03        00000 
-1.77376e-04 -8.70786e-03        00000 
 6.22139e-03 -8.63505e-03        00000 
-6.99195e-10  1.31617e-09        00000 
-3.52721e-10  1.72792e-09        00000 
-5.30474e-10  2.49447e-09        00000 
-1.00515e-09  4.07818e-09        00000 
-1.83322e-09  7.03286e-09        00000 
-3.28124e-09  1.23532e-08        00000 
-5.83501e-09  2.18258e-08        00000 
-1.03521e-08  3.86266e-08        00000 
-1.83442e-08  6.83752e-08        00000 
-3.24719e-08  1.20992e-07        00000 
-5.74051e-08  2.13962e-07        00000 
-1.01318e-07  3.78057e-07        00000 
-1.78506e-07  6.67360e-07        00000 
-3.14096e-07  1.17668e-06        00000 
-5.53127e-07  2.07101e-06        00000 
-9.79725e-07  3.63173e-06        00000 
-1.76038e-06  6.31679e-06        00000 
-3.23753e-06  1.08028e-05        00000 
-6.08442e-06  1.79263e-05        00000 
-1.13323e-05  2.85144e-05        00000 
-1.92209e-05  4.39906e-05        00000 
-2.34867e-05  7.22654e-05        00000 
 5.59250e-06  1.51805e-04        00000 
 1.52847e-04  4.13578e-04        00000 
 5.75590e-04  1.17131e-03        00000 
 1.41077e-03  2.91482e-03        00000 
 2.48721e-03  5.95250e-03        00000 
 2.98254e-03  9.64473e-03        00000 
 6.75381e-04  1.19503e-02        00000 
-8.72805e-03  1.20922e-02        00000 
 8.44384e-10 -1.17693e-09        00000 
 4.25150e-10 -1.54599e-09        00000 
 6.38970e-10 -2.23388e-09        00000 
 1.21094e-09 -3.65475e-09        00000 
 2.20814e-09 -6.30434e-09        00000 
 3.95049e-09 -1.10738e-08        00000 
 7.02123e-09 -1.95634e-08        00000 
 1.24503e-08 -3.46164e-08        00000 
 2.20556e-08 -6.12591e-08        00000 
 3.90457e-08 -1.08356e-07        00000 
 6.90792e-08 -1.91510e-07        00000 
 1.22129e-07 -3.38146e-07        00000 
 2.15763e-07 -5.96423e-07        00000 
 3.81005e-07 -1.05087e-06        00000 
 6.73187e-07 -1.84959e-06        00000 
 1.19369e-06 -3.24974e-06        00000 
 2.13856e-06 -5.68425e-06        00000 