<?xml version="1.0" encoding="utf-8"?>
<VTKFile byte_order="LittleEndian" type="UnstructuredGrid" version="0.1">
   <UnstructuredGrid>
      <Piece NumberOfCells="3364" NumberOfPoints="1741">
         <Points>
            <DataArray Name="Points" NumberOfComponents="3" format="ascii" type="Float32">
0.0000 1.0000 0.0000
0.0000 1.0345 0.0000
0.0000 1.0690 0.0000
0.0000 1.1034 0.0000
0.0000 1.1379 0.0000
0.0000 1.1724 0.0000
0.0000 1.2069 0.0000
0.0000 1.2414 0.0000
0.0000 1.2759 0.0000
0.0000 1.3103 0.0000
0.0000 1.3448 0.0000
0.0000 1.3793 0.0000
0.0000 1.4138 0.0000
0.0000 1.4483 0.0000
0.0000 1.4828 0.0000
0.0000 1.5172 0.0000
0.0000 1.5517 0.0000
0.0000 1.5862 0.0000
0.0000 1.6207 0.0000
0.0000 1.6552 0.0000
0.0000 1.6897 0.0000
0.0000 1.7241 0.0000
0.0000 1.7586 0.0000
0.0000 1.7931 0.0000
0.0000 1.8276 0.0000
0.0000 1.8621 0.0000
0.0000 1.8966 0.0000
0.0000 1.9310 0.0000
0.0000 1.9655 0.0000
0.0000 2.0000 0.0000
0.0690 1.0000 0.0000
0.0690 1.0345 0.0000
0.0690 1.0690 0.0000
0.0690 1.1034 0.0000
0.0690 1.1379 0.0000
0.0690 1.1724 0.0000
0.0690 1.2069 0.0000
0.0690 1.2414 0.0000
0.0690 1.2759 0.0000
0.0690 1.3103 0.0000
0.0690 1.3448 0.0000
0.0690 1.3793 0.0000
0.0690 1.4138 0.0000
0.0690 1.4483 0.0000
0.0690 1.4828 0.0000
0.0690 1.5172 0.0000
0.0690 1.5517 0.0000
0.0690 1.5862 0.0000
0.0690 1.6207 0.0000
0.0690 1.6552 0.0000
0.0690 1.6897 0.0000
0.0690 1.7241 0.0000
0.0690 1.7586 0.0000
0.0690 1.7931 0.0000
0.0690 1.8276 0.0000
0.0690 1.8621 0.0000
0.0690 1.8966 0.0000
0.0690 1.9310 0.0000
0.0690 1.9655 0.0000
0.0690 2.0000 0.0000
0.1379 1.0000 0.0000
0.1379 1.0345 0.0000
0.1379 1.0690 0.0000
0.1379 1.1034 0.0000
0.1379 1.1379 0.0000
0.1379 1.1724 0.0000
0.1379 1.2069 0.0000
0.1379 1.2414 0.0000
0.1379 1.2759 0.0000
0.1379 1.3103 0.0000
0.1379 1.3448 0.0000
0.1379 1.3793 0.0000
0.1379 1.4138 0.0000
0.1379 1.4483 0.0000
0.1379 1.4828 0.0000
0.1379 1.5172 0.0000
0.1379 1.5517 0.0000
0.1379 1.5862 0.0000
0.1379 1.6207 0.0000
0.1379 1.6552 0.0000
0.1379 1.6897 0.0000
0.1379 1.7241 0.0000
0.1379 1.7586 0.0000
0.1379 1.7931 0.0000
0.1379 1.8276 0.0000
0.1379 1.8621 0.0000
0.1379 1.8966 0.0000
0.1379 1.9310 0.0000
0.1379 1.9655 0.0000
0.1379 2.0000 0.0000
0.2069 1.0000 0.0000
0.2069 1.0345 0.0000
0.2069 1.0690 0.0000
0.2069 1.1034 0.0000
0.2069 1.1379 0.0000
0.2069 1.1724 0.0000
0.2069 1.2069 0.0000
0.2069 1.2414 0.0000
0.2069 1.2759 0.0000
0.2069 1.3103 0.0000
0.2069 1.3448 0.0000
0.2069 1.3793 0.0000
0.2069 1.4138 0.0000
0.2069 1.4483 0.0000
0.2069 1.4828 0.0000
0.2069 1.5172 0.0000
0.2069 1.5517 0.0000
0.2069 1.5862 0.0000
0.2069 1.6207 0.0000
0.2069 1.6552 0.0000
0.2069 1.6897 0.0000
0.2069 1.7241 0.0000
0.2069 1.7586 0.0000
0.2069 1.7931 0.0000
0.2069 1.8276 0.0000
0.2069 1.8621 0.0000
0.2069 1.8966 0.0000
0.2069 1.9310 0.0000
0.2069 1.9655 0.0000
0.2069 2.0000 0.0000
0.2759 1.0000 0.0000
0.2759 1.0345 0.0000
0.2759 1.0690 0.0000
0.2759 1.1034 0.0000
0.2759 1.1379 0.0000
0.2759 1.1724 0.0000
0.2759 1.2069 0.0000
0.2759 1.2414 0.0000
0.2759 1.2759 0.0000
0.2759 1.3103 0.0000
0.2759 1.3448 0.0000
0.2759 1.3793 0.0000
0.2759 1.4138 0.0000
0.2759 1.4483 0.0000
0.2759 1.4828 0.0000
0.2759 1.5172 0.0000
0.2759 1.5517 0.0000
0.2759 1.5862 0.0000
0.2759 1.6207 0.0000
0.2759 1.6552 0.0000
0.2759 1.6897 0.0000
0.2759 1.7241 0.0000
0.2759 1.7586 0.0000
0.2759 1.7931 0.0000
0.2759 1.8276 0.0000
0.2759 1.8621 0.0000
0.2759 1.8966 0.0000
0.2759 1.9310 0.0000
0.2759 1.9655 0.0000
0.2759 2.0000 0.0000
0.3448 1.0000 0.0000
0.3448 1.0345 0.0000
0.3448 1.0690 0.0000
0.3448 1.1034 0.0000
0.3448 1.1379 0.0000
0.3448 1.1724 0.0000
0.3448 1.2069 0.0000
0.3448 1.2414 0.0000
0.3448 1.2759 0.0000
0.3448 1.3103 0.0000
0.3448 1.3448 0.0000
0.3448 1.3793 0.0000
0.3448 1.4138 0.0000
0.3448 1.4483 0.0000
0.3448 1.4828 0.0000
0.3448 1.5172 0.0000
0.3448 1.5517 0.0000
0.3448 1.5862 0.0000
0.3448 1.6207 0.0000
0.3448 1.6552 0.0000
0.3448 1.6897 0.0000
0.3448 1.7241 0.0000
0.3448 1.7586 0.0000
0.3448 1.7931 0.0000
0.3448 1.8276 0.0000
0.3448 1.8621 0.0000
0.3448 1.8966 0.0000
0.3448 1.9310 0.0000
0.3448 1.9655 0.0000
0.3448 2.0000 0.0000
0.4138 1.0000 0.0000
0.4138 1.0345 0.0000
0.4138 1.0690 0.0000
0.4138 1.1034 0.0000
0.4138 1.1379 0.0000
0.4138 1.1724 0.0000
0.4138 1.2069 0.0000
0.4138 1.2414 0.0000
0.4138 1.2759 0.0000
0.4138 1.3103 0.0000
0.4138 1.3448 0.0000
0.4138 1.3793 0.0000
0.4138 1.4138 0.0000
0.4138 1.4483 0.0000
0.4138 1.4828 0.0000
0.4138 1.5172 0.0000
0.4138 1.5517 0.0000
0.4138 1.5862 0.0000
0.4138 1.6207 0.0000
0.4138 1.6552 0.0000
0.4138 1.6897 0.0000
0.4138 1.7241 0.0000
0.4138 1.7586 0.0000
0.4138 1.7931 0.0000
0.4138 1.8276 0.0000
0.4138 1.8621 0.0000
0.4138 1.8966 0.0000
0.4138 1.9310 0.0000
0.4138 1.9655 0.0000
0.4138 2.0000 0.0000
0.4828 1.0000 0.0000
0.4828 1.0345 0.0000
0.4828 1.0690 0.0000
0.4828 1.1034 0.0000
0.4828 1.1379 0.0000
0.4828 1.1724 0.0000
0.4828 1.2069 0.0000
0.4828 1.2414 0.0000
0.4828 1.2759 0.0000
0.4828 1.3103 0.0000
0.4828 1.3448 0.0000
0.4828 1.3793 0.0000
0.4828 1.4138 0.0000
0.4828 1.4483 0.0000
0.4828 1.4828 0.0000
0.4828 1.5172 0.0000
0.4828 1.5517 0.0000
0.4828 1.5862 0.0000
0.4828 1.6207 0.0000
0.4828 1.6552 0.0000
0.4828 1.6897 0.0000
0.4828 1.7241 0.0000
0.4828 1.7586 0.0000
0.4828 1.7931 0.0000
0.4828 1.8276 0.0000
0.4828 1.8621 0.0000
0.4828 1.8966 0.0000
0.4828 1.9310 0.0000
0.4828 1.9655 0.0000
0.4828 2.0000 0.0000
0.5517 1.0000 0.0000
0.5517 1.0345 0.0000
0.5517 1.0690 0.0000
0.5517 1.1034 0.0000
0.5517 1.1379 0.0000
0.5517 1.1724 0.0000
0.5517 1.2069 0.0000
0.5517 1.2414 0.0000
0.5517 1.2759 0.0000
0.5517 1.3103 0.0000
0.5517 1.3448 0.0000
0.5517 1.3793 0.0000
0.5517 1.4138 0.0000
0.5517 1.4483 0.0000
0.5517 1.4828 0.0000
0.5517 1.5172 0.0000
0.5517 1.5517 0.0000
0.5517 1.5862 0.0000
0.5517 1.6207 0.0000
0.5517 1.6552 0.0000
0.5517 1.6897 0.0000
0.5517 1.7241 0.0000
0.5517 1.7586 0.0000
0.5517 1.7931 0.0000
0.5517 1.8276 0.0000
0.5517 1.8621 0.0000
0.5517 1.8966 0.0000
0.5517 1.9310 0.0000
0.5517 1.9655 0.0000
0.5517 2.0000 0.0000
0.6207 1.0000 0.0000
0.6207 1.0345 0.0000
0.6207 1.0690 0.0000
0.6207 1.1034 0.0000
0.6207 1.1379 0.0000
0.6207 1.1724 0.0000
0.6207 1.2069 0.0000
0.6207 1.2414 0.0000
0.6207 1.2759 0.0000
0.6207 1.3103 0.0000
0.6207 1.3448 0.0000
0.6207 1.3793 0.0000
0.6207 1.4138 0.0000
0.6207 1.4483 0.0000
0.6207 1.4828 0.0000
0.6207 1.5172 0.0000
0.6207 1.5517 0.0000
0.6207 1.5862 0.0000
0.6207 1.6207 0.0000
0.6207 1.6552 0.0000
0.6207 1.6897 0.0000
0.6207 1.7241 0.0000
0.6207 1.7586 0.0000
0.6207 1.7931 0.0000
0.6207 1.8276 0.0000
0.6207 1.8621 0.0000
0.6207 1.8966 0.0000
0.6207 1.9310 0.0000
0.6207 1.9655 0.0000
0.6207 2.0000 0.0000
0.6897 1.0000 0.0000
0.6897 1.0345 0.0000
0.6897 1.0690 0.0000
0.6897 1.1034 0.0000
0.6897 1.1379 0.0000
0.6897 1.1724 0.0000
0.6897 1.2069 0.0000
0.6897 1.2414 0.0000
0.6897 1.2759 0.0000
0.6897 1.3103 0.0000
0.6897 1.3448 0.0000
0.6897 1.3793 0.0000
0.6897 1.4138 0.0000
0.6897 1.4483 0.0000
0.6897 1.4828 0.0000
0.6897 1.5172 0.0000
0.6897 1.5517 0.0000
0.6897 1.5862 0.0000
0.6897 1.6207 0.0000
0.6897 1.6552 0.0000
0.6897 1.6897 0.0000
0.6897 1.7241 0.0000
0.6897 1.7586 0.0000
0.6897 1.7931 0.0000
0.6897 1.8276 0.0000
0.6897 1.8621 0.0000
0.6897 1.8966 0.0000
0.6897 1.9310 0.0000
0.6897 1.9655 0.0000
0.6897 2.0000 0.0000
0.7586 1.0000 0.0000
0.7586 1.0345 0.0000
0.7586 1.0690 0.0000
0.7586 1.1034 0.0000
0.7586 1.1379 0.0000
0.7586 1.1724 0.0000
0.7586 1.2069 0.0000
0.7586 1.2414 0.0000
0.7586 1.2759 0.0000
0.7586 1.3103 0.0000
0.7586 1.3448 0.0000
0.7586 1.3793 0.0000
0.7586 1.4138 0.0000
0.7586 1.4483 0.0000
0.7586 1.4828 0.0000
0.7586 1.5172 0.0000
0.7586 1.5517 0.0000
0.7586 1.5862 0.0000
0.7586 1.6207 0.0000
0.7586 1.6552 0.0000
0.7586 1.6897 0.0000
0.7586 1.7241 0.0000
0.7586 1.7586 0.0000
0.7586 1.7931 0.0000
0.7586 1.8276 0.0000
0.7586 1.8621 0.0000
0.7586 1.8966 0.0000
0.7586 1.9310 0.0000
0.7586 1.9655 0.0000
0.7586 2.0000 0.0000
0.8276 1.0000 0.0000
0.8276 1.0345 0.0000
0.8276 1.0690 0.0000
0.8276 1.1034 0.0000
0.8276 1.1379 0.0000
0.8276 1.1724 0.0000
0.8276 1.2069 0.0000
0.8276 1.2414 0.0000
0.8276 1.2759 0.0000
0.8276 1.3103 0.0000
0.8276 1.3448 0.0000
0.8276 1.3793 0.0000
0.8276 1.4138 0.0000
0.8276 1.4483 0.0000
0.8276 1.4828 0.0000
0.8276 1.5172 0.0000
0.8276 1.5517 0.0000
0.8276 1.5862 0.0000
0.8276 1.6207 0.0000
0.8276 1.6552 0.0000
0.8276 1.6897 0.0000
0.8276 1.7241 0.0000
0.8276 1.7586 0.0000
0.8276 1.7931 0.0000
0.8276 1.8276 0.0000
0.8276 1.8621 0.0000
0.8276 1.8966 0.0000
0.8276 1.9310 0.0000
0.8276 1.9655 0.0000
0.8276 2.0000 0.0000
0.8966 1.0000 0.0000
0.8966 1.0345 0.0000
0.8966 1.0690 0.0000
0.8966 1.1034 0.0000
0.8966 1.1379 0.0000
0.8966 1.1724 0.0000
0.8966 1.2069 0.0000
0.8966 1.2414 0.0000
0.8966 1.2759 0.0000
0.8966 1.3103 0.0000
0.8966 1.3448 0.0000
0.8966 1.3793 0.0000
0.8966 1.4138 0.0000
0.8966 1.4483 0.0000
0.8966 1.4828 0.0000
0.8966 1.5172 0.0000
0.8966 1.5517 0.0000
0.8966 1.5862 0.0000
0.8966 1.6207 0.0000
0.8966 1.6552 0.0000
0.8966 1.6897 0.0000
0.8966 1.7241 0.0000
0.8966 1.7586 0.0000
0.8966 1.7931 0.0000
0.8966 1.8276 0.0000
0.8966 1.8621 0.0000
0.8966 1.8966 0.0000
0.8966 1.9310 0.0000
0.8966 1.9655 0.0000
0.8966 2.0000 0.0000
0.9655 1.0000 0.0000
0.9655 1.0345 0.0000
0.9655 1.0690 0.0000
0.9655 1.1034 0.0000
0.9655 1.1379 0.0000
0.9655 1.1724 0.0000
0.9655 1.2069 0.0000
0.9655 1.2414 0.0000
0.9655 1.2759 0.0000
0.9655 1.3103 0.0000
0.9655 1.3448 0.0000
0.9655 1.3793 0.0000
0.9655 1.4138 0.0000
0.9655 1.4483 0.0000
0.9655 1.4828 0.0000
0.9655 1.5172 0.0000
0.9655 1.5517 0.0000
0.9655 1.5862 0.0000
0.9655 1.6207 0.0000
0.9655 1.6552 0.0000
0.9655 1.6897 0.0000
0.9655 1.7241 0.0000
0.9655 1.7586 0.0000
0.9655 1.7931 0.0000
0.9655 1.8276 0.0000
0.9655 1.8621 0.0000
0.9655 1.8966 0.0000
0.9655 1.9310 0.0000
0.9655 1.9655 0.0000
0.9655 2.0000 0.0000
1.0345 1.0000 0.0000
1.0345 1.0345 0.0000
1.0345 1.0690 0.0000
1.0345 1.1034 0.0000
1.0345 1.1379 0.0000
1.0345 1.1724 0.0000
1.0345 1.2069 0.0000
1.0345 1.2414 0.0000
1.0345 1.2759 0.0000
1.0345 1.3103 0.0000
1.0345 1.3448 0.0000
[...]
         <PointData>
            <DataArray Name="fValues" NumberOfComponents="3" format="ascii" type="Float64">
-1.34512e-19 -1.18921e-18        00000 
-1.83981e-19  1.83981e-19        00000 
-4.54836e-20 -1.70564e-20        00000 
 6.57188e-19  8.28629e-20        00000 
-9.09672e-20  1.04612e-18        00000 
 8.05572e-19 -1.14706e-18        00000 
-9.09672e-20  4.54836e-19        00000 
 5.71468e-21 -1.11436e-19        00000 
 7.81750e-21  4.63720e-20        00000 
-1.07627e-21  4.16853e-21        00000 
 1.77670e-22 -8.88352e-22        00000 
-7.78252e-24 -4.93242e-22        00000 
-1.11044e-23  1.04104e-23        00000 
 2.35738e-24 -3.24327e-23        00000 
 3.47012e-25  3.47012e-24        00000 
 5.88594e-25 -3.70596e-24        00000 
 5.42207e-27  1.49378e-24        00000 
 4.88015e-27 -1.34032e-25        00000 
-4.06655e-27  4.60876e-26        00000 
 1.97255e-28 -2.46685e-27        00000 
-2.27685e-28  1.20726e-27        00000 
 1.46347e-29 -3.82476e-28        00000 
 2.64749e-29 -1.58850e-28        00000 
 6.32013e-30  2.19541e-29        00000 
 3.10253e-31 -2.64749e-30        00000 
-1.87543e-31  1.69430e-30        00000 
-1.13760e-31 -8.27342e-32        00000 
 6.50896e-33 -3.90538e-32        00000 
-3.74845e-33  5.27636e-33        00000 
 1.36464e-33 -1.31909e-33        00000 
 1.47048e-03 -7.49221e-04        00000 
 5.85625e-03  4.97047e-03        00000 
 4.94374e-03  1.29914e-02        00000 
 4.46672e-03  3.92411e-04        00000 
 5.11278e-03 -1.21355e-02        00000 
 5.86703e-03 -4.95243e-03        00000 
 3.98820e-04  6.24345e-04        00000 
 1.01867e-04  5.21898e-04        00000 
-7.57335e-06  1.42255e-04        00000 
-6.36853e-06  1.49993e-05        00000 
-2.00868e-06 -3.71147e-06        00000 
-3.16385e-07 -2.22250e-06        00000 
 9.17101e-09 -5.44860e-07        00000 
 2.31553e-08 -5.33857e-08        00000 
 7.69441e-09  1.49605e-08        00000 
 1.29561e-09  8.57924e-09        00000 
-2.04913e-11  2.10041e-09        00000 
-8.82749e-11  2.09499e-10        00000 
-3.00466e-11 -5.64858e-11        00000 
-5.14394e-12 -3.30290e-11        00000 
 5.13761e-14 -8.17811e-12        00000 
 3.38966e-13 -8.39256e-13        00000 
 1.16870e-13  2.12168e-13        00000 
 2.02683e-14  1.27429e-13        00000 
-1.04478e-16  3.19150e-14        00000 
-1.29993e-15  3.36447e-15        00000 
-4.53912e-16 -7.96175e-16        00000 
-7.98977e-17 -4.88818e-16        00000 
-6.35664e-18 -1.19916e-16        00000 
 1.37765e-17 -2.26267e-17        00000 
-2.62266e-04  1.95262e-03        00000 
 3.31200e-03 -2.44810e-03        00000 
-5.63307e-02 -4.71143e-02        00000 
-4.23688e-02 -4.49654e-04        00000 
-5.77272e-02  4.38096e-02        00000 
 2.80043e-03  1.90820e-03        00000 
 1.89972e-04 -1.63317e-03        00000 
 1.18932e-04 -5.94572e-04        00000 
 3.78204e-07 -1.22751e-04        00000 
-5.60804e-06 -8.56141e-06        00000 
-2.16898e-06  4.37190e-06        00000 
-3.83806e-07  2.11703e-06        00000 
 9.40457e-11  4.88396e-07        00000 
 2.40236e-08  4.22848e-08        00000 
 8.41700e-09 -1.55451e-08        00000 
 1.47341e-09 -8.18793e-09        00000 
-2.84756e-12 -1.93766e-09        00000 
-9.25142e-11 -1.75949e-10        00000 
-3.25327e-11  5.86081e-11        00000 
-5.75541e-12  3.17515e-11        00000 
-1.24799e-14  7.59422e-12        00000 
 3.53921e-13  7.10567e-13        00000 
 1.26108e-13 -2.21657e-13        00000 
 2.26162e-14 -1.22784e-13        00000 
 1.53785e-16 -2.96732e-14        00000 
-1.35453e-15 -2.85854e-15        00000 
-4.89369e-16  8.35816e-16        00000 
-8.90991e-17  4.71379e-16        00000 
-7.51039e-18  1.11143e-16        00000 
 1.47467e-17  2.03863e-17        00000 
-2.50813e-03 -1.69153e-04        00000 
 2.09111e-03 -6.67515e-04        00000 
-2.90173e-02  5.88600e-03        00000 
 8.62617e-01 -5.77969e-03        00000 
-1.07670e-02  1.14335e-02        00000 
 2.39696e-05  3.76407e-03        00000 
 2.45260e-06  6.24949e-04        00000 
 1.40418e-06  7.62034e-06        00000 
 2.09494e-08 -3.51391e-05        00000 
-6.47137e-08 -1.31099e-05        00000 
-2.58748e-08 -2.53443e-06        00000 
-4.74193e-09 -8.88438e-08        00000 
-5.18213e-11  1.27027e-07        00000 
 2.78144e-10  5.08572e-08        00000 
 1.00740e-10  1.01410e-08        00000 
 1.82090e-11  4.21951e-10        00000 
 1.67753e-13 -4.83761e-10        00000 
-1.07166e-12 -1.97842e-10        00000 
-3.89302e-13 -3.99317e-11        00000 
-7.10705e-14 -1.81054e-12        00000 
-9.27437e-16  1.84781e-12        00000 
 4.09648e-15  7.67296e-13        00000 
 1.50839e-15  1.56605e-13        00000 
 2.79034e-16  7.65264e-15        00000 
 4.85736e-18 -7.04752e-15        00000 
-1.56635e-17 -2.97285e-15        00000 
-5.85082e-18 -6.13919e-16        00000 
-1.09910e-18 -3.20047e-17        00000 
-9.53148e-20  3.05022e-17        00000 
 1.56230e-18  1.38604e-17        00000 
-1.04637e-04  6.74044e-04        00000 
 2.08836e-05  2.50894e-03        00000 
-2.13232e-04  4.94194e-03        00000 
 1.00846e-02  1.02920e-17        00000 
 3.69534e-18 -3.83801e-18        00000 
-1.15537e-18  1.54871e-19        00000 
 1.38983e-19  1.90479e-20        00000 
-2.20842e-20  5.86196e-21        00000 
 2.54466e-21 -2.28135e-21        00000 
-4.19418e-22 -4.28195e-22        00000 
 3.99487e-23 -4.00585e-22        00000 
 1.10899e-23  4.67779e-23        00000 
-3.03110e-24 -8.40221e-24        00000 
-1.03636e-25  8.91819e-25        00000 
 1.09016e-25  1.33622e-24        00000 
-4.87446e-26 -3.26887e-25        00000 
 3.54858e-27  1.10303e-25        00000 
 3.46642e-28 -2.93712e-26        00000 
-2.14699e-28  3.11113e-27        00000 
-2.08404e-28 -4.85979e-28        00000 
 9.84889e-29  8.91556e-29        00000 
-2.30190e-29 -9.18358e-29        00000 
 5.59697e-30  1.55221e-29        00000 
-1.70629e-30 -1.31217e-30        00000 
 2.00694e-31  1.89671e-31        00000 
 2.34388e-32  1.31401e-31        00000 
-1.78020e-32 -1.41623e-31        00000 
 6.98469e-33  1.84719e-32        00000 
-1.47451e-33 -2.15750e-33        00000 
 4.96876e-34  2.27739e-33        00000 
-1.48710e-19 -4.54836e-20        00000 
 4.40956e-19 -1.29529e-19        00000 
-9.46239e-19  3.85397e-19        00000 
 1.21426e-18  8.62720e-20        00000 
-6.79255e-19  8.36439e-20        00000 
 2.83107e-19 -1.56498e-19        00000 
-7.70467e-20  1.68961e-20        00000 
 1.35212e-20 -1.47384e-21        00000 
-2.26893e-21  5.47510e-22        00000 
 3.47200e-22 -1.18693e-22        00000 
-5.33897e-23  2.78547e-23        00000 
 6.15867e-24 -2.09991e-23        00000 
-1.09806e-25  4.10604e-24        00000 
-5.05477e-26 -6.84772e-25        00000 
-1.45356e-26 -1.68154e-26        00000 
 9.38201e-27  7.67742e-26        00000 
-2.85011e-27 -2.72490e-26        00000 
 3.47246e-28  8.60400e-27        00000 
-1.59761e-29 -2.05551e-27        00000 
 1.48611e-29  3.36005e-28        00000 
-1.71050e-29 -6.00259e-29        00000 
 6.94121e-30  1.66814e-29        00000 
-1.91139e-30 -6.08976e-30        00000 
 5.05972e-31  1.20247e-30        00000 
-1.17283e-31 -1.81517e-31        00000 
 1.51647e-32  9.36361e-33        00000 
 9.00270e-34  9.94178e-33        00000 
-1.04025e-33 -6.51253e-33        00000 
 4.70737e-34  1.47068e-33        00000 
-2.18182e-34 -5.75246e-34        00000 
 5.67079e-20 -8.57975e-21        00000 
-8.72178e-20  2.84885e-20        00000 
 1.44882e-19 -3.21804e-20        00000 
-1.53390e-19  1.27768e-20        00000 
 1.28375e-19 -1.09951e-20        00000 
-5.96781e-20  1.64250e-20        00000 
 2.16055e-20 -8.32476e-21        00000 
-5.74095e-21  1.43410e-21        00000 
 1.17870e-21 -2.30099e-22        00000 
-2.18587e-22  5.23941e-23        00000 
 3.76368e-23 -1.22466e-23        00000 
-6.10830e-24  3.90861e-24        00000 
 8.52459e-25 -1.44710e-24        00000 
-9.35372e-26  3.24475e-25        00000 
 1.12570e-26 -4.94699e-26        00000 
-2.86455e-27 -2.74179e-27        00000 
 8.84769e-28  5.24274e-27        00000 
-2.15298e-28 -2.12380e-27        00000 
 3.47605e-29  6.56212e-28        00000 
-5.93313e-30 -1.58538e-28        00000 
 2.72499e-30  3.15464e-29        00000 
-1.46589e-30 -6.60942e-30        00000 
 5.40566e-31  1.73328e-30        00000 
-1.58442e-31 -4.77220e-31        00000 
 4.21577e-32  1.02588e-31        00000 
-9.06672e-33 -1.63273e-32        00000 
 1.26443e-33  9.22434e-34        00000 
-1.39242e-36  7.56775e-34        00000 
-8.10122e-35 -4.39209e-34        00000 
 6.06780e-35  2.37983e-34        00000 
-1.30473e-20  3.27820e-21        00000 
 1.64686e-20 -3.66336e-21        00000 
-2.25731e-20  4.14335e-21        00000 
 2.42860e-20 -2.96748e-21        00000 
-2.00886e-20  1.95558e-21        00000 
 1.17100e-20 -2.15526e-21        00000 
-5.00023e-21  1.45815e-21        00000 
 1.68479e-21 -5.38921e-22        00000 
-4.50249e-22  1.17814e-22        00000 
 1.00337e-22 -2.33128e-23        00000 
-2.01126e-23  5.15306e-24        00000 
 3.73800e-24 -1.27974e-24        00000 
-6.48461e-25  3.82000e-25        00000 
 1.02521e-25 -1.13035e-25        00000 
-1.48591e-26  2.53187e-26        00000 
 2.24625e-27 -3.64867e-27        00000 
-4.22468e-28 -2.27582e-28        00000 
 9.31722e-29  3.82928e-28        00000 
-1.99000e-29 -1.62451e-28        00000 
 3.79899e-30  5.04223e-29        00000 
-8.55435e-31 -1.27049e-29        00000 
 3.15362e-31  2.83654e-30        00000 
-1.28745e-31 -6.48030e-31        00000 
 4.43771e-32  1.62631e-31        00000 
-1.28137e-32 -4.09248e-32        00000 
 3.38677e-33  8.73838e-33        00000 
-7.24223e-34 -1.44133e-33        00000 
 1.08668e-34  9.84414e-35        00000 
-2.02503e-36  5.90075e-35        00000 
-9.08090e-36 -5.66427e-35        00000 
 2.58304e-21 -7.52645e-22        00000 
-3.21576e-21  7.47255e-22        00000 
 3.80907e-21 -5.01353e-22        00000 
-3.84351e-21  6.10036e-22        00000 
 3.15235e-21 -4.40952e-22        00000 
-2.08380e-21  3.35193e-22        00000 
 1.04438e-21 -2.38550e-22        00000 
-4.14249e-22  1.18887e-22        00000 
 1.34189e-22 -3.84734e-23        00000 
-3.62599e-23  9.54129e-24        00000 
 8.48773e-24 -2.13368e-24        00000 
-1.79742e-24  4.95913e-25        00000 
 3.53656e-25 -1.26258e-25        00000 
-6.43754e-26  3.47274e-26        00000 
 1.07540e-26 -9.11503e-27        00000 
-1.72070e-27  1.92604e-27        00000 
 2.65756e-28 -2.69901e-28        00000 
-4.86705e-29 -1.85542e-29        00000 
 1.08626e-29  2.81513e-29        00000 
-2.11009e-30 -1.23137e-29        00000 
 4.26262e-31  3.89910e-30        00000 
-1.02706e-31 -1.03554e-30        00000 
 3.27849e-32  2.48614e-31        00000 
-1.16417e-32 -6.05247e-32        00000 
 3.76541e-33  1.57754e-32        00000 
-1.07815e-33 -3.62102e-33        00000 
 2.76560e-34  7.60139e-34        00000 
-5.91083e-35 -1.26747e-34        00000 
 9.22161e-36  8.41402e-36        00000 
-1.28600e-36  6.20503e-36        00000 
-5.06525e-22  1.26781e-22        00000 
 5.52413e-22 -1.17271e-22        00000 
-6.22196e-22  1.01783e-22        00000 
 6.18558e-22 -9.23027e-23        00000 
-5.18603e-22  7.82390e-23        00000 
 3.58948e-22 -5.80915e-23        00000 
-2.01516e-22  4.00160e-23        00000 
 9.14774e-23 -2.25305e-23        00000 
-3.43235e-23  9.41866e-24        00000 
 1.08681e-23 -2.99609e-24        00000 
-2.96756e-24  7.85403e-25        00000 
 7.19041e-25 -1.89395e-25        00000 
-1.59080e-25  4.60106e-26        00000 
 3.27077e-26 -1.17509e-26        00000 
-6.27859e-27  3.08884e-27        00000 
 1.13207e-27 -7.64558e-28        00000 
-1.95645e-28  1.58428e-28        00000 
 3.34539e-29 -2.18854e-29        00000 
-6.10396e-30 -1.09649e-30        00000 
 1.19607e-30  2.11282e-30        00000 
-2.33716e-31 -9.43760e-31        00000 
 4.80386e-32  3.07264e-31        00000 
-1.14449e-32 -8.49880e-32        00000 
 3.32054e-33  2.16619e-32        00000 
-1.05812e-33 -5.40966e-33        00000 
 3.22044e-34  1.37008e-33        00000 
-9.05179e-35 -3.24958e-34        00000 
 2.22042e-35  4.88811e-35        00000 
-4.95901e-36 -9.89180e-36        00000 
 1.65758e-36  2.05992e-36        00000 
 9.16982e-23 -2.07384e-23        00000 
-9.60314e-23  1.97548e-23        00000 
 1.02720e-22 -1.77104e-23        00000 
-1.00670e-22  1.56021e-23        00000 
 8.55237e-23 -1.31390e-23        00000 
-6.16224e-23  1.00503e-23        00000 
 3.72073e-23 -6.92448e-24        00000 
-1.87425e-23  4.12416e-24        00000 
 7.92550e-24 -2.01484e-24        00000 
-2.85601e-24  7.68482e-25        00000 
 8.91428e-25 -2.40895e-25        00000 
-2.45595e-25  6.54875e-26        00000 
 6.10369e-26 -1.65970e-26        00000 
-1.39609e-26  4.16792e-27        00000 
 2.97913e-27 -1.06634e-27        00000 
-5.97747e-28  2.72330e-28        00000 
 1.13766e-28 -6.51108e-29        00000 
-2.08554e-29  1.32591e-29        00000 
 3.77569e-30 -1.85748e-30        00000 
-6.98354e-31 -5.04546e-32        00000 
 1.33124e-31  1.57278e-31        00000 
-2.59214e-32 -7.27065e-32        00000 
 5.33250e-33  2.43975e-32        00000 
-1.23563e-33 -7.01311e-33        00000 
 3.31512e-34  1.87463e-33        00000 
-9.70875e-35 -4.78713e-34        00000 
 2.81547e-35  1.18952e-34        00000 
-7.58491e-36 -2.59495e-35        00000 
 1.92583e-36  4.92257e-36        00000 
-8.54625e-37 -1.92366e-36        00000 
-1.61841e-23  3.44909e-24        00000 
 1.65896e-23 -3.32638e-24        00000 
-1.71329e-23  3.02834e-24        00000 
 1.65320e-23 -2.65369e-24        00000 
-1.41709e-23  2.19685e-24        00000 
 1.05318e-23 -1.71939e-24        00000 
-6.71541e-24  1.20743e-24        00000 
 3.65635e-24 -7.48435e-25        00000 
-1.70245e-24  3.97895e-25        00000 
 6.82942e-25 -1.74244e-25        00000 
-2.38852e-25  6.34135e-26        00000 
 7.38341e-26 -1.97687e-26        00000 
-2.04929e-26  5.51148e-27        00000 
 5.19322e-27 -1.44535e-27        00000 
-1.21977e-27  3.71596e-28        00000 
 2.68545e-28 -9.52326e-29        00000 
-5.58912e-29  2.38992e-29        00000 
 1.10963e-29 -5.59378e-30        00000 
-2.12812e-30  1.12826e-30        00000 
 4.01265e-31 -1.62414e-31        00000 
-7.58121e-32 -3.39718e-34        00000 
 1.45013e-32  1.15967e-32        00000 
-2.83224e-33 -5.62138e-33        00000 
 5.81037e-34  1.94914e-33        00000 
-1.31129e-34 -5.81801e-34        00000 
 3.31071e-35  1.59397e-34        00000 
-9.04828e-36 -4.14359e-35        00000 
 2.49954e-36  1.01723e-35        00000 
-6.92388e-37 -2.34558e-36        00000 
 3.22874e-37  9.17788e-37        00000 
 2.81778e-24 -5.75725e-25        00000 
-2.85117e-24  5.65537e-25        00000 
 2.87401e-24 -5.18704e-25        00000 
-2.73633e-24  4.52926e-25        00000 
 2.35796e-24 -3.74706e-25        00000 
-1.79547e-24  2.92884e-25        00000 
 1.19457e-24 -2.09914e-25        00000 
-6.91089e-25  1.36264e-25        00000 
 3.47397e-25 -7.54567e-26        00000 
-1.52351e-25  3.65308e-26        00000 
 5.87019e-26 -1.49876e-26        00000 
-2.00723e-26  5.28702e-27        00000 
 6.16240e-27 -1.64500e-27        00000 
-1.72086e-27  4.66980e-28        00000 
 4.42911e-28 -1.25426e-28        00000 
-1.06316e-28  3.27859e-29        00000 
 2.40315e-29 -8.41877e-30        00000 
-5.15711e-30  2.09120e-30        00000 
 1.05967e-30 -4.83436e-31        00000 
-2.10668e-31  9.72717e-32        00000 
 4.10399e-32 -1.44837e-32        00000 
-7.93530e-33  3.30986e-34        00000 
 1.53877e-33  8.43920e-34        00000 
-3.03071e-34 -4.35559e-34        00000 
 6.21119e-35  1.56145e-34        00000 
-1.36941e-35 -4.80081e-35        00000 
 3.30297e-36  1.34707e-35        00000 
-8.56655e-37 -3.55167e-36        00000 
 2.39186e-37  9.14402e-37        00000 
-1.15825e-37 -3.97235e-37        00000 
-4.86574e-25  9.74026e-26        00000 
 4.88096e-25 -9.49716e-26        00000 
-4.83784e-25  8.78040e-26        00000 
 4.55725e-25 -7.69600e-26        00000 
-3.93962e-25  6.40409e-26        00000 
 3.05684e-25 -5.02180e-26        00000 
-2.10413e-25  3.65498e-26        00000 
 1.27792e-25 -2.41816e-26        00000 
-6.83714e-26  1.42612e-26        00000 
 3.22775e-26 -7.31337e-27        00000 
-1.35050e-26  3.28889e-27        00000 
 5.04189e-27 -1.28773e-27        00000 
-1.69415e-27  4.44562e-28        00000 
 5.17490e-28 -1.38240e-28        00000 
-1.45246e-28  3.97591e-29        00000 
 3.78614e-29 -1.08612e-29        00000 
-9.25504e-30  2.87293e-30        00000 
 2.13933e-30 -7.39319e-31        00000 
-4.71157e-31  1.82634e-31        00000 
 9.96283e-32 -4.19580e-32        00000 
-2.04033e-32  8.46715e-33        00000 
 4.08629e-33 -1.30759e-33        00000 
-8.08202e-34  6.03567e-35        00000 
 1.59398e-34  6.02727e-35        00000 
-3.17604e-35 -3.38801e-35        00000 
 6.51879e-36  1.25632e-35        00000 
-1.41459e-36 -3.95937e-36        00000 
 3.30542e-37  1.13610e-36        00000 
-8.65947e-38 -3.18976e-37        00000 
 4.13270e-38  1.50148e-37        00000 
 8.35598e-26 -1.64193e-26        00000 
-8.33350e-26  1.60129e-26        00000 
 8.16123e-26 -1.48451e-26        00000 
-7.62519e-26  1.30763e-26        00000 
 6.60633e-26 -1.09320e-26        00000 
-5.20261e-26  8.62575e-27        00000 
 3.68125e-26 -6.34947e-27        00000 
-2.32661e-26  4.29379e-27        00000 
 1.31049e-26 -2.62699e-27        00000 
-6.57981e-27  1.42728e-27        00000 
 2.95284e-27 -6.86834e-28        00000 
-1.18980e-27  2.92682e-28        00000 
 4.33128e-28 -1.10724e-28        00000 
-1.43538e-28  3.76354e-29        00000 
 4.36743e-29 -1.17008e-29        00000 
-1.23111e-29  3.39715e-30        00000 
 3.24348e-30 -9.39316e-31        00000 
-8.05192e-31  2.50618e-31        00000 
 1.89728e-31 -6.46447e-32        00000 
-4.27226e-32  1.59312e-32        00000 
 9.25675e-33 -3.65282e-33        00000 
-1.94408e-33  7.42056e-34        00000 
 3.98852e-34 -1.18869e-34        00000 
-8.05828e-35  7.97056e-36        00000 
 1.61747e-35  4.21543e-36        00000 
-3.26291e-36 -2.61618e-36        00000 
 6.72671e-37  1.00961e-36        00000 
-1.44967e-37 -3.27340e-37        00000 
 3.47175e-38  1.01301e-37        00000 
-1.56600e-38 -5.11784e-38        00000 
-1.42966e-26  2.76852e-27        00000 
 1.42005e-26 -2.70191e-27        00000 
-1.37877e-26  2.51097e-27        00000 
 1.28034e-26 -2.22064e-27        00000 
-1.11120e-26  1.86548e-27        00000 
 8.85624e-27 -1.48162e-27        00000 
-6.41019e-27  1.10274e-27        00000 
 4.18775e-27 -7.59738e-28        00000 
-2.46217e-27  4.76733e-28        00000 
 1.30247e-27 -2.71946e-28        00000 
-6.20614e-28  1.38667e-28        00000 
 2.67192e-28 -6.32628e-29        00000 
-1.04401e-28  2.58685e-29        00000 
 3.72338e-29 -9.53460e-30        00000 
-1.22019e-29  3.20323e-30        00000 
 3.70134e-30 -9.95642e-31        00000 
-1.04721e-30  2.91033e-31        00000 
 2.78412e-31 -8.11751e-32        00000 
-7.00385e-32  2.17987e-32        00000 
 1.67792e-32 -5.63653e-33        00000 
-3.85153e-33  1.38872e-33        00000 
 8.52241e-34 -3.18728e-34        00000 
-1.82930e-34  6.53355e-35        00000 
 3.83385e-35 -1.08393e-35        00000 
-7.89901e-36  9.23982e-37        00000 
 1.61275e-36  2.80005e-37        00000 
-3.29622e-37 -2.01271e-37        00000 
 6.85258e-38  8.14816e-38        00000 
-1.53678e-38 -2.89272e-38        00000 
 6.51525e-39  1.58467e-38        00000 
 2.43974e-27 -4.67041e-28        00000 
-2.41642e-27  4.56138e-28        00000 
 2.33167e-27 -4.24837e-28        00000 
-2.15556e-27  3.76947e-28        00000 
 1.87371e-27 -3.16505e-28        00000 
-1.50816e-27  2.52739e-28        00000 
 1.11234e-27 -1.94045e-28        00000 
-7.47228e-28  1.34712e-28        00000 
 4.55715e-28 -8.62142e-29        00000 
-2.52011e-28  5.09264e-29        00000 
 1.26445e-28 -2.72627e-29        00000 
-5.76717e-29  1.31753e-29        00000 
 2.39872e-29 -5.75310e-30        00000 
-9.13686e-30  2.27717e-30        00000 
 3.20381e-30 -8.22439e-31        00000 
-1.04029e-30  2.73790e-31        00000 
 3.14790e-31 -8.50623e-32        00000 