<?xml version="1.0" encoding="utf-8"?>
<VTKFile byte_order="LittleEndian" type="UnstructuredGrid" version="0.1">
   <UnstructuredGrid>
      <Piece NumberOfCells="3364" NumberOfPoints="1741">
         <Points>
            <DataArray Name="Points" NumberOfComponents="3" format="ascii" type="Float32">
0.0000 1.0000 0.0000
0.0000 1.0345 0.0000
0.0000 1.0690 0.0000
0.0000 1.1034 0.0000
0.0000 1.1379 0.0000
0.0000 1.1724 0.0000
0.0000 1.2069 0.0000
0.0000 1.2414 0.0000
0.0000 1.2759 0.0000
0.0000 1.3103 0.0000
0.0000 1.3448 0.0000
0.0000 1.3793 0.0000
0.0000 1.4138 0.0000
0.0000 1.4483 0.0000
0.0000 1.4828 0.0000
0.0000 1.5172 0.0000
0.0000 1.5517 0.0000
0.0000 1.5862 0.0000
0.0000 1.6207 0.0000
0.0000 1.6552 0.0000
0.0000 1.6897 0.0000
0.0000 1.7241 0.0000
0.0000 1.7586 0.0000
0.0000 1.7931 0.0000
0.0000 1.8276 0.0000
0.0000 1.8621 0.0000
0.0000 1.8966 0.0000
0.0000 1.9310 0.0000
0.0000 1.9655 0.0000
0.0000 2.0000 0.0000
0.0690 1.0000 0.0000
0.0690 1.0345 0.0000
0.0690 1.0690 0.0000
0.0690 1.1034 0.0000
0.0690 1.1379 0.0000
0.0690 1.1724 0.0000
0.0690 1.2069 0.0000
0.0690 1.2414 0.0000
0.0690 1.2759 0.0000
0.0690 1.3103 0.0000
0.0690 1.3448 0.0000
0.0690 1.3793 0.0000
0.0690 1.4138 0.0000
0.0690 1.4483 0.0000
0.0690 1.4828 0.0000
0.0690 1.5172 0.0000
0.0690 1.5517 0.0000
0.0690 1.5862 0.0000
0.0690 1.6207 0.0000
0.0690 1.6552 0.0000
0.0690 1.6897 0.0000
0.0690 1.7241 0.0000
0.0690 1.7586 0.0000
0.0690 1.7931 0.0000
0.0690 1.8276 0.0000
0.0690 1.8621 0.0000
0.0690 1.8966 0.0000
0.0690 1.9310 0.0000
0.0690 1.9655 0.0000
0.0690 2.0000 0.0000
0.1379 1.0000 0.0000
0.1379 1.0345 0.0000
0.1379 1.0690 0.0000
0.1379 1.1034 0.0000
0.1379 1.1379 0.0000
0.1379 1.1724 0.0000
0.1379 1.2069 0.0000
0.1379 1.2414 0.0000
0.1379 1.2759 0.0000
0.1379 1.3103 0.0000
0.1379 1.3448 0.0000
0.1379 1.3793 0.0000
0.1379 1.4138 0.0000
0.1379 1.4483 0.0000
0.1379 1.4828 0.0000
0.1379 1.5172 0.0000
0.1379 1.5517 0.0000
0.1379 1.5862 0.0000
0.1379 1.6207 0.0000
0.1379 1.6552 0.0000
0.1379 1.6897 0.0000
0.1379 1.7241 0.0000
0.1379 1.7586 0.0000
0.1379 1.7931 0.0000
0.1379 1.8276 0.0000
0.1379 1.8621 0.0000
0.1379 1.8966 0.0000
0.1379 1.9310 0.0000
0.1379 1.9655 0.0000
0.1379 2.0000 0.0000
0.2069 1.0000 0.0000
0.2069 1.0345 0.0000
0.2069 1.0690 0.0000
0.2069 1.1034 0.0000
0.2069 1.1379 0.0000
0.2069 1.1724 0.0000
0.2069 1.2069 0.0000
0.2069 1.2414 0.0000
0.2069 1.2759 0.0000
0.2069 1.3103 0.0000
0.2069 1.3448 0.0000
0.2069 1.3793 0.0000
0.2069 1.4138 0.0000
0.2069 1.4483 0.0000
0.2069 1.4828 0.0000
0.2069 1.5172 0.0000
0.2069 1.5517 0.0000
0.2069 1.5862 0.0000
0.2069 1.6207 0.0000
0.2069 1.6552 0.0000
0.2069 1.6897 0.0000
0.2069 1.7241 0.0000
0.2069 1.7586 0.0000
0.2069 1.7931 0.0000
0.2069 1.8276 0.0000
0.2069 1.8621 0.0000
0.2069 1.8966 0.0000
0.2069 1.9310 0.0000
0.2069 1.9655 0.0000
0.2069 2.0000 0.0000
0.2759 1.0000 0.0000
0.2759 1.0345 0.0000
0.2759 1.0690 0.0000
0.2759 1.1034 0.0000
0.2759 1.1379 0.0000
0.2759 1.1724 0.0000
0.2759 1.2069 0.0000
0.2759 1.2414 0.0000
0.2759 1.2759 0.0000
0.2759 1.3103 0.0000
0.2759 1.3448 0.0000
0.2759 1.3793 0.0000
0.2759 1.4138 0.0000
0.2759 1.4483 0.0000
0.2759 1.4828 0.0000
0.2759 1.5172 0.0000
0.2759 1.5517 0.0000
0.2759 1.5862 0.0000
0.2759 1.6207 0.0000
0.2759 1.6552 0.0000
0.2759 1.6897 0.0000
0.2759 1.7241 0.0000
0.2759 1.7586 0.0000
0.2759 1.7931 0.0000
0.2759 1.8276 0.0000
0.2759 1.8621 0.0000
0.2759 1.8966 0.0000
0.2759 1.9310 0.0000
0.2759 1.9655 0.0000
0.2759 2.0000 0.0000
0.3448 1.0000 0.0000
0.3448 1.0345 0.0000
0.3448 1.0690 0.0000
0.3448 1.1034 0.0000
0.3448 1.1379 0.0000
0.3448 1.1724 0.0000
0.3448 1.2069 0.0000
0.3448 1.2414 0.0000
0.3448 1.2759 0.0000
0.3448 1.3103 0.0000
0.3448 1.3448 0.0000
0.3448 1.3793 0.0000
0.3448 1.4138 0.0000
0.3448 1.4483 0.0000
0.3448 1.4828 0.0000
0.3448 1.5172 0.0000
0.3448 1.5517 0.0000
0.3448 1.5862 0.0000
0.3448 1.6207 0.0000
0.3448 1.6552 0.0000
0.3448 1.6897 0.0000
0.3448 1.7241 0.0000
0.3448 1.7586 0.0000
0.3448 1.7931 0.0000
0.3448 1.8276 0.0000
0.3448 1.8621 0.0000
0.3448 1.8966 0.0000
0.3448 1.9310 0.0000
0.3448 1.9655 0.0000
0.3448 2.0000 0.0000
0.4138 1.0000 0.0000
0.4138 1.0345 0.0000
0.4138 1.0690 0.0000
0.4138 1.1034 0.0000
0.4138 1.1379 0.0000
0.4138 1.1724 0.0000
0.4138 1.2069 0.0000
0.4138 1.2414 0.0000
0.4138 1.2759 0.0000
0.4138 1.3103 0.0000
0.4138 1.3448 0.0000
0.4138 1.3793 0.0000
0.4138 1.4138 0.0000
0.4138 1.4483 0.0000
0.4138 1.4828 0.0000
0.4138 1.5172 0.0000
0.4138 1.5517 0.0000
0.4138 1.5862 0.0000
0.4138 1.6207 0.0000
0.4138 1.6552 0.0000
0.4138 1.6897 0.0000
0.4138 1.7241 0.0000
0.4138 1.7586 0.0000
0.4138 1.7931 0.0000
0.4138 1.8276 0.0000
0.4138 1.8621 0.0000
0.4138 1.8966 0.0000
0.4138 1.9310 0.0000
0.4138 1.9655 0.0000
0.4138 2.0000 0.0000
0.4828 1.0000 0.0000
0.4828 1.0345 0.0000
0.4828 1.0690 0.0000
0.4828 1.1034 0.0000
0.4828 1.1379 0.0000
0.4828 1.1724 0.0000
0.4828 1.2069 0.0000
0.4828 1.2414 0.0000
0.4828 1.2759 0.0000
0.4828 1.3103 0.0000
0.4828 1.3448 0.0000
0.4828 1.3793 0.0000
0.4828 1.4138 0.0000
0.4828 1.4483 0.0000
0.4828 1.4828 0.0000
0.4828 1.5172 0.0000
0.4828 1.5517 0.0000
0.4828 1.5862 0.0000
0.4828 1.6207 0.0000
0.4828 1.6552 0.0000
0.4828 1.6897 0.0000
0.4828 1.7241 0.0000
0.4828 1.7586 0.0000
0.4828 1.7931 0.0000
0.4828 1.8276 0.0000
0.4828 1.8621 0.0000
0.4828 1.8966 0.0000
0.4828 1.9310 0.0000
0.4828 1.9655 0.0000
0.4828 2.0000 0.0000
0.5517 1.0000 0.0000
0.5517 1.0345 0.0000
0.5517 1.0690 0.0000
0.5517 1.1034 0.0000
0.5517 1.1379 0.0000
0.5517 1.1724 0.0000
0.5517 1.2069 0.0000
0.5517 1.2414 0.0000
0.5517 1.2759 0.0000
0.5517 1.3103 0.0000
0.5517 1.3448 0.0000
0.5517 1.3793 0.0000
0.5517 1.4138 0.0000
0.5517 1.4483 0.0000
0.5517 1.4828 0.0000
0.5517 1.5172 0.0000
0.5517 1.5517 0.0000
0.5517 1.5862 0.0000
0.5517 1.6207 0.0000
0.5517 1.6552 0.0000
0.5517 1.6897 0.0000
0.5517 1.7241 0.0000
0.5517 1.7586 0.0000
0.5517 1.7931 0.0000
0.5517 1.8276 0.0000
0.5517 1.8621 0.0000
0.5517 1.8966 0.0000
0.5517 1.9310 0.0000
0.5517 1.9655 0.0000
0.5517 2.0000 0.0000
0.6207 1.0000 0.0000
0.6207 1.0345 0.0000
0.6207 1.0690 0.0000
0.6207 1.1034 0.0000
0.6207 1.1379 0.0000
0.6207 1.1724 0.0000
0.6207 1.2069 0.0000
0.6207 1.2414 0.0000
0.6207 1.2759 0.0000
0.6207 1.3103 0.0000
0.6207 1.3448 0.0000
0.6207 1.3793 0.0000
0.6207 1.4138 0.0000
0.6207 1.4483 0.0000
0.6207 1.4828 0.0000
0.6207 1.5172 0.0000
0.6207 1.5517 0.0000
0.6207 1.5862 0.0000
0.6207 1.6207 0.0000
0.6207 1.6552 0.0000
0.6207 1.6897 0.0000
0.6207 1.7241 0.0000
0.6207 1.7586 0.0000
0.6207 1.7931 0.0000
0.6207 1.8276 0.0000
0.6207 1.8621 0.0000
0.6207 1.8966 0.0000
0.6207 1.9310 0.0000
0.6207 1.9655 0.0000
0.6207 2.0000 0.0000
0.6897 1.0000 0.0000
0.6897 1.0345 0.0000
0.6897 1.0690 0.0000
0.6897 1.1034 0.0000
0.6897 1.1379 0.0000
0.6897 1.1724 0.0000
0.6897 1.2069 0.0000
0.6897 1.2414 0.0000
0.6897 1.2759 0.0000
0.6897 1.3103 0.0000
0.6897 1.3448 0.0000
0.6897 1.3793 0.0000
0.6897 1.4138 0.0000
0.6897 1.4483 0.0000
0.6897 1.4828 0.0000
0.6897 1.5172 0.0000
0.6897 1.5517 0.0000
0.6897 1.5862 0.0000
0.6897 1.6207 0.0000
0.6897 1.6552 0.0000
0.6897 1.6897 0.0000
0.6897 1.7241 0.0000
0.6897 1.7586 0.0000
0.6897 1.7931 0.0000
0.6897 1.8276 0.0000
0.6897 1.8621 0.0000
0.6897 1.8966 0.0000
0.6897 1.9310 0.0000
0.6897 1.9655 0.0000
0.6897 2.0000 0.0000
0.7586 1.0000 0.0000
0.7586 1.0345 0.0000
0.7586 1.0690 0.0000
0.7586 1.1034 0.0000
0.7586 1.1379 0.0000
0.7586 1.1724 0.0000
0.7586 1.2069 0.0000
0.7586 1.2414 0.0000
0.7586 1.2759 0.0000
0.7586 1.3103 0.0000
0.7586 1.3448 0.0000
0.7586 1.3793 0.0000
0.7586 1.4138 0.0000
0.7586 1.4483 0.0000
0.7586 1.4828 0.0000
0.7586 1.5172 0.0000
0.7586 1.5517 0.0000
0.7586 1.5862 0.0000
0.7586 1.6207 0.0000
0.7586 1.6552 0.0000
0.7586 1.6897 0.0000
0.7586 1.7241 0.0000
0.7586 1.7586 0.0000
0.7586 1.7931 0.0000
0.7586 1.8276 0.0000
0.7586 1.8621 0.0000
0.7586 1.8966 0.0000
0.7586 1.9310 0.0000
0.7586 1.9655 0.0000
0.7586 2.0000 0.0000
0.8276 1.0000 0.0000
0.8276 1.0345 0.0000
0.8276 1.0690 0.0000
0.8276 1.1034 0.0000
0.8276 1.1379 0.0000
0.8276 1.1724 0.0000
0.8276 1.2069 0.0000
0.8276 1.2414 0.0000
0.8276 1.2759 0.0000
0.8276 1.3103 0.0000
0.8276 1.3448 0.0000
0.8276 1.3793 0.0000
0.8276 1.4138 0.0000
0.8276 1.4483 0.0000
0.8276 1.4828 0.0000
0.8276 1.5172 0.0000
0.8276 1.5517 0.0000
0.8276 1.5862 0.0000
0.8276 1.6207 0.0000
0.8276 1.6552 0.0000
0.8276 1.6897 0.0000
0.8276 1.7241 0.0000
0.8276 1.7586 0.0000
0.8276 1.7931 0.0000
0.8276 1.8276 0.0000
0.8276 1.8621 0.0000
0.8276 1.8966 0.0000
0.8276 1.9310 0.0000
0.8276 1.9655 0.0000
0.8276 2.0000 0.0000
0.8966 1.0000 0.0000
0.8966 1.0345 0.0000
0.8966 1.0690 0.0000
0.8966 1.1034 0.0000
0.8966 1.1379 0.0000
0.8966 1.1724 0.0000
0.8966 1.2069 0.0000
0.8966 1.2414 0.0000
0.8966 1.2759 0.0000
0.8966 1.3103 0.0000
0.8966 1.3448 0.0000
0.8966 1.3793 0.0000
0.8966 1.4138 0.0000
0.8966 1.4483 0.0000
0.8966 1.4828 0.0000
0.8966 1.5172 0.0000
0.8966 1.5517 0.0000
0.8966 1.5862 0.0000
0.8966 1.6207 0.0000
0.8966 1.6552 0.0000
0.8966 1.6897 0.0000
0.8966 1.7241 0.0000
0.8966 1.7586 0.0000
0.8966 1.7931 0.0000
0.8966 1.8276 0.0000
0.8966 1.8621 0.0000
0.8966 1.8966 0.0000
0.8966 1.9310 0.0000
0.8966 1.9655 0.0000
0.8966 2.0000 0.0000
0.9655 1.0000 0.0000
0.9655 1.0345 0.0000
0.9655 1.0690 0.0000
0.9655 1.1034 0.0000
0.9655 1.1379 0.0000
0.9655 1.1724 0.0000
0.9655 1.2069 0.0000
0.9655 1.2414 0.0000
0.9655 1.2759 0.0000
0.9655 1.3103 0.0000
0.9655 1.3448 0.0000
0.9655 1.3793 0.0000
0.9655 1.4138 0.0000
0.9655 1.4483 0.0000
0.9655 1.4828 0.0000
0.9655 1.5172 0.0000
0.9655 1.5517 0.0000
0.9655 1.5862 0.0000
0.9655 1.6207 0.0000
0.9655 1.6552 0.0000
0.9655 1.6897 0.0000
0.9655 1.7241 0.0000
0.9655 1.7586 0.0000
0.9655 1.7931 0.0000
0.9655 1.8276 0.0000
0.9655 1.8621 0.0000
0.9655 1.8966 0.0000
0.9655 1.9310 0.0000
0.9655 1.9655 0.0000
0.9655 2.0000 0.0000
1.0345 1.0000 0.0000
1.0345 1.0345 0.0000
1.0345 1.0690 0.0000
1.0345 1.1034 0.0000
1.0345 1.1379 0.0000
1.0345 1.1724 0.0000
1.0345 1.2069 0.0000
1.0345 1.2414 0.0000
1.0345 1.2759 0.0000
1.0345 1.3103 0.0000
1.0345 1.3448 0.0000
[...]
         <PointData>
            <DataArray Name="fValues" NumberOfComponents="3" format="ascii" type="Float64">
 4.00278e-22  3.39215e-24        00000 
-1.90898e-22 -7.18676e-22        00000 
       00000 -4.44176e-22        00000 
-8.26648e-23 -1.49564e-21        00000 
-5.55220e-23 -1.33253e-21        00000 
-8.04493e-23 -1.54826e-21        00000 
 6.66264e-23 -9.32769e-22        00000 
-7.08057e-23 -7.25497e-23        00000 
 1.33253e-22 -9.77187e-22        00000 
 1.60020e-22 -5.02857e-22        00000 
 2.22088e-23 -8.88352e-22        00000 
 1.77886e-22 -8.85943e-23        00000 
 6.66264e-23  1.11044e-22        00000 
 5.93651e-23  2.14472e-23        00000 
 1.11044e-22        00000        00000 
-3.90652e-23  1.13010e-22        00000 
 2.22088e-23  2.55401e-22        00000 
-4.87905e-23  2.46927e-23        00000 
-6.10742e-23  3.33132e-23        00000 
 2.65085e-23  5.07848e-22        00000 
-6.66264e-23        00000        00000 
-1.60118e-23  9.41497e-23        00000 
-1.66566e-23  1.72118e-22        00000 
-1.11615e-23  8.82455e-23        00000 
-7.63427e-24  4.09475e-23        00000 
-6.26547e-24  3.16993e-23        00000 
 6.94025e-25  5.89921e-24        00000 
-8.29937e-25  3.93128e-24        00000 
-4.37486e-25 -5.29358e-24        00000 
 1.02748e-24 -5.37673e-26        00000 
-4.07470e-06 -1.23654e-06        00000 
-4.76057e-07 -1.29651e-06        00000 
-5.93481e-07 -2.08729e-06        00000 
-7.21361e-07 -2.60123e-06        00000 
-6.95493e-07 -3.06376e-06        00000 
-4.69560e-07 -3.45440e-06        00000 
-6.32471e-08 -3.66432e-06        00000 
 4.60300e-07 -3.59609e-06        00000 
 9.99542e-07 -3.20292e-06        00000 
 1.43846e-06 -2.50804e-06        00000 
 1.67996e-06 -1.60414e-06        00000 
 1.67583e-06 -6.31156e-07        00000 
 1.44069e-06  2.60921e-07        00000 
 1.04405e-06  9.51281e-07        00000 
 5.84495e-07  1.37547e-06        00000 
 1.57629e-07  1.53237e-06        00000 
-1.69457e-07  1.47173e-06        00000 
-3.69120e-07  1.26997e-06        00000 
-4.49201e-07  1.00513e-06        00000 
-4.39664e-07  7.38899e-07        00000 
-3.77366e-07  5.09164e-07        00000 
-2.94567e-07  3.31449e-07        00000 
-2.13387e-07  2.05373e-07        00000 
-1.45377e-07  1.22118e-07        00000 
-9.40258e-08  7.03667e-08        00000 
-5.80363e-08  3.98285e-08        00000 
-3.40559e-08  2.26202e-08        00000 
-1.86079e-08  1.29397e-08        00000 
-9.20172e-09  5.69291e-09        00000 
-2.71308e-08  5.03694e-09        00000 
 4.79395e-06  2.79533e-06        00000 
 1.14760e-06  3.27253e-06        00000 
 7.62394e-07  4.21967e-06        00000 
 9.90251e-07  5.27684e-06        00000 
 9.85373e-07  6.32530e-06        00000 
 6.96474e-07  7.21723e-06        00000 
 1.46629e-07  7.71662e-06        00000 
-5.76596e-07  7.60885e-06        00000 
-1.32948e-06  6.78575e-06        00000 
-1.94436e-06  5.29507e-06        00000 
-2.27949e-06  3.34229e-06        00000 
-2.26508e-06  1.24079e-06        00000 
-1.92472e-06 -6.74164e-07        00000 
-1.36263e-06 -2.13570e-06        00000 
-7.23464e-07 -3.00692e-06        00000 
-1.43569e-07 -3.29466e-06        00000 
 2.86129e-07 -3.11791e-06        00000 
 5.33794e-07 -2.65085e-06        00000 
 6.17816e-07 -2.06566e-06        00000 
 5.85194e-07 -1.49379e-06        00000 
 4.88973e-07 -1.01174e-06        00000 
 3.72726e-07 -6.46954e-07        00000 
 2.64289e-07 -3.93673e-07        00000 
 1.76661e-07 -2.29946e-07        00000 
 1.12395e-07 -1.30267e-07        00000 
 6.84115e-08 -7.25658e-08        00000 
 3.96323e-08 -4.05383e-08        00000 
 2.11864e-08 -2.31946e-08        00000 
 1.38030e-08 -1.43280e-08        00000 
 2.98569e-08 -1.10869e-08        00000 
-5.21572e-06 -4.31470e-06        00000 
-1.44322e-06 -5.19745e-06        00000 
-1.03545e-06 -6.54415e-06        00000 
-1.30070e-06 -8.19450e-06        00000 
-1.33196e-06 -9.95358e-06        00000 
-9.93150e-07 -1.14861e-05        00000 
-2.98847e-07 -1.23811e-05        00000 
 6.43443e-07 -1.22701e-05        00000 
 1.64075e-06 -1.09600e-05        00000 
 2.45980e-06 -8.52367e-06        00000 
 2.90034e-06 -5.30817e-06        00000 
 2.86475e-06 -1.84910e-06        00000 
 2.39057e-06  1.28133e-06        00000 
 1.63016e-06  3.63396e-06        00000 
 7.88854e-07  4.98912e-06        00000 
 5.23282e-08  5.37587e-06        00000 
-4.65086e-07  5.01113e-06        00000 
-7.34830e-07  4.19668e-06        00000 
-7.95536e-07  3.22025e-06        00000 
-7.18674e-07  2.29262e-06        00000 
-5.76618e-07  1.52892e-06        00000 
-4.23543e-07  9.63262e-07        00000 
-2.90239e-07  5.78259e-07        00000 
-1.88106e-07  3.33874e-07        00000 
-1.16494e-07  1.87439e-07        00000 
-6.93278e-08  1.03741e-07        00000 
-3.94301e-08  5.77407e-08        00000 
-2.10758e-08  3.35146e-08        00000 
-1.40892e-08  2.19705e-08        00000 
-2.88913e-08  1.64966e-08        00000 
 5.63790e-06  5.88324e-06        00000 
 1.72542e-06  7.15784e-06        00000 
 1.39668e-06  9.06186e-06        00000 
 1.77280e-06  1.14878e-05        00000 
 1.85591e-06  1.41669e-05        00000 
 1.45622e-06  1.65705e-05        00000 
 5.58997e-07  1.80463e-05        00000 
-7.06342e-07  1.80030e-05        00000 
-2.07361e-06  1.61165e-05        00000 
-3.20503e-06  1.24828e-05        00000 
-3.80484e-06  7.64054e-06        00000 
-3.73025e-06  2.43436e-06        00000 
-3.04317e-06 -2.23495e-06        00000 
-1.97626e-06 -5.67307e-06        00000 
-8.33063e-07 -7.56209e-06        00000 
 1.25025e-07 -7.98193e-06        00000 
 7.52924e-07 -7.29990e-06        00000 
 1.03434e-06 -5.99744e-06        00000 
 1.04445e-06 -4.51301e-06        00000 
 8.93940e-07 -3.15052e-06        00000 
 6.83130e-07 -2.06124e-06        00000 
 4.79174e-07 -1.27572e-06        00000 
 3.14338e-07 -7.54042e-07        00000 
 1.95679e-07 -4.30052e-07        00000 
 1.16946e-07 -2.39430e-07        00000 
 6.75689e-08 -1.31967e-07        00000 
 3.76063e-08 -7.34963e-08        00000 
 1.98959e-08 -4.30511e-08        00000 
 1.32572e-08 -2.87376e-08        00000 
 2.66182e-08 -2.15635e-08        00000 
-6.10984e-06 -7.49248e-06        00000 
-2.06521e-06 -9.19899e-06        00000 
-1.88975e-06 -1.18141e-05        00000 
-2.45565e-06 -1.52704e-05        00000 
-2.63973e-06 -1.92007e-05        00000 
-2.17197e-06 -2.28367e-05        00000 
-9.88937e-07 -2.51933e-05        00000 
 7.57650e-07 -2.53461e-05        00000 
 2.69165e-06 -2.27590e-05        00000 
 4.30745e-06 -1.75427e-05        00000 
 5.15193e-06 -1.05066e-05        00000 
 5.00791e-06 -2.94718e-06        00000 
 3.97995e-06  3.75551e-06        00000 
 2.43541e-06  8.56191e-06        00000 
 8.37524e-07  1.10369e-05        00000 
-4.36154e-07  1.13650e-05        00000 
-1.20210e-06  1.01529e-05        00000 
-1.47421e-06  8.14453e-06        00000 
-1.39121e-06  5.98052e-06        00000 
-1.12500e-06  4.07367e-06        00000 
-8.14827e-07  2.60262e-06        00000 
-5.42418e-07  1.57610e-06        00000 
-3.38214e-07  9.14580e-07        00000 
-2.00720e-07  5.14447e-07        00000 
-1.14946e-07  2.84018e-07        00000 
-6.41069e-08  1.56098e-07        00000 
-3.47656e-08  8.71487e-08        00000 
-1.81110e-08  5.14408e-08        00000 
-1.19380e-08  3.46829e-08        00000 
-2.36893e-08  2.61189e-08        00000 
 6.59891e-06  9.11683e-06        00000 
 2.48301e-06  1.13192e-05        00000 
 2.55106e-06  1.48261e-05        00000 
 3.41279e-06  1.96527e-05        00000 
 3.78309e-06  2.53128e-05        00000 
 3.26102e-06  3.07265e-05        00000 
 1.69002e-06  3.44374e-05        00000 
-7.62810e-07  3.50128e-05        00000 
-3.55859e-06  3.15667e-05        00000 
-5.92250e-06  2.41999e-05        00000 
-7.14135e-06  1.41149e-05        00000 
-6.87507e-06  3.29009e-06        00000 
-5.30300e-06 -6.17379e-06        00000 
-3.01917e-06 -1.27374e-05        00000 
-7.45758e-07 -1.58308e-05        00000 
 9.64722e-07 -1.58410e-05        00000 
 1.88757e-06 -1.37614e-05        00000 
 2.10286e-06 -1.07255e-05        00000 
 1.85754e-06 -7.64509e-06        00000 
 1.41587e-06 -5.05449e-06        00000 
 9.67963e-07 -3.13814e-06        00000 
 6.08246e-07 -1.85211e-06        00000 
 3.58253e-07 -1.05236e-06        00000 
 2.01360e-07 -5.83262e-07        00000 
 1.09801e-07 -3.19521e-07        00000 
 5.88086e-08 -1.75421e-07        00000 
 3.09628e-08 -9.83598e-08        00000 
 1.58362e-08 -5.85200e-08        00000 
 1.03117e-08 -3.97782e-08        00000 
 2.02950e-08 -3.00708e-08        00000 
-7.03849e-06 -1.07055e-05        00000 
-2.97946e-06 -1.34767e-05        00000 
-3.41451e-06 -1.80885e-05        00000 
-4.72339e-06 -2.47258e-05        00000 
-5.42470e-06 -3.27830e-05        00000 
-4.90479e-06 -4.07805e-05        00000 
-2.82859e-06 -4.65866e-05        00000 
 6.50423e-07 -4.79807e-05        00000 
 4.75654e-06 -4.34897e-05        00000 
 8.28082e-06 -3.31466e-05        00000 
 1.00752e-05 -1.87339e-05        00000 
 9.59373e-06 -3.28149e-06        00000 
 7.14876e-06  1.00004e-05        00000 
 3.71997e-06  1.88367e-05        00000 
 4.51336e-07  2.25172e-05        00000 
-1.84545e-06  2.18109e-05        00000 
-2.91726e-06  1.83387e-05        00000 
-2.98046e-06  1.38132e-05        00000 
-2.46276e-06  9.50400e-06        00000 
-1.76314e-06  6.06504e-06        00000 
-1.13201e-06  3.64130e-06        00000 
-6.67400e-07  2.08685e-06        00000 
-3.68806e-07  1.15900e-06        00000 
-1.94935e-07  6.33126e-07        00000 
-1.00553e-07  3.44838e-07        00000 
-5.14542e-08  1.89624e-07        00000 
-2.62168e-08  1.07016e-07        00000 
-1.31430e-08  6.42218e-08        00000 
-8.45511e-09  4.39803e-08        00000 
-1.65367e-08  3.33608e-08        00000 
 7.33549e-06  1.21765e-05        00000 
 3.53881e-06  1.55854e-05        00000 
 4.50413e-06  2.15370e-05        00000 
 6.47798e-06  3.05339e-05        00000 
 7.75363e-06  4.18958e-05        00000 
 7.37744e-06  5.36557e-05        00000 
 4.67868e-06  6.27149e-05        00000 
-2.81637e-07  6.56178e-05        00000 
-6.39201e-06  5.98929e-05        00000 
-1.17364e-05  4.53761e-05        00000 
-1.44263e-05  2.47152e-05        00000 
-1.35643e-05  2.59423e-06        00000 
-9.70322e-06 -1.60359e-05        00000 
-4.49044e-06 -2.78034e-05        00000 
 2.36751e-07 -3.18919e-05        00000 
 3.29080e-06 -2.97786e-05        00000 
 4.44230e-06 -2.41074e-05        00000 
 4.17679e-06 -1.74446e-05        00000 
 3.21781e-06 -1.15132e-05        00000 
 2.15147e-06 -7.04927e-06        00000 
 1.28814e-06 -4.07240e-06        00000 
 7.06792e-07 -2.25963e-06        00000 
 3.63166e-07 -1.22624e-06        00000 
 1.78829e-07 -6.61681e-07        00000 
 8.64982e-08 -3.59639e-07        00000 
 4.19985e-08 -1.98793e-07        00000 
 2.06230e-08 -1.13175e-07        00000 
 1.01158e-08 -6.85372e-08        00000 
 6.42787e-09 -4.72520e-08        00000 
 1.24991e-08 -3.59445e-08        00000 
-7.37297e-06 -1.34152e-05        00000 
-4.12163e-06 -1.75078e-05        00000 
-5.81820e-06 -2.50269e-05        00000 
-8.76445e-06 -3.70285e-05        00000 
-1.10166e-05 -5.28975e-05        00000 
-1.10898e-05 -7.01276e-05        00000 
-7.69433e-06 -8.42528e-05        00000 
-6.10916e-07 -8.98671e-05        00000 
 8.59462e-06 -8.27789e-05        00000 
 1.68409e-05 -6.23489e-05        00000 
 2.09501e-05 -3.25264e-05        00000 
 1.94079e-05 -6.48037e-07        00000 
 1.32133e-05  2.55512e-05        00000 
 5.19515e-06  4.10494e-05        00000 
-1.65711e-06  4.50573e-05        00000 
-5.63082e-06  4.03586e-05        00000 
-6.66507e-06  3.12645e-05        00000 
-5.76077e-06  2.15828e-05        00000 
-4.11223e-06  1.35646e-05        00000 
-2.54613e-06  7.91584e-06        00000 
-1.40717e-06  4.37931e-06        00000 
-7.10055e-07  2.34862e-06        00000 
-3.34606e-07  1.24786e-06        00000 
-1.51161e-07  6.68367e-07        00000 
-6.74901e-08  3.64538e-07        00000 
-3.06662e-08  2.03388e-07        00000 
-1.43701e-08  1.17010e-07        00000 
-6.85767e-09  7.14858e-08        00000 
-4.28672e-09  4.95626e-08        00000 
-8.26140e-09  3.77842e-08        00000 
 7.01809e-06  1.42810e-05        00000 
 4.65325e-06  1.90518e-05        00000 
 7.30207e-06  2.83013e-05        00000 
 1.16367e-05  4.39969e-05        00000 
 1.55130e-05  6.59071e-05        00000 
 1.66475e-05  9.10542e-05        00000 
 1.26316e-05  1.13092e-04        00000 
 2.54260e-06  1.23522e-04        00000 
-1.14991e-05  1.15148e-04        00000 
-2.44684e-05  8.62661e-05        00000 
-3.08806e-05  4.27961e-05        00000 
-2.81034e-05 -3.58277e-06        00000 
-1.79884e-05 -4.05900e-05        00000 
-5.51001e-06 -6.07018e-05        00000 
 4.40563e-06 -6.35250e-05        00000 
 9.36747e-06 -5.42515e-05        00000 
 9.83674e-06 -3.99089e-05        00000 
 7.77451e-06 -2.60568e-05        00000 
 5.09269e-06 -1.54595e-05        00000 
 2.88394e-06 -8.53503e-06        00000 
 1.44891e-06 -4.50291e-06        00000 
 6.59524e-07 -2.33581e-06        00000 
 2.78003e-07 -1.22207e-06        00000 
 1.11530e-07 -6.55090e-07        00000 
 4.41455e-08 -3.61091e-07        00000 
 1.79592e-08 -2.04113e-07        00000 
 7.71492e-09 -1.18729e-07        00000 
 3.47662e-09 -7.30864e-08        00000 
 2.08320e-09 -5.08837e-08        00000 
 3.89820e-09 -3.88483e-08        00000 
-6.14146e-06 -1.46275e-05        00000 
-5.01225e-06 -1.99804e-05        00000 
-8.80868e-06 -3.09619e-05        00000 
-1.50524e-05 -5.09593e-05        00000 
-2.15570e-05 -8.07515e-05        00000 
-2.49174e-05 -1.17258e-04        00000 
-2.07525e-05 -1.51684e-04        00000 
-6.51376e-06 -1.70634e-04        00000 
 1.51805e-05 -1.61592e-04        00000 
 3.60319e-05 -1.20535e-04        00000 
 4.62928e-05 -5.63781e-05        00000 
 4.12240e-05  1.19216e-05        00000 
 2.43660e-05  6.44881e-05        00000 
 4.71357e-06  8.99836e-05        00000 
-9.52283e-06  8.93200e-05        00000 
-1.52374e-05  7.21494e-05        00000 
-1.42248e-05  4.99008e-05        00000 
-1.01803e-05  3.04746e-05        00000 
-6.03207e-06  1.68841e-05        00000 
-3.06632e-06  8.74638e-06        00000 
-1.36560e-06  4.38950e-06        00000 
-5.40430e-07  2.21428e-06        00000 
-1.91990e-07  1.15387e-06        00000 
-6.16252e-08  6.26383e-07        00000 
-1.78618e-08  3.51484e-07        00000 
-4.57129e-09  2.01700e-07        00000 
-9.29430e-10  1.18487e-07        00000 
-6.69843e-11  7.33366e-08        00000 
 1.40207e-10  5.11896e-08        00000 
 5.19616e-10  3.91136e-08        00000 
 4.65175e-06  1.43398e-05        00000 
 5.02742e-06  2.00448e-05        00000 
 1.00521e-05  3.24596e-05        00000 
 1.87647e-05  5.70380e-05        00000 
 2.93608e-05  9.66819e-05        00000 
 3.70669e-05  1.49229e-04        00000 
 3.41553e-05  2.03067e-04        00000 
 1.44874e-05  2.37124e-04        00000 
-1.94603e-05  2.29308e-04        00000 
-5.38651e-05  1.70598e-04        00000 
-7.07976e-05  7.44443e-05        00000 
-6.13515e-05 -2.76564e-05        00000 
-3.25669e-05 -1.02789e-04        00000 
-1.25247e-06 -1.33791e-04        00000 
 1.88016e-05 -1.25031e-04        00000 
 2.42515e-05 -9.44851e-05        00000 
 2.00092e-05 -6.06172e-05        00000 
 1.27658e-05 -3.41149e-05        00000 
 6.69421e-06 -1.74060e-05        00000 
 2.96170e-06 -8.38727e-06        00000 
 1.11254e-06 -4.01194e-06        00000 
 3.47391e-07 -1.99603e-06        00000 
 8.10129e-08 -1.05598e-06        00000 
 5.36150e-09 -5.88616e-07        00000 
-9.43381e-09 -3.37903e-07        00000 
-8.77741e-09 -1.96658e-07        00000 
-5.76010e-09 -1.16329e-07        00000 
-3.30359e-09 -7.22106e-08        00000 
-2.35032e-09 -5.04633e-08        00000 
-4.92168e-09 -3.85711e-08        00000 
-2.54367e-06 -1.33882e-05        00000 
-4.49833e-06 -1.90533e-05        00000 
-1.05766e-05 -3.21427e-05        00000 
-2.21596e-05 -6.08388e-05        00000 
-3.87624e-05 -1.11928e-04        00000 
-5.44708e-05 -1.86489e-04        00000 
-5.62635e-05 -2.70649e-04        00000 
-3.03613e-05 -3.31650e-04        00000 
 2.33564e-05 -3.29904e-04        00000 
 8.18991e-05 -2.45477e-04        00000 
 1.10935e-04 -9.86217e-05        00000 
 9.28058e-05  5.68567e-05        00000 
 4.22236e-05  1.64914e-04        00000 
-8.16471e-06  1.99544e-04        00000 
-3.52487e-05  1.73644e-04        00000 
-3.76095e-05  1.20866e-04        00000 
-2.70331e-05  7.05632e-05        00000 
-1.50020e-05  3.58355e-05        00000 
-6.71464e-06  1.65271e-05        00000 
-2.43013e-06  7.35271e-06        00000 
-6.67848e-07  3.39626e-06        00000 
-9.15138e-08  1.71663e-06        00000 
 4.39565e-08  9.46903e-07        00000 
 5.18431e-08  5.48112e-07        00000 
 3.57972e-08  3.21759e-07        00000 
 2.15308e-08  1.89089e-07        00000 
 1.22133e-08  1.12188e-07        00000 
 6.59383e-09  6.96794e-08        00000 
 4.51903e-09  4.87065e-08        00000 
 9.23477e-09  3.72302e-08        00000 
-5.57488e-08  1.18809e-05        00000 
 3.25798e-06  1.69775e-05        00000 
 9.79288e-06  2.94207e-05        00000 
 2.40747e-05  6.04549e-05        00000 
 4.86815e-05  1.23104e-04        00000 
 7.82056e-05  2.26299e-04        00000 
 9.23886e-05  3.57277e-04        00000 
 6.19303e-05  4.66745e-04        00000 
-2.35397e-05  4.82734e-04        00000 
-1.26806e-04  3.60889e-04        00000 
-1.79047e-04  1.31201e-04        00000 
-1.42870e-04 -1.11143e-04        00000 
-5.09635e-05 -2.67333e-04        00000 
 3.04263e-05 -2.98320e-04        00000 
 6.36142e-05 -2.37725e-04        00000 
 5.62227e-05 -1.48914e-04        00000 
 3.43048e-05 -7.68584e-05        00000 
 1.58914e-05 -3.41041e-05        00000 
 5.64433e-06 -1.38450e-05        00000 
 1.38338e-06 -5.68641e-06        00000 
 5.76070e-08 -2.64224e-06        00000 
-1.96169e-07 -1.43065e-06        00000 
-1.67467e-07 -8.45090e-07        00000 
-1.04674e-07 -5.08665e-07        00000 
-5.98614e-08 -3.03130e-07        00000 
-3.34162e-08 -1.78709e-07        00000 
-1.83715e-08 -1.05954e-07        00000 
-9.77439e-09 -6.57436e-08        00000 
-6.61638e-09 -4.59489e-08        00000 
-1.33813e-08 -3.51208e-08        00000 
 2.87557e-06 -1.00784e-05        00000 
-1.28235e-06 -1.40642e-05        00000 
-7.16293e-06 -2.40965e-05        00000 
-2.27598e-05 -5.38357e-05        00000 
-5.62542e-05 -1.24699e-04        00000 
-1.07518e-04 -2.61339e-04        00000 
-1.49762e-04 -4.62465e-04        00000 
-1.24650e-04 -6.59792e-04        00000 
 9.98923e-06 -7.21465e-04        00000 
 1.99515e-04 -5.46121e-04        00000 
 2.99184e-04 -1.75468e-04        00000 
 2.23406e-04  2.14065e-04        00000 
 5.02624e-05  4.39905e-04        00000 
-7.96194e-05  4.45900e-04        00000 
-1.10397e-04  3.16863e-04        00000 
-7.92569e-05  1.72147e-04        00000 
-3.92130e-05  7.48300e-05        00000 
-1.39630e-05  2.73788e-05        00000 
-3.12934e-06  9.36352e-06        00000 
 1.23132e-07  3.66970e-06        00000 
 6.28611e-07  1.91487e-06        00000 
 4.70570e-07  1.19331e-06        00000 
 2.74767e-07  7.60792e-07        00000 
 1.49807e-07  4.69760e-07        00000 
 8.11856e-08  2.80855e-07        00000 
 4.44157e-08  1.65084e-07        00000 
 2.42092e-08  9.75854e-08        00000 
 1.28073e-08  6.04597e-08        00000 
 8.60514e-09  4.22494e-08        00000 
 1.72812e-08  3.22909e-08        00000 
-5.56040e-06  8.32406e-06        00000 
-1.20342e-06  1.08651e-05        00000 
 2.58452e-06  1.68146e-05        00000 
 1.63453e-05  3.98711e-05        00000 
 5.60175e-05  1.09492e-04        00000 
 1.36251e-04  2.76236e-04        00000 
 2.34767e-04  5.75201e-04        00000 
 2.47746e-04  9.31762e-04        00000 
 4.62391e-05  1.10772e-03        00000 
-3.14805e-04  8.61467e-04        00000 
-5.17788e-04  2.36268e-04        00000 
-3.50415e-04 -4.17759e-04        00000 
-1.34969e-05 -7.39255e-04        00000 
 1.82886e-04 -6.61701e-04        00000 
 1.81098e-04 -4.00910e-04        00000 
 1.00737e-04 -1.76847e-04        00000 
 3.68495e-05 -5.85388e-05        00000 