<?xml version="1.0" encoding="utf-8"?>
<VTKFile byte_order="LittleEndian" type="UnstructuredGrid" version="0.1">
   <UnstructuredGrid>
      <Piece NumberOfCells="3364" NumberOfPoints="1741">
         <Points>
            <DataArray Name="Points" NumberOfComponents="3" format="ascii" type="Float32">
0.0000 1.0000 0.0000
0.0000 1.0345 0.0000
0.0000 1.0690 0.0000
0.0000 1.1034 0.0000
0.0000 1.1379 0.0000
0.0000 1.1724 0.0000
0.0000 1.2069 0.0000
0.0000 1.2414 0.0000
0.0000 1.2759 0.0000
0.0000 1.3103 0.0000
0.0000 1.3448 0.0000
0.0000 1.3793 0.0000
0.0000 1.4138 0.0000
0.0000 1.4483 0.0000
0.0000 1.4828 0.0000
0.0000 1.5172 0.0000
0.0000 1.5517 0.0000
0.0000 1.5862 0.0000
0.0000 1.6207 0.0000
0.0000 1.6552 0.0000
0.0000 1.6897 0.0000
0.0000 1.7241 0.0000
0.0000 1.7586 0.0000
0.0000 1.7931 0.0000
0.0000 1.8276 0.0000
0.0000 1.8621 0.0000
0.0000 1.8966 0.0000
0.0000 1.9310 0.0000
0.0000 1.9655 0.0000
0.0000 2.0000 0.0000
0.0690 1.0000 0.0000
0.0690 1.0345 0.0000
0.0690 1.0690 0.0000
0.0690 1.1034 0.0000
0.0690 1.1379 0.0000
0.0690 1.1724 0.0000
0.0690 1.2069 0.0000
0.0690 1.2414 0.0000
0.0690 1.2759 0.0000
0.0690 1.3103 0.0000
0.0690 1.3448 0.0000
0.0690 1.3793 0.0000
0.0690 1.4138 0.0000
0.0690 1.4483 0.0000
0.0690 1.4828 0.0000
0.0690 1.5172 0.0000
0.0690 1.5517 0.0000
0.0690 1.5862 0.0000
0.0690 1.6207 0.0000
0.0690 1.6552 0.0000
0.0690 1.6897 0.0000
0.0690 1.7241 0.0000
0.0690 1.7586 0.0000
0.0690 1.7931 0.0000
0.0690 1.8276 0.0000
0.0690 1.8621 0.0000
0.0690 1.8966 0.0000
0.0690 1.9310 0.0000
0.0690 1.9655 0.0000
0.0690 2.0000 0.0000
0.1379 1.0000 0.0000
0.1379 1.0345 0.0000
0.1379 1.0690 0.0000
0.1379 1.1034 0.0000
0.1379 1.1379 0.0000
0.1379 1.1724 0.0000
0.1379 1.2069 0.0000
0.1379 1.2414 0.0000
0.1379 1.2759 0.0000
0.1379 1.3103 0.0000
0.1379 1.3448 0.0000
0.1379 1.3793 0.0000
0.1379 1.4138 0.0000
0.1379 1.4483 0.0000
0.1379 1.4828 0.0000
0.1379 1.5172 0.0000
0.1379 1.5517 0.0000
0.1379 1.5862 0.0000
0.1379 1.6207 0.0000
0.1379 1.6552 0.0000
0.1379 1.6897 0.0000
0.1379 1.7241 0.0000
0.1379 1.7586 0.0000
0.1379 1.7931 0.0000
0.1379 1.8276 0.0000
0.1379 1.8621 0.0000
0.1379 1.8966 0.0000
0.1379 1.9310 0.0000
0.1379 1.9655 0.0000
0.1379 2.0000 0.0000
0.2069 1.0000 0.0000
0.2069 1.0345 0.0000
0.2069 1.0690 0.0000
0.2069 1.1034 0.0000
0.2069 1.1379 0.0000
0.2069 1.1724 0.0000
0.2069 1.2069 0.0000
0.2069 1.2414 0.0000
0.2069 1.2759 0.0000
0.2069 1.3103 0.0000
0.2069 1.3448 0.0000
0.2069 1.3793 0.0000
0.2069 1.4138 0.0000
0.2069 1.4483 0.0000
0.2069 1.4828 0.0000
0.2069 1.5172 0.0000
0.2069 1.5517 0.0000
0.2069 1.5862 0.0000
0.2069 1.6207 0.0000
0.2069 1.6552 0.0000
0.2069 1.6897 0.0000
0.2069 1.7241 0.0000
0.2069 1.7586 0.0000
0.2069 1.7931 0.0000
0.2069 1.8276 0.0000
0.2069 1.8621 0.0000
0.2069 1.8966 0.0000
0.2069 1.9310 0.0000
0.2069 1.9655 0.0000
0.2069 2.0000 0.0000
0.2759 1.0000 0.0000
0.2759 1.0345 0.0000
0.2759 1.0690 0.0000
0.2759 1.1034 0.0000
0.2759 1.1379 0.0000
0.2759 1.1724 0.0000
0.2759 1.2069 0.0000
0.2759 1.2414 0.0000
0.2759 1.2759 0.0000
0.2759 1.3103 0.0000
0.2759 1.3448 0.0000
0.2759 1.3793 0.0000
0.2759 1.4138 0.0000
0.2759 1.4483 0.0000
0.2759 1.4828 0.0000
0.2759 1.5172 0.0000
0.2759 1.5517 0.0000
0.2759 1.5862 0.0000
0.2759 1.6207 0.0000
0.2759 1.6552 0.0000
0.2759 1.6897 0.0000
0.2759 1.7241 0.0000
0.2759 1.7586 0.0000
0.2759 1.7931 0.0000
0.2759 1.8276 0.0000
0.2759 1.8621 0.0000
0.2759 1.8966 0.0000
0.2759 1.9310 0.0000
0.2759 1.9655 0.0000
0.2759 2.0000 0.0000
0.3448 1.0000 0.0000
0.3448 1.0345 0.0000
0.3448 1.0690 0.0000
0.3448 1.1034 0.0000
0.3448 1.1379 0.0000
0.3448 1.1724 0.0000
0.3448 1.2069 0.0000
0.3448 1.2414 0.0000
0.3448 1.2759 0.0000
0.3448 1.3103 0.0000
0.3448 1.3448 0.0000
0.3448 1.3793 0.0000
0.3448 1.4138 0.0000
0.3448 1.4483 0.0000
0.3448 1.4828 0.0000
0.3448 1.5172 0.0000
0.3448 1.5517 0.0000
0.3448 1.5862 0.0000
0.3448 1.6207 0.0000
0.3448 1.6552 0.0000
0.3448 1.6897 0.0000
0.3448 1.7241 0.0000
0.3448 1.7586 0.0000
0.3448 1.7931 0.0000
0.3448 1.8276 0.0000
0.3448 1.8621 0.0000
0.3448 1.8966 0.0000
0.3448 1.9310 0.0000
0.3448 1.9655 0.0000
0.3448 2.0000 0.0000
0.4138 1.0000 0.0000
0.4138 1.0345 0.0000
0.4138 1.0690 0.0000
0.4138 1.1034 0.0000
0.4138 1.1379 0.0000
0.4138 1.1724 0.0000
0.4138 1.2069 0.0000
0.4138 1.2414 0.0000
0.4138 1.2759 0.0000
0.4138 1.3103 0.0000
0.4138 1.3448 0.0000
0.4138 1.3793 0.0000
0.4138 1.4138 0.0000
0.4138 1.4483 0.0000
0.4138 1.4828 0.0000
0.4138 1.5172 0.0000
0.4138 1.5517 0.0000
0.4138 1.5862 0.0000
0.4138 1.6207 0.0000
0.4138 1.6552 0.0000
0.4138 1.6897 0.0000
0.4138 1.7241 0.0000
0.4138 1.7586 0.0000
0.4138 1.7931 0.0000
0.4138 1.8276 0.0000
0.4138 1.8621 0.0000
0.4138 1.8966 0.0000
0.4138 1.9310 0.0000
0.4138 1.9655 0.0000
0.4138 2.0000 0.0000
0.4828 1.0000 0.0000
0.4828 1.0345 0.0000
0.4828 1.0690 0.0000
0.4828 1.1034 0.0000
0.4828 1.1379 0.0000
0.4828 1.1724 0.0000
0.4828 1.2069 0.0000
0.4828 1.2414 0.0000
0.4828 1.2759 0.0000
0.4828 1.3103 0.0000
0.4828 1.3448 0.0000
0.4828 1.3793 0.0000
0.4828 1.4138 0.0000
0.4828 1.4483 0.0000
0.4828 1.4828 0.0000
0.4828 1.5172 0.0000
0.4828 1.5517 0.0000
0.4828 1.5862 0.0000
0.4828 1.6207 0.0000
0.4828 1.6552 0.0000
0.4828 1.6897 0.0000
0.4828 1.7241 0.0000
0.4828 1.7586 0.0000
0.4828 1.7931 0.0000
0.4828 1.8276 0.0000
0.4828 1.8621 0.0000
0.4828 1.8966 0.0000
0.4828 1.9310 0.0000
0.4828 1.9655 0.0000
0.4828 2.0000 0.0000
0.5517 1.0000 0.0000
0.5517 1.0345 0.0000
0.5517 1.0690 0.0000
0.5517 1.1034 0.0000
0.5517 1.1379 0.0000
0.5517 1.1724 0.0000
0.5517 1.2069 0.0000
0.5517 1.2414 0.0000
0.5517 1.2759 0.0000
0.5517 1.3103 0.0000
0.5517 1.3448 0.0000
0.5517 1.3793 0.0000
0.5517 1.4138 0.0000
0.5517 1.4483 0.0000
0.5517 1.4828 0.0000
0.5517 1.5172 0.0000
0.5517 1.5517 0.0000
0.5517 1.5862 0.0000
0.5517 1.6207 0.0000
0.5517 1.6552 0.0000
0.5517 1.6897 0.0000
0.5517 1.7241 0.0000
0.5517 1.7586 0.0000
0.5517 1.7931 0.0000
0.5517 1.8276 0.0000
0.5517 1.8621 0.0000
0.5517 1.8966 0.0000
0.5517 1.9310 0.0000
0.5517 1.9655 0.0000
0.5517 2.0000 0.0000
0.6207 1.0000 0.0000
0.6207 1.0345 0.0000
0.6207 1.0690 0.0000
0.6207 1.1034 0.0000
0.6207 1.1379 0.0000
0.6207 1.1724 0.0000
0.6207 1.2069 0.0000
0.6207 1.2414 0.0000
0.6207 1.2759 0.0000
0.6207 1.3103 0.0000
0.6207 1.3448 0.0000
0.6207 1.3793 0.0000
0.6207 1.4138 0.0000
0.6207 1.4483 0.0000
0.6207 1.4828 0.0000
0.6207 1.5172 0.0000
0.6207 1.5517 0.0000
0.6207 1.5862 0.0000
0.6207 1.6207 0.0000
0.6207 1.6552 0.0000
0.6207 1.6897 0.0000
0.6207 1.7241 0.0000
0.6207 1.7586 0.0000
0.6207 1.7931 0.0000
0.6207 1.8276 0.0000
0.6207 1.8621 0.0000
0.6207 1.8966 0.0000
0.6207 1.9310 0.0000
0.6207 1.9655 0.0000
0.6207 2.0000 0.0000
0.6897 1.0000 0.0000
0.6897 1.0345 0.0000
0.6897 1.0690 0.0000
0.6897 1.1034 0.0000
0.6897 1.1379 0.0000
0.6897 1.1724 0.0000
0.6897 1.2069 0.0000
0.6897 1.2414 0.0000
0.6897 1.2759 0.0000
0.6897 1.3103 0.0000
0.6897 1.3448 0.0000
0.6897 1.3793 0.0000
0.6897 1.4138 0.0000
0.6897 1.4483 0.0000
0.6897 1.4828 0.0000
0.6897 1.5172 0.0000
0.6897 1.5517 0.0000
0.6897 1.5862 0.0000
0.6897 1.6207 0.0000
0.6897 1.6552 0.0000
0.6897 1.6897 0.0000
0.6897 1.7241 0.0000
0.6897 1.7586 0.0000
0.6897 1.7931 0.0000
0.6897 1.8276 0.0000
0.6897 1.8621 0.0000
0.6897 1.8966 0.0000
0.6897 1.9310 0.0000
0.6897 1.9655 0.0000
0.6897 2.0000 0.0000
0.7586 1.0000 0.0000
0.7586 1.0345 0.0000
0.7586 1.0690 0.0000
0.7586 1.1034 0.0000
0.7586 1.1379 0.0000
0.7586 1.1724 0.0000
0.7586 1.2069 0.0000
0.7586 1.2414 0.0000
0.7586 1.2759 0.0000
0.7586 1.3103 0.0000
0.7586 1.3448 0.0000
0.7586 1.3793 0.0000
0.7586 1.4138 0.0000
0.7586 1.4483 0.0000
0.7586 1.4828 0.0000
0.7586 1.5172 0.0000
0.7586 1.5517 0.0000
0.7586 1.5862 0.0000
0.7586 1.6207 0.0000
0.7586 1.6552 0.0000
0.7586 1.6897 0.0000
0.7586 1.7241 0.0000
0.7586 1.7586 0.0000
0.7586 1.7931 0.0000
0.7586 1.8276 0.0000
0.7586 1.8621 0.0000
0.7586 1.8966 0.0000
0.7586 1.9310 0.0000
0.7586 1.9655 0.0000
0.7586 2.0000 0.0000
0.8276 1.0000 0.0000
0.8276 1.0345 0.0000
0.8276 1.0690 0.0000
0.8276 1.1034 0.0000
0.8276 1.1379 0.0000
0.8276 1.1724 0.0000
0.8276 1.2069 0.0000
0.8276 1.2414 0.0000
0.8276 1.2759 0.0000
0.8276 1.3103 0.0000
0.8276 1.3448 0.0000
0.8276 1.3793 0.0000
0.8276 1.4138 0.0000
0.8276 1.4483 0.0000
0.8276 1.4828 0.0000
0.8276 1.5172 0.0000
0.8276 1.5517 0.0000
0.8276 1.5862 0.0000
0.8276 1.6207 0.0000
0.8276 1.6552 0.0000
0.8276 1.6897 0.0000
0.8276 1.7241 0.0000
0.8276 1.7586 0.0000
0.8276 1.7931 0.0000
0.8276 1.8276 0.0000
0.8276 1.8621 0.0000
0.8276 1.8966 0.0000
0.8276 1.9310 0.0000
0.8276 1.9655 0.0000
0.8276 2.0000 0.0000
0.8966 1.0000 0.0000
0.8966 1.0345 0.0000
0.8966 1.0690 0.0000
0.8966 1.1034 0.0000
0.8966 1.1379 0.0000
0.8966 1.1724 0.0000
0.8966 1.2069 0.0000
0.8966 1.2414 0.0000
0.8966 1.2759 0.0000
0.8966 1.3103 0.0000
0.8966 1.3448 0.0000
0.8966 1.3793 0.0000
0.8966 1.4138 0.0000
0.8966 1.4483 0.0000
0.8966 1.4828 0.0000
0.8966 1.5172 0.0000
0.8966 1.5517 0.0000
0.8966 1.5862 0.0000
0.8966 1.6207 0.0000
0.8966 1.6552 0.0000
0.8966 1.6897 0.0000
0.8966 1.7241 0.0000
0.8966 1.7586 0.0000
0.8966 1.7931 0.0000
0.8966 1.8276 0.0000
0.8966 1.8621 0.0000
0.8966 1.8966 0.0000
0.8966 1.9310 0.0000
0.8966 1.9655 0.0000
0.8966 2.0000 0.0000
0.9655 1.0000 0.0000
0.9655 1.0345 0.0000
0.9655 1.0690 0.0000
0.9655 1.1034 0.0000
0.9655 1.1379 0.0000
0.9655 1.1724 0.0000
0.9655 1.2069 0.0000
0.9655 1.2414 0.0000
0.9655 1.2759 0.0000
0.9655 1.3103 0.0000
0.9655 1.3448 0.0000
0.9655 1.3793 0.0000
0.9655 1.4138 0.0000
0.9655 1.4483 0.0000
0.9655 1.4828 0.0000
0.9655 1.5172 0.0000
0.9655 1.5517 0.0000
0.9655 1.5862 0.0000
0.9655 1.6207 0.0000
0.9655 1.6552 0.0000
0.9655 1.6897 0.0000
0.9655 1.7241 0.0000
0.9655 1.7586 0.0000
0.9655 1.7931 0.0000
0.9655 1.8276 0.0000
0.9655 1.8621 0.0000
0.9655 1.8966 0.0000
0.9655 1.9310 0.0000
0.9655 1.9655 0.0000
0.9655 2.0000 0.0000
1.0345 1.0000 0.0000
1.0345 1.0345 0.0000
1.0345 1.0690 0.0000
1.0345 1.1034 0.0000
1.0345 1.1379 0.0000
1.0345 1.1724 0.0000
1.0345 1.2069 0.0000
1.0345 1.2414 0.0000
1.0345 1.2759 0.0000
1.0345 1.3103 0.0000
1.0345 1.3448 0.0000
[...]
         <PointData>
            <DataArray Name="fValues" NumberOfComponents="3" format="ascii" type="Float64">
-2.56942e-25 -2.72116e-25        00000 
 1.09661e-25  2.85119e-25        00000 
 1.73506e-25  5.42207e-25        00000 
 5.77694e-25  3.11737e-24        00000 
-1.21454e-24  4.33765e-24        00000 
 3.67146e-24 -4.93592e-24        00000 
 1.73506e-24  1.01501e-23        00000 
-2.17998e-24 -6.27834e-24        00000 
-4.16415e-24  1.17984e-23        00000 
 2.84913e-23  1.44494e-23        00000 
 2.77610e-24  1.11738e-22        00000 
-1.36031e-23  7.15033e-23        00000 
 5.55220e-23 -5.55220e-23        00000 
 8.88257e-24 -8.94811e-23        00000 
 7.21786e-23  1.83223e-22        00000 
-2.05790e-23  3.42169e-22        00000 
 2.22088e-23  5.33011e-22        00000 
 1.50065e-22 -3.79921e-22        00000 
-1.11044e-23 -2.66506e-22        00000 
 3.10429e-23 -1.61842e-22        00000 
 2.22088e-23  5.10802e-22        00000 
-6.57358e-23 -6.53016e-22        00000 
-1.49909e-22  9.99396e-22        00000 
 2.30206e-23  6.50157e-22        00000 
-2.22088e-23 -3.59505e-22        00000 
-2.07186e-22  3.39118e-24        00000 
 8.88352e-23 -1.94327e-22        00000 
-1.43972e-22  1.67735e-23        00000 
-5.03984e-23 -2.60392e-22        00000 
 2.47635e-22  1.88663e-21        00000 
 3.14475e-09  6.03496e-10        00000 
 1.02804e-09  6.65662e-10        00000 
 2.08702e-09  1.45004e-09        00000 
 3.90548e-09  2.42859e-09        00000 
 6.93678e-09  4.13356e-09        00000 
 1.20110e-08  7.19999e-09        00000 
 2.04645e-08  1.26569e-08        00000 
 3.43119e-08  2.22825e-08        00000 
 5.64199e-08  3.90637e-08        00000 
 9.05377e-08  6.77962e-08        00000 
 1.40984e-07  1.15738e-07        00000 
 2.11725e-07  1.93067e-07        00000 
 3.04615e-07  3.12667e-07        00000 
 4.16790e-07  4.88631e-07        00000 
 5.37707e-07  7.32849e-07        00000 
 6.46931e-07  1.04956e-06        00000 
 7.14381e-07  1.42864e-06        00000 
 7.04585e-07  1.83965e-06        00000 
 5.85504e-07  2.22965e-06        00000 
 3.40357e-07  2.52778e-06        00000 
-2.13671e-08  2.65764e-06        00000 
-4.58676e-07  2.55588e-06        00000 
-9.03405e-07  2.19164e-06        00000 
-1.27438e-06  1.58021e-06        00000 
-1.49746e-06  7.85391e-07        00000 
-1.52502e-06 -8.98094e-08        00000 
-1.35189e-06 -9.11308e-07        00000 
-9.92565e-07 -1.46497e-06        00000 
-3.84483e-07 -1.35097e-06        00000 
 3.73993e-06 -1.50738e-06        00000 
-3.48302e-09 -1.33595e-09        00000 
-1.56004e-09 -1.68798e-09        00000 
-2.36952e-09 -2.61365e-09        00000 
-4.50511e-09 -4.33628e-09        00000 
-8.03299e-09 -7.42320e-09        00000 
-1.39480e-08 -1.29797e-08        00000 
-2.38539e-08 -2.29263e-08        00000 
-4.02142e-08 -4.06310e-08        00000 
-6.66235e-08 -7.18531e-08        00000 
-1.07947e-07 -1.26035e-07        00000 
-1.70069e-07 -2.17805e-07        00000 
-2.58880e-07 -3.68201e-07        00000 
-3.78093e-07 -6.04660e-07        00000 
-5.25752e-07 -9.58327e-07        00000 
-6.89875e-07 -1.45721e-06        00000 
-8.44700e-07 -2.11450e-06        00000 
-9.49948e-07 -2.91349e-06        00000 
-9.55749e-07 -3.79327e-06        00000 
-8.14560e-07 -4.64229e-06        00000 
-4.98374e-07 -5.30661e-06        00000 
-1.57699e-08 -5.61668e-06        00000 
 5.78935e-07 -5.42885e-06        00000 
 1.19086e-06 -4.67011e-06        00000 
 1.70516e-06 -3.37031e-06        00000 
 2.01740e-06 -1.66909e-06        00000 
 2.06446e-06  2.02579e-07        00000 
 1.84365e-06  1.94532e-06        00000 
 1.38923e-06  3.18319e-06        00000 
 6.81821e-10  3.58663e-06        00000 
-4.80853e-06  3.58754e-06        00000 
 3.41086e-09  2.00206e-09        00000 
 1.60529e-09  2.61048e-09        00000 
 2.35468e-09  3.82125e-09        00000 
 4.42788e-09  6.24375e-09        00000 
 7.92374e-09  1.06920e-08        00000 
 1.38132e-08  1.86951e-08        00000 
 2.37645e-08  3.30167e-08        00000 
 4.04201e-08  5.85509e-08        00000 
 6.77913e-08  1.03756e-07        00000 
 1.11592e-07  1.82702e-07        00000 
 1.79223e-07  3.17598e-07        00000 
 2.78922e-07  5.41122e-07        00000 
 4.17436e-07  8.97082e-07        00000 
 5.95742e-07  1.43704e-06        00000 
 8.03034e-07  2.21014e-06        00000 
 1.01057e-06  3.24444e-06        00000 
 1.16870e-06  4.52140e-06        00000 
 1.21123e-06  5.95004e-06        00000 
 1.07025e-06  7.35283e-06        00000 
 7.00003e-07  8.47631e-06        00000 
 1.02762e-07  9.03424e-06        00000 
-6.55322e-07  8.77850e-06        00000 
-1.44910e-06  7.57777e-06        00000 
-2.12323e-06  5.47563e-06        00000 
-2.53661e-06  2.70462e-06        00000 
-2.60635e-06 -3.47015e-07        00000 
-2.33160e-06 -3.19103e-06        00000 
-1.70288e-06 -5.28630e-06        00000 
 1.14265e-07 -6.08929e-06        00000 
 6.04452e-06 -5.95863e-06        00000 
-3.20008e-09 -2.63858e-09        00000 
-1.52999e-09 -3.45055e-09        00000 
-2.22821e-09 -4.98247e-09        00000 
-4.17299e-09 -8.08495e-09        00000 
-7.48084e-09 -1.38185e-08        00000 
-1.31023e-08 -2.41270e-08        00000 
-2.27139e-08 -4.25432e-08        00000 
-3.90827e-08 -7.53705e-08        00000 
-6.66182e-08 -1.33617e-07        00000 
-1.11989e-07 -2.35887e-07        00000 
-1.84504e-07 -4.12182e-07        00000 
-2.95651e-07 -7.07849e-07        00000 
-4.56807e-07 -1.18575e-06        00000 
-6.74121e-07 -1.92309e-06        00000 
-9.40207e-07 -2.99839e-06        00000 
-1.22422e-06 -4.46491e-06        00000 
-1.46473e-06 -6.31136e-06        00000 
-1.57208e-06 -8.41907e-06        00000 
-1.44650e-06 -1.05339e-05        00000 
-1.01207e-06 -1.22759e-05        00000 
-2.57231e-07 -1.32016e-05        00000 
 7.36954e-07 -1.29156e-05        00000 
 1.79974e-06 -1.11986e-05        00000 
 2.71215e-06 -8.10504e-06        00000 
 3.27443e-06 -3.98809e-06        00000 
 3.37176e-06  5.58045e-07        00000 
 3.00147e-06  4.80211e-06        00000 
 2.16215e-06  7.95019e-06        00000 
-1.99103e-07  9.17651e-06        00000 
-7.82295e-06  8.94324e-06        00000 
 2.92207e-09  3.22670e-09        00000 
 1.40601e-09  4.21559e-09        00000 
 2.04682e-09  6.05855e-09        00000 
 3.82859e-09  9.79577e-09        00000 
 6.87712e-09  1.67066e-08        00000 
 1.21063e-08  2.91087e-08        00000 
 2.11723e-08  5.12114e-08        00000 
 3.69285e-08  9.05623e-08        00000 
 6.41697e-08  1.60482e-07        00000 
 1.10620e-07  2.83881e-07        00000 
 1.87900e-07  4.98626e-07        00000 
 3.11763e-07  8.63802e-07        00000 
 5.00198e-07  1.46458e-06        00000 
 7.67578e-07  2.41085e-06        00000 
 1.11343e-06  3.82250e-06        00000 
 1.50690e-06  5.79415e-06        00000 
 1.87243e-06  8.33776e-06        00000 
 2.08728e-06  1.13141e-05        00000 
 2.00256e-06  1.43798e-05        00000 
 1.49204e-06  1.69888e-05        00000 
 5.16661e-07  1.84774e-05        00000 
-8.24545e-07  1.82324e-05        00000 
-2.29142e-06  1.58959e-05        00000 
-3.56356e-06  1.15262e-05        00000 
-4.34670e-06  5.64130e-06        00000 
-4.47626e-06 -8.77126e-07        00000 
-3.95969e-06 -6.95723e-06        00000 
-2.82294e-06 -1.14572e-05        00000 
 3.04973e-07 -1.31991e-05        00000 
 1.03873e-05 -1.28425e-05        00000 
-2.59450e-09 -3.75503e-09        00000 
-1.25290e-09 -4.90077e-09        00000 
-1.82592e-09 -7.02767e-09        00000 
-3.41629e-09 -1.13372e-08        00000 
-6.15157e-09 -1.92962e-08        00000 
-1.08882e-08 -3.35417e-08        00000 
-1.92243e-08 -5.88505e-08        00000 
-3.40362e-08 -1.03809e-07        00000 
-6.04291e-08 -1.83721e-07        00000 
-1.07170e-07 -3.25386e-07        00000 
-1.88454e-07 -5.74314e-07        00000 
-3.25267e-07 -1.00410e-06        00000 
-5.44518e-07 -1.72561e-06        00000 
-8.72964e-07 -2.88995e-06        00000 
-1.32272e-06 -4.67444e-06        00000 
-1.86782e-06 -7.23900e-06        00000 
-2.41811e-06 -1.06455e-05        00000 
-2.80640e-06 -1.47508e-05        00000 
-2.81002e-06 -1.91111e-05        00000 
-2.21988e-06 -2.29603e-05        00000 
-9.44096e-07 -2.53189e-05        00000 
 9.00352e-07 -2.52440e-05        00000 
 2.96908e-06 -2.21545e-05        00000 
 4.78038e-06 -1.60972e-05        00000 
 5.88784e-06 -7.82428e-06        00000 
 6.05168e-06  1.36301e-06        00000 
 5.30710e-06  9.90378e-06        00000 
 3.73846e-06  1.61824e-05        00000 
-4.65710e-07  1.85763e-05        00000 
-1.40021e-05  1.80431e-05        00000 
 2.22481e-09  4.21516e-09        00000 
 1.07737e-09  5.49743e-09        00000 
 1.57283e-09  7.87307e-09        00000 
 2.94629e-09  1.26808e-08        00000 
 5.32129e-09  2.15439e-08        00000 
 9.47399e-09  3.73603e-08        00000 
 1.68962e-08  6.53559e-08        00000 
 3.03929e-08  1.14926e-07        00000 
 5.52235e-08  2.02934e-07        00000 
 1.01017e-07  3.59429e-07        00000 
 1.84544e-07  6.36874e-07        00000 
 3.32741e-07  1.12343e-06        00000 
 5.83871e-07  1.95851e-06        00000 
 9.82443e-07  3.34364e-06        00000 
 1.56183e-06  5.53383e-06        00000 
 2.31064e-06  8.78818e-06        00000 
 3.12813e-06  1.32612e-05        00000 
 3.79100e-06  1.88401e-05        00000 
 3.96832e-06  2.49775e-05        00000 
 3.31603e-06  3.06180e-05        00000 
 1.64250e-06  3.43252e-05        00000 
-9.25966e-07  3.46493e-05        00000 
-3.89032e-06  3.06441e-05        00000 
-6.51088e-06  2.23133e-05        00000 
-8.09340e-06  1.07512e-05        00000 
-8.28166e-06 -2.11064e-06        00000 
-7.17197e-06 -1.39938e-05        00000 
-4.96882e-06 -2.26333e-05        00000 
 7.24185e-07 -2.58504e-05        00000 
 1.90154e-05 -2.50493e-05        00000 
-1.81901e-09 -4.60002e-09        00000 
-8.83412e-10 -5.99659e-09        00000 
-1.29293e-09 -8.58047e-09        00000 
-2.42725e-09 -1.38038e-08        00000 
-4.40106e-09 -2.34153e-08        00000 
-7.88787e-09 -4.05165e-08        00000 
-1.42199e-08 -7.06658e-08        00000 
-2.60116e-08 -1.23824e-07        00000 
-4.84406e-08 -2.17935e-07        00000 
-9.16207e-08 -3.85418e-07        00000 
-1.74509e-07 -6.84406e-07        00000 
-3.30176e-07 -1.21654e-06        00000 
-6.10376e-07 -2.15102e-06        00000 
-1.08367e-06 -3.74831e-06        00000 
-1.81709e-06 -6.36460e-06        00000 
-2.83081e-06 -1.04038e-05        00000 
-4.02645e-06 -1.61793e-05        00000 
-5.11650e-06 -2.36733e-05        00000 
-5.61587e-06 -3.22532e-05        00000 
-4.96272e-06 -4.04925e-05        00000 
-2.77986e-06 -4.62929e-05        00000 
 8.26890e-07 -4.74168e-05        00000 
 5.13201e-06 -4.23128e-05        00000 
 8.97856e-06 -3.08752e-05        00000 
 1.12599e-05 -1.47102e-05        00000 
 1.14336e-05  3.27988e-06        00000 
 9.72213e-06  1.97401e-05        00000 
 6.57397e-06  3.15102e-05        00000 
-1.15364e-06  3.57392e-05        00000 
-2.58899e-05  3.45174e-05        00000 
 1.38345e-09  4.90362e-09        00000 
 6.74465e-10  6.39030e-09        00000 
 9.91091e-10  9.13790e-09        00000 
 1.86763e-09  1.46871e-08        00000 
 3.40598e-09  2.48825e-08        00000 
 6.15728e-09  4.29745e-08        00000 
 1.12425e-08  7.47466e-08        00000 
 2.09562e-08  1.30496e-07        00000 
 4.00995e-08  2.28742e-07        00000 
 7.86955e-08  4.03225e-07        00000 
 1.57015e-07  7.15832e-07        00000 
 3.13557e-07  1.27902e-06        00000 
 6.14668e-07  2.29025e-06        00000 
 1.15934e-06  4.07433e-06        00000 
 2.06443e-06  7.11264e-06        00000 
 3.40909e-06  1.20116e-05        00000 
 5.12628e-06  1.93411e-05        00000 
 6.86850e-06  2.92944e-05        00000 
 7.94075e-06  4.12181e-05        00000 
 7.43472e-06  5.32328e-05        00000 
 4.63169e-06  6.22875e-05        00000 
-4.61139e-07  6.49086e-05        00000 
-6.79416e-06  5.85273e-05        00000 
-1.25263e-05  4.27931e-05        00000 
-1.58470e-05  2.00895e-05        00000 
-1.59037e-05 -5.14782e-06        00000 
-1.31716e-05 -2.79088e-05        00000 
-8.58899e-06 -4.37914e-05        00000 
 1.88786e-06 -4.91929e-05        00000 
 3.52257e-05 -4.72901e-05        00000 
-9.25068e-10 -5.12120e-09        00000 
-4.53962e-10 -6.67219e-09        00000 
-6.72104e-10 -9.53593e-09        00000 
-1.27588e-09 -1.53159e-08        00000 
-2.35131e-09 -2.59227e-08        00000 
-4.31166e-09 -4.47058e-08        00000 
-8.02321e-09 -7.75797e-08        00000 
-1.53399e-08 -1.34981e-07        00000 
-3.03718e-08 -2.35539e-07        00000 
-6.23274e-08 -4.13209e-07        00000 
-1.31410e-07 -7.31215e-07        00000 
-2.79616e-07 -1.30843e-06        00000 
-5.86939e-07 -2.36498e-06        00000 
-1.18745e-06 -4.28898e-06        00000 
-2.26640e-06 -7.70612e-06        00000 
-4.00214e-06 -1.34912e-05        00000 
-6.41454e-06 -2.26076e-05        00000 
-9.12990e-06 -3.56534e-05        00000 
-1.11885e-05 -5.21133e-05        00000 
-1.11431e-05 -6.96076e-05        00000 
-7.65305e-06 -8.37323e-05        00000 
-4.41486e-07 -8.90630e-05        00000 
 8.99891e-06 -8.12941e-05        00000 
 1.76899e-05 -5.95500e-05        00000 
 2.25855e-05 -2.74105e-05        00000 
 2.22909e-05  8.20644e-06        00000 
 1.77796e-05  3.96750e-05        00000 
 1.09666e-05  6.08610e-05        00000 
-3.17630e-06  6.74578e-05        00000 
-4.77700e-05  6.44180e-05        00000 
 4.51293e-10  5.24936e-09        00000 
 2.25446e-10  6.83776e-09        00000 
 3.40831e-10  9.76795e-09        00000 
 6.60545e-10  1.56794e-08        00000 
 1.25221e-09  2.65190e-08        00000 
 2.38045e-09  4.56872e-08        00000 
 4.62615e-09  7.91498e-08        00000 
 9.30811e-09  1.37328e-07        00000 
 1.95619e-08  2.38597e-07        00000 
 4.30145e-08  4.16129e-07        00000 
 9.80196e-08  7.31896e-07        00000 
 2.26767e-07  1.30533e-06        00000 
 5.18802e-07  2.36881e-06        00000 
 1.14332e-06  4.36235e-06        00000 
 2.37085e-06  8.06107e-06        00000 
 4.53141e-06  1.46709e-05        00000 
 7.82655e-06  2.57251e-05        00000 
 1.19508e-05  4.25346e-05        00000 
 1.56580e-05  6.50526e-05        00000 
 1.66937e-05  9.04690e-05        00000 
 1.26003e-05  1.12512e-04        00000 
 2.39813e-06  1.22668e-04        00000 
-1.18739e-05  1.13615e-04        00000 
-2.53243e-05  8.33706e-05        00000 
-3.26713e-05  3.73699e-05        00000 
-3.15238e-05 -1.33473e-05        00000 
-2.38308e-05 -5.68957e-05        00000 
-1.34530e-05 -8.47030e-05        00000 
 5.48849e-06 -9.21347e-05        00000 
 6.43905e-05 -8.71399e-05        00000 
 3.01021e-11 -5.28622e-09        00000 
 7.39375e-12 -6.88452e-09        00000 
-2.35211e-12 -9.83042e-09        00000 
-3.04962e-11 -1.57718e-08        00000 
-1.23967e-10 -2.66613e-08        00000 
-3.92030e-10 -4.59022e-08        00000 
-1.11298e-09 -7.94403e-08        00000 
-3.01351e-09 -1.37569e-07        00000 
-8.05176e-09 -2.38168e-07        00000 
-2.16039e-08 -4.12923e-07        00000 
-5.82749e-08 -7.20277e-07        00000 
-1.55997e-07 -1.27380e-06        00000 
-4.05924e-07 -2.30338e-06        00000 
-1.00423e-06 -4.27601e-06        00000 
-2.31397e-06 -8.09525e-06        00000 
-4.87366e-06 -1.53344e-05        00000 
-9.20960e-06 -2.82940e-05        00000 
-1.52877e-05 -4.94520e-05        00000 
-2.16635e-05 -7.98570e-05        00000 
-2.49534e-05 -1.16633e-04        00000 
-2.07349e-05 -1.51073e-04        00000 
-6.40903e-06 -1.69769e-04        00000 
 1.54895e-05 -1.60080e-04        00000 
 3.68226e-05 -1.17680e-04        00000 
 4.81287e-05 -5.08942e-05        00000 
 4.50858e-05  2.22145e-05        00000 
 3.15668e-05  8.25981e-05        00000 
 1.53268e-05  1.18206e-04        00000 
-9.70928e-06  1.25208e-04        00000 
-8.59597e-05  1.16759e-04        00000 
-5.11158e-10  5.23141e-09        00000 
-2.40728e-10  6.81205e-09        00000 
-3.37954e-10  9.72293e-09        00000 
-6.04778e-10  1.55924e-08        00000 
-1.01741e-09  2.63470e-08        00000 
-1.62578e-09  4.53437e-08        00000 
-2.46053e-09  7.84362e-08        00000 
-3.40626e-09  1.35701e-07        00000 
-3.77679e-09  2.34401e-07        00000 
-8.79121e-10  4.04405e-07        00000 
 1.45324e-08  6.99197e-07        00000 
 7.13059e-08  1.22095e-06        00000 
 2.50826e-07  2.18039e-06        00000 
 7.57036e-07  4.03331e-06        00000 
 2.03148e-06  7.75244e-06        00000 
 4.86126e-06  1.52506e-05        00000 
 1.02803e-05  2.97589e-05        00000 
 1.88964e-05  5.55197e-05        00000 
 2.94188e-05  9.57718e-05        00000 
 3.70897e-05  1.48586e-04        00000 
 3.41539e-05  2.02446e-04        00000 
 1.44347e-05  2.36277e-04        00000 
-1.96676e-05  2.27877e-04        00000 
-5.45046e-05  1.67921e-04        00000 
-7.25129e-05  6.92143e-05        00000 
-6.54241e-05 -3.78907e-05        00000 
-4.09959e-05 -1.21881e-04        00000 
-1.48653e-05 -1.65655e-04        00000 
 1.74908e-05 -1.68975e-04        00000 
 1.13039e-04 -1.54286e-04        00000 
 9.83890e-10 -5.08605e-09        00000 
 4.70631e-10 -6.62196e-09        00000 
 6.74419e-10 -9.44810e-09        00000 
 1.23505e-09 -1.51456e-08        00000 
 2.15450e-09 -2.55830e-08        00000 
 3.64395e-09 -4.40179e-08        00000 
 6.04290e-09 -7.61345e-08        00000 
 9.83893e-09 -1.31699e-07        00000 
 1.56090e-08 -2.27300e-07        00000 
 2.34655e-08 -3.90998e-07        00000 
 3.04409e-08 -6.71018e-07        00000 
 2.07645e-08 -1.15511e-06        00000 
-6.45124e-08 -2.02062e-06        00000 
-4.07178e-07 -3.66705e-06        00000 
-1.48059e-06 -7.03505e-06        00000 
-4.30604e-06 -1.42394e-05        00000 
-1.05963e-05 -2.94582e-05        00000 
-2.21697e-05 -5.93348e-05        00000 
-3.87646e-05 -1.11021e-04        00000 
-5.44778e-05 -1.85844e-04        00000 
-5.62789e-05 -2.70034e-04        00000 
-3.03683e-05 -3.30843e-04        00000 
 2.34332e-05 -3.28595e-04        00000 
 8.23009e-05 -2.43097e-04        00000 
 1.12318e-04 -9.39742e-05        00000 
 9.66894e-05  6.62652e-05        00000 
 5.13747e-05  1.83619e-04        00000 
 8.27524e-06  2.33518e-04        00000 
-3.18359e-05  2.25729e-04        00000 
-1.45142e-04  1.99600e-04        00000 
-1.44046e-09  4.85273e-09        00000 
-6.93144e-10  6.31773e-09        00000 
-1.00116e-09  9.01138e-09        00000 
-1.84942e-09  1.44408e-08        00000 
-3.26811e-09  2.43845e-08        00000 
-5.63031e-09  4.19473e-08        00000 
-9.58149e-09  7.25567e-08        00000 
-1.61913e-08  1.25554e-07        00000 
-2.72245e-08  2.16775e-07        00000 
-4.54411e-08  3.72641e-07        00000 
-7.41821e-08  6.36794e-07        00000 
-1.12706e-07  1.08294e-06        00000 
-1.34749e-07  1.84840e-06        00000 
-1.51602e-08  3.23795e-06        00000 
 6.69993e-07  6.03336e-06        00000 
 3.06275e-06  1.22768e-05        00000 
 9.59214e-06  2.67936e-05        00000 
 2.39558e-05  5.89849e-05        00000 
 4.86240e-05  1.22216e-04        00000 
 7.81946e-05  2.25668e-04        00000 
 9.24197e-05  3.56682e-04        00000 
 6.19987e-05  4.65990e-04        00000 
-2.34705e-05  4.81568e-04        00000 
-1.26902e-04  3.58879e-04        00000 
-1.79877e-04  1.27410e-04        00000 
-1.46002e-04 -1.18895e-04        00000 
-5.97805e-05 -2.83779e-04        00000 
 1.23803e-05 -3.31650e-04        00000 
 5.78857e-05 -2.96805e-04        00000 
 1.79168e-04 -2.49673e-04        00000 
 1.87332e-09 -4.53536e-09        00000 
 9.04343e-10 -5.90468e-09        00000 
 1.31219e-09 -8.42085e-09        00000 
 2.43654e-09 -1.34915e-08        00000 
 4.33760e-09 -2.27753e-08        00000 
 7.54871e-09 -3.91707e-08        00000 
 1.30168e-08 -6.77566e-08        00000 
 2.23715e-08 -1.17306e-07        00000 
 3.84705e-08 -2.02750e-07        00000 
 6.64100e-08 -3.48947e-07        00000 
 1.15118e-07 -5.96022e-07        00000 
 1.98260e-07 -1.00688e-06        00000 
 3.26347e-07 -1.68255e-06        00000 
 4.58076e-07 -2.81804e-06        00000 
 3.16595e-07 -4.92727e-06        00000 
-1.13205e-06 -9.60803e-06        00000 
-6.75804e-06 -2.15687e-05        00000 