<?xml version="1.0" encoding="utf-8"?>
<VTKFile byte_order="LittleEndian" type="UnstructuredGrid" version="0.1">
   <UnstructuredGrid>
      <Piece NumberOfCells="3364" NumberOfPoints="1741">
         <Points>
            <DataArray Name="Points" NumberOfComponents="3" format="ascii" type="Float32">
0.0000 1.0000 0.0000
0.0000 1.0345 0.0000
0.0000 1.0690 0.0000
0.0000 1.1034 0.0000
0.0000 1.1379 0.0000
0.0000 1.1724 0.0000
0.0000 1.2069 0.0000
0.0000 1.2414 0.0000
0.0000 1.2759 0.0000
0.0000 1.3103 0.0000
0.0000 1.3448 0.0000
0.0000 1.3793 0.0000
0.0000 1.4138 0.0000
0.0000 1.4483 0.0000
0.0000 1.4828 0.0000
0.0000 1.5172 0.0000
0.0000 1.5517 0.0000
0.0000 1.5862 0.0000
0.0000 1.6207 0.0000
0.0000 1.6552 0.0000
0.0000 1.6897 0.0000
0.0000 1.7241 0.0000
0.0000 1.7586 0.0000
0.0000 1.7931 0.0000
0.0000 1.8276 0.0000
0.0000 1.8621 0.0000
0.0000 1.8966 0.0000
0.0000 1.9310 0.0000
0.0000 1.9655 0.0000
0.0000 2.0000 0.0000
0.0690 1.0000 0.0000
0.0690 1.0345 0.0000
0.0690 1.0690 0.0000
0.0690 1.1034 0.0000
0.0690 1.1379 0.0000
0.0690 1.1724 0.0000
0.0690 1.2069 0.0000
0.0690 1.2414 0.0000
0.0690 1.2759 0.0000
0.0690 1.3103 0.0000
0.0690 1.3448 0.0000
0.0690 1.3793 0.0000
0.0690 1.4138 0.0000
0.0690 1.4483 0.0000
0.0690 1.4828 0.0000
0.0690 1.5172 0.0000
0.0690 1.5517 0.0000
0.0690 1.5862 0.0000
0.0690 1.6207 0.0000
0.0690 1.6552 0.0000
0.0690 1.6897 0.0000
0.0690 1.7241 0.0000
0.0690 1.7586 0.0000
0.0690 1.7931 0.0000
0.0690 1.8276 0.0000
0.0690 1.8621 0.0000
0.0690 1.8966 0.0000
0.0690 1.9310 0.0000
0.0690 1.9655 0.0000
0.0690 2.0000 0.0000
0.1379 1.0000 0.0000
0.1379 1.0345 0.0000
0.1379 1.0690 0.0000
0.1379 1.1034 0.0000
0.1379 1.1379 0.0000
0.1379 1.1724 0.0000
0.1379 1.2069 0.0000
0.1379 1.2414 0.0000
0.1379 1.2759 0.0000
0.1379 1.3103 0.0000
0.1379 1.3448 0.0000
0.1379 1.3793 0.0000
0.1379 1.4138 0.0000
0.1379 1.4483 0.0000
0.1379 1.4828 0.0000
0.1379 1.5172 0.0000
0.1379 1.5517 0.0000
0.1379 1.5862 0.0000
0.1379 1.6207 0.0000
0.1379 1.6552 0.0000
0.1379 1.6897 0.0000
0.1379 1.7241 0.0000
0.1379 1.7586 0.0000
0.1379 1.7931 0.0000
0.1379 1.8276 0.0000
0.1379 1.8621 0.0000
0.1379 1.8966 0.0000
0.1379 1.9310 0.0000
0.1379 1.9655 0.0000
0.1379 2.0000 0.0000
0.2069 1.0000 0.0000
0.2069 1.0345 0.0000
0.2069 1.0690 0.0000
0.2069 1.1034 0.0000
0.2069 1.1379 0.0000
0.2069 1.1724 0.0000
0.2069 1.2069 0.0000
0.2069 1.2414 0.0000
0.2069 1.2759 0.0000
0.2069 1.3103 0.0000
0.2069 1.3448 0.0000
0.2069 1.3793 0.0000
0.2069 1.4138 0.0000
0.2069 1.4483 0.0000
0.2069 1.4828 0.0000
0.2069 1.5172 0.0000
0.2069 1.5517 0.0000
0.2069 1.5862 0.0000
0.2069 1.6207 0.0000
0.2069 1.6552 0.0000
0.2069 1.6897 0.0000
0.2069 1.7241 0.0000
0.2069 1.7586 0.0000
0.2069 1.7931 0.0000
0.2069 1.8276 0.0000
0.2069 1.8621 0.0000
0.2069 1.8966 0.0000
0.2069 1.9310 0.0000
0.2069 1.9655 0.0000
0.2069 2.0000 0.0000
0.2759 1.0000 0.0000
0.2759 1.0345 0.0000
0.2759 1.0690 0.0000
0.2759 1.1034 0.0000
0.2759 1.1379 0.0000
0.2759 1.1724 0.0000
0.2759 1.2069 0.0000
0.2759 1.2414 0.0000
0.2759 1.2759 0.0000
0.2759 1.3103 0.0000
0.2759 1.3448 0.0000
0.2759 1.3793 0.0000
0.2759 1.4138 0.0000
0.2759 1.4483 0.0000
0.2759 1.4828 0.0000
0.2759 1.5172 0.0000
0.2759 1.5517 0.0000
0.2759 1.5862 0.0000
0.2759 1.6207 0.0000
0.2759 1.6552 0.0000
0.2759 1.6897 0.0000
0.2759 1.7241 0.0000
0.2759 1.7586 0.0000
0.2759 1.7931 0.0000
0.2759 1.8276 0.0000
0.2759 1.8621 0.0000
0.2759 1.8966 0.0000
0.2759 1.9310 0.0000
0.2759 1.9655 0.0000
0.2759 2.0000 0.0000
0.3448 1.0000 0.0000
0.3448 1.0345 0.0000
0.3448 1.0690 0.0000
0.3448 1.1034 0.0000
0.3448 1.1379 0.0000
0.3448 1.1724 0.0000
0.3448 1.2069 0.0000
0.3448 1.2414 0.0000
0.3448 1.2759 0.0000
0.3448 1.3103 0.0000
0.3448 1.3448 0.0000
0.3448 1.3793 0.0000
0.3448 1.4138 0.0000
0.3448 1.4483 0.0000
0.3448 1.4828 0.0000
0.3448 1.5172 0.0000
0.3448 1.5517 0.0000
0.3448 1.5862 0.0000
0.3448 1.6207 0.0000
0.3448 1.6552 0.0000
0.3448 1.6897 0.0000
0.3448 1.7241 0.0000
0.3448 1.7586 0.0000
0.3448 1.7931 0.0000
0.3448 1.8276 0.0000
0.3448 1.8621 0.0000
0.3448 1.8966 0.0000
0.3448 1.9310 0.0000
0.3448 1.9655 0.0000
0.3448 2.0000 0.0000
0.4138 1.0000 0.0000
0.4138 1.0345 0.0000
0.4138 1.0690 0.0000
0.4138 1.1034 0.0000
0.4138 1.1379 0.0000
0.4138 1.1724 0.0000
0.4138 1.2069 0.0000
0.4138 1.2414 0.0000
0.4138 1.2759 0.0000
0.4138 1.3103 0.0000
0.4138 1.3448 0.0000
0.4138 1.3793 0.0000
0.4138 1.4138 0.0000
0.4138 1.4483 0.0000
0.4138 1.4828 0.0000
0.4138 1.5172 0.0000
0.4138 1.5517 0.0000
0.4138 1.5862 0.0000
0.4138 1.6207 0.0000
0.4138 1.6552 0.0000
0.4138 1.6897 0.0000
0.4138 1.7241 0.0000
0.4138 1.7586 0.0000
0.4138 1.7931 0.0000
0.4138 1.8276 0.0000
0.4138 1.8621 0.0000
0.4138 1.8966 0.0000
0.4138 1.9310 0.0000
0.4138 1.9655 0.0000
0.4138 2.0000 0.0000
0.4828 1.0000 0.0000
0.4828 1.0345 0.0000
0.4828 1.0690 0.0000
0.4828 1.1034 0.0000
0.4828 1.1379 0.0000
0.4828 1.1724 0.0000
0.4828 1.2069 0.0000
0.4828 1.2414 0.0000
0.4828 1.2759 0.0000
0.4828 1.3103 0.0000
0.4828 1.3448 0.0000
0.4828 1.3793 0.0000
0.4828 1.4138 0.0000
0.4828 1.4483 0.0000
0.4828 1.4828 0.0000
0.4828 1.5172 0.0000
0.4828 1.5517 0.0000
0.4828 1.5862 0.0000
0.4828 1.6207 0.0000
0.4828 1.6552 0.0000
0.4828 1.6897 0.0000
0.4828 1.7241 0.0000
0.4828 1.7586 0.0000
0.4828 1.7931 0.0000
0.4828 1.8276 0.0000
0.4828 1.8621 0.0000
0.4828 1.8966 0.0000
0.4828 1.9310 0.0000
0.4828 1.9655 0.0000
0.4828 2.0000 0.0000
0.5517 1.0000 0.0000
0.5517 1.0345 0.0000
0.5517 1.0690 0.0000
0.5517 1.1034 0.0000
0.5517 1.1379 0.0000
0.5517 1.1724 0.0000
0.5517 1.2069 0.0000
0.5517 1.2414 0.0000
0.5517 1.2759 0.0000
0.5517 1.3103 0.0000
0.5517 1.3448 0.0000
0.5517 1.3793 0.0000
0.5517 1.4138 0.0000
0.5517 1.4483 0.0000
0.5517 1.4828 0.0000
0.5517 1.5172 0.0000
0.5517 1.5517 0.0000
0.5517 1.5862 0.0000
0.5517 1.6207 0.0000
0.5517 1.6552 0.0000
0.5517 1.6897 0.0000
0.5517 1.7241 0.0000
0.5517 1.7586 0.0000
0.5517 1.7931 0.0000
0.5517 1.8276 0.0000
0.5517 1.8621 0.0000
0.5517 1.8966 0.0000
0.5517 1.9310 0.0000
0.5517 1.9655 0.0000
0.5517 2.0000 0.0000
0.6207 1.0000 0.0000
0.6207 1.0345 0.0000
0.6207 1.0690 0.0000
0.6207 1.1034 0.0000
0.6207 1.1379 0.0000
0.6207 1.1724 0.0000
0.6207 1.2069 0.0000
0.6207 1.2414 0.0000
0.6207 1.2759 0.0000
0.6207 1.3103 0.0000
0.6207 1.3448 0.0000
0.6207 1.3793 0.0000
0.6207 1.4138 0.0000
0.6207 1.4483 0.0000
0.6207 1.4828 0.0000
0.6207 1.5172 0.0000
0.6207 1.5517 0.0000
0.6207 1.5862 0.0000
0.6207 1.6207 0.0000
0.6207 1.6552 0.0000
0.6207 1.6897 0.0000
0.6207 1.7241 0.0000
0.6207 1.7586 0.0000
0.6207 1.7931 0.0000
0.6207 1.8276 0.0000
0.6207 1.8621 0.0000
0.6207 1.8966 0.0000
0.6207 1.9310 0.0000
0.6207 1.9655 0.0000
0.6207 2.0000 0.0000
0.6897 1.0000 0.0000
0.6897 1.0345 0.0000
0.6897 1.0690 0.0000
0.6897 1.1034 0.0000
0.6897 1.1379 0.0000
0.6897 1.1724 0.0000
0.6897 1.2069 0.0000
0.6897 1.2414 0.0000
0.6897 1.2759 0.0000
0.6897 1.3103 0.0000
0.6897 1.3448 0.0000
0.6897 1.3793 0.0000
0.6897 1.4138 0.0000
0.6897 1.4483 0.0000
0.6897 1.4828 0.0000
0.6897 1.5172 0.0000
0.6897 1.5517 0.0000
0.6897 1.5862 0.0000
0.6897 1.6207 0.0000
0.6897 1.6552 0.0000
0.6897 1.6897 0.0000
0.6897 1.7241 0.0000
0.6897 1.7586 0.0000
0.6897 1.7931 0.0000
0.6897 1.8276 0.0000
0.6897 1.8621 0.0000
0.6897 1.8966 0.0000
0.6897 1.9310 0.0000
0.6897 1.9655 0.0000
0.6897 2.0000 0.0000
0.7586 1.0000 0.0000
0.7586 1.0345 0.0000
0.7586 1.0690 0.0000
0.7586 1.1034 0.0000
0.7586 1.1379 0.0000
0.7586 1.1724 0.0000
0.7586 1.2069 0.0000
0.7586 1.2414 0.0000
0.7586 1.2759 0.0000
0.7586 1.3103 0.0000
0.7586 1.3448 0.0000
0.7586 1.3793 0.0000
0.7586 1.4138 0.0000
0.7586 1.4483 0.0000
0.7586 1.4828 0.0000
0.7586 1.5172 0.0000
0.7586 1.5517 0.0000
0.7586 1.5862 0.0000
0.7586 1.6207 0.0000
0.7586 1.6552 0.0000
0.7586 1.6897 0.0000
0.7586 1.7241 0.0000
0.7586 1.7586 0.0000
0.7586 1.7931 0.0000
0.7586 1.8276 0.0000
0.7586 1.8621 0.0000
0.7586 1.8966 0.0000
0.7586 1.9310 0.0000
0.7586 1.9655 0.0000
0.7586 2.0000 0.0000
0.8276 1.0000 0.0000
0.8276 1.0345 0.0000
0.8276 1.0690 0.0000
0.8276 1.1034 0.0000
0.8276 1.1379 0.0000
0.8276 1.1724 0.0000
0.8276 1.2069 0.0000
0.8276 1.2414 0.0000
0.8276 1.2759 0.0000
0.8276 1.3103 0.0000
0.8276 1.3448 0.0000
0.8276 1.3793 0.0000
0.8276 1.4138 0.0000
0.8276 1.4483 0.0000
0.8276 1.4828 0.0000
0.8276 1.5172 0.0000
0.8276 1.5517 0.0000
0.8276 1.5862 0.0000
0.8276 1.6207 0.0000
0.8276 1.6552 0.0000
0.8276 1.6897 0.0000
0.8276 1.7241 0.0000
0.8276 1.7586 0.0000
0.8276 1.7931 0.0000
0.8276 1.8276 0.0000
0.8276 1.8621 0.0000
0.8276 1.8966 0.0000
0.8276 1.9310 0.0000
0.8276 1.9655 0.0000
0.8276 2.0000 0.0000
0.8966 1.0000 0.0000
0.8966 1.0345 0.0000
0.8966 1.0690 0.0000
0.8966 1.1034 0.0000
0.8966 1.1379 0.0000
0.8966 1.1724 0.0000
0.8966 1.2069 0.0000
0.8966 1.2414 0.0000
0.8966 1.2759 0.0000
0.8966 1.3103 0.0000
0.8966 1.3448 0.0000
0.8966 1.3793 0.0000
0.8966 1.4138 0.0000
0.8966 1.4483 0.0000
0.8966 1.4828 0.0000
0.8966 1.5172 0.0000
0.8966 1.5517 0.0000
0.8966 1.5862 0.0000
0.8966 1.6207 0.0000
0.8966 1.6552 0.0000
0.8966 1.6897 0.0000
0.8966 1.7241 0.0000
0.8966 1.7586 0.0000
0.8966 1.7931 0.0000
0.8966 1.8276 0.0000
0.8966 1.8621 0.0000
0.8966 1.8966 0.0000
0.8966 1.9310 0.0000
0.8966 1.9655 0.0000
0.8966 2.0000 0.0000
0.9655 1.0000 0.0000
0.9655 1.0345 0.0000
0.9655 1.0690 0.0000
0.9655 1.1034 0.0000
0.9655 1.1379 0.0000
0.9655 1.1724 0.0000
0.9655 1.2069 0.0000
0.9655 1.2414 0.0000
0.9655 1.2759 0.0000
0.9655 1.3103 0.0000
0.9655 1.3448 0.0000
0.9655 1.3793 0.0000
0.9655 1.4138 0.0000
0.9655 1.4483 0.0000
0.9655 1.4828 0.0000
0.9655 1.5172 0.0000
0.9655 1.5517 0.0000
0.9655 1.5862 0.0000
0.9655 1.6207 0.0000
0.9655 1.6552 0.0000
0.9655 1.6897 0.0000
0.9655 1.7241 0.0000
0.9655 1.7586 0.0000
0.9655 1.7931 0.0000
0.9655 1.8276 0.0000
0.9655 1.8621 0.0000
0.9655 1.8966 0.0000
0.9655 1.9310 0.0000
0.9655 1.9655 0.0000
0.9655 2.0000 0.0000
1.0345 1.0000 0.0000
1.0345 1.0345 0.0000
1.0345 1.0690 0.0000
1.0345 1.1034 0.0000
1.0345 1.1379 0.0000
1.0345 1.1724 0.0000
1.0345 1.2069 0.0000
1.0345 1.2414 0.0000
1.0345 1.2759 0.0000
1.0345 1.3103 0.0000
1.0345 1.3448 0.0000
[...]
         <PointData>
            <DataArray Name="fValues" NumberOfComponents="3" format="ascii" type="Float64">
-2.19471e-21 -7.16181e-21        00000 
 1.25768e-21 -1.43735e-21        00000 
-1.11044e-22  7.10681e-22        00000 
 2.02302e-23  1.47332e-21        00000 
 6.66264e-23  7.46215e-21        00000 
-2.22742e-22  4.92012e-22        00000 
-2.44297e-22  9.23886e-21        00000 
-1.13708e-22  5.62539e-21        00000 
-5.33011e-22  3.73108e-21        00000 
-2.59130e-22  2.18015e-21        00000 
-4.44176e-22 -8.88352e-22        00000 
-2.09278e-22 -2.17649e-22        00000 
-6.66264e-22  1.33253e-21        00000 
 2.70972e-22 -8.06542e-22        00000 
-2.66506e-22  1.77670e-22        00000 
 8.37112e-23 -1.37844e-21        00000 
-1.99879e-22  5.55220e-23        00000 
 1.13355e-22 -1.05528e-22        00000 
-1.99879e-22  4.99698e-22        00000 
 6.81897e-23 -6.24346e-23        00000 
-7.49547e-23  1.61014e-22        00000 
 1.12744e-24  2.51118e-22        00000 
-1.38805e-23  4.99698e-23        00000 
-8.71991e-24  2.31950e-23        00000 
-7.28726e-24  4.51116e-24        00000 
-2.77037e-24  7.71356e-24        00000 
 3.47012e-25 -2.08207e-24        00000 
-9.39139e-25 -8.95458e-25        00000 
 4.37486e-26 -2.95850e-24        00000 
-1.09372e-26 -4.65426e-24        00000 
 4.74510e-05  1.58429e-05        00000 
 2.36161e-06  1.57098e-05        00000 
 9.67369e-07  2.25061e-05        00000 
 7.07601e-07  2.44457e-05        00000 
 1.50079e-07  2.49692e-05        00000 
-8.66752e-07  2.49195e-05        00000 
-2.12854e-06  2.42165e-05        00000 
-3.41377e-06  2.27696e-05        00000 
-4.50649e-06  2.06246e-05        00000 
-5.24305e-06  1.79510e-05        00000 
-5.54350e-06  1.49933e-05        00000 
-5.41751e-06  1.20121e-05        00000 
-4.94642e-06  9.23310e-06        00000 
-4.25141e-06  6.81445e-06        00000 
-3.45976e-06  4.83544e-06        00000 
-2.67872e-06  3.30495e-06        00000 
-1.98175e-06  2.18102e-06        00000 
-1.40664e-06  1.39387e-06        00000 
-9.61783e-07  8.65779e-07        00000 
-6.36046e-07  5.24836e-07        00000 
-4.08511e-07  3.11939e-07        00000 
-2.55868e-07  1.82663e-07        00000 
-1.56912e-07  1.05895e-07        00000 
-9.45485e-08  6.10644e-08        00000 
-5.61036e-08  3.52048e-08        00000 
-3.27521e-08  2.04478e-08        00000 
-1.86195e-08  1.21364e-08        00000 
-1.00304e-08  7.31200e-09        00000 
-4.98244e-09  3.40360e-09        00000 
-1.56774e-08  3.08576e-09        00000 
-5.74186e-05 -3.65151e-05        00000 
-9.28994e-06 -4.03553e-05        00000 
-7.80174e-07 -4.63716e-05        00000 
-9.08738e-07 -4.99396e-05        00000 
-3.24184e-07 -5.14812e-05        00000 
 9.94346e-07 -5.16271e-05        00000 
 2.71028e-06 -5.02617e-05        00000 
 4.46646e-06 -4.72541e-05        00000 
 5.94869e-06 -4.27291e-05        00000 
 6.92905e-06 -3.70696e-05        00000 
 7.30339e-06 -3.08164e-05        00000 
 7.09532e-06 -2.45393e-05        00000 
 6.42713e-06 -1.87240e-05        00000 
 5.47218e-06 -1.37022e-05        00000 
 4.40655e-06 -9.63094e-06        00000 
 3.37360e-06 -6.51497e-06        00000 
 2.46708e-06 -4.25267e-06        00000 
 1.73103e-06 -2.68741e-06        00000 
 1.17048e-06 -1.65056e-06        00000 
 7.66080e-07 -9.89737e-07        00000 
 4.87484e-07 -5.82322e-07        00000 
 3.02913e-07 -3.37929e-07        00000 
 1.84561e-07 -1.94415e-07        00000 
 1.10652e-07 -1.11427e-07        00000 
 6.54164e-08 -6.39398e-08        00000 
 3.80730e-08 -3.69872e-08        00000 
 2.15514e-08 -2.18184e-08        00000 
 1.14177e-08 -1.32629e-08        00000 
 7.63443e-09 -8.61613e-09        00000 
 1.74023e-08 -6.83545e-09        00000 
 6.56272e-05  5.79913e-05        00000 
 1.21650e-05  6.56433e-05        00000 
 1.76699e-06  7.33431e-05        00000 
 1.37638e-06  7.82677e-05        00000 
 7.12212e-07  8.10295e-05        00000 
-9.36563e-07  8.15760e-05        00000 
-3.13261e-06  7.95578e-05        00000 
-5.38639e-06  7.47871e-05        00000 
-7.26700e-06  6.75049e-05        00000 
-8.47484e-06  5.83714e-05        00000 
-8.88634e-06  4.82990e-05        00000 
-8.55191e-06  3.82350e-05        00000 
-7.64956e-06  2.89727e-05        00000 
-6.41590e-06  2.10382e-05        00000 
-5.08017e-06  1.46644e-05        00000 
-3.81946e-06  9.83460e-06        00000 
-2.74106e-06  6.36459e-06        00000 
-1.88725e-06  3.98911e-06        00000 
-1.25292e-06  2.43180e-06        00000 
-8.06094e-07  1.44888e-06        00000 
-5.05114e-07  8.48121e-07        00000 
-3.09757e-07  4.90360e-07        00000 
-1.86718e-07  2.81453e-07        00000 
-1.11027e-07  1.61117e-07        00000 
-6.52459e-08  9.24077e-08        00000 
-3.78063e-08  5.34265e-08        00000 
-2.13106e-08  3.14945e-08        00000 
-1.14146e-08  1.94300e-08        00000 
-7.90130e-09  1.33317e-08        00000 
-1.71133e-08  1.02552e-08        00000 
-7.59132e-05 -8.22088e-05        00000 
-1.48827e-05 -9.35039e-05        00000 
-2.97240e-06 -1.04164e-04        00000 
-2.40185e-06 -1.11188e-04        00000 
-1.44002e-06 -1.15535e-04        00000 
 7.46689e-07 -1.16747e-04        00000 
 3.66349e-06 -1.14072e-04        00000 
 6.64489e-06 -1.07202e-04        00000 
 9.09524e-06 -9.65365e-05        00000 
 1.06118e-05 -8.31206e-05        00000 
 1.10487e-05 -6.83675e-05        00000 
 1.05047e-05 -5.37177e-05        00000 
 9.24718e-06 -4.03501e-05        00000 
 7.60925e-06 -2.90167e-05        00000 
 5.89664e-06 -2.00182e-05        00000 
 4.33086e-06 -1.32851e-05        00000 
 3.03277e-06 -8.51027e-06        00000 
 2.03680e-06 -5.28382e-06        00000 
 1.31966e-06 -3.19475e-06        00000 
 8.29783e-07 -1.89095e-06        00000 
 5.09323e-07 -1.10166e-06        00000 
 3.06856e-07 -6.35117e-07        00000 
 1.82335e-07 -3.64086e-07        00000 
 1.07242e-07 -2.08414e-07        00000 
 6.25300e-08 -1.19610e-07        00000 
 3.60390e-08 -6.92071e-08        00000 
 2.02633e-08 -4.08592e-08        00000 
 1.08922e-08 -2.53762e-08        00000 
 7.58692e-09 -1.76454e-08        00000 
 1.61579e-08 -1.35344e-08        00000 
 8.95559e-05  1.10190e-04        00000 
 1.82850e-05  1.25639e-04        00000 
 4.64412e-06  1.40348e-04        00000 
 4.02917e-06  1.50489e-04        00000 
 2.66167e-06  1.57189e-04        00000 
-3.69372e-07  1.59508e-04        00000 
-4.38051e-06  1.56173e-04        00000 
-8.44539e-06  1.46694e-04        00000 
-1.17248e-05  1.31697e-04        00000 
-1.36678e-05  1.12780e-04        00000 
-1.41055e-05  9.20610e-05        00000 
-1.32209e-05  7.16513e-05        00000 
-1.14245e-05  5.32295e-05        00000 
-9.19542e-06  3.78139e-05        00000 
-6.94948e-06  2.57530e-05        00000 
-4.96624e-06  1.68697e-05        00000 
-3.37838e-06  1.06719e-05        00000 
-2.20258e-06  6.55087e-06        00000 
-1.38586e-06  3.92278e-06        00000 
-8.47530e-07  2.30461e-06        00000 
-5.07311e-07  1.33590e-06        00000 
-2.99137e-07  7.68057e-07        00000 
-1.74691e-07  4.39937e-07        00000 
-1.01409e-07  2.51961e-07        00000 
-5.85846e-08  1.44772e-07        00000 
-3.35635e-08  8.38804e-08        00000 
-1.88159e-08  4.96107e-08        00000 
-1.01187e-08  3.09181e-08        00000 
-7.04288e-09  2.15996e-08        00000 
-1.48875e-08  1.65834e-08        00000 
-1.07178e-04 -1.43059e-04        00000 
-2.27860e-05 -1.63581e-04        00000 
-7.07683e-06 -1.83680e-04        00000 
-6.51375e-06 -1.98357e-04        00000 
-4.58662e-06 -2.08628e-04        00000 
-3.00191e-07 -2.12784e-04        00000 
 5.34066e-06 -2.08817e-04        00000 
 1.09969e-05 -1.95987e-04        00000 
 1.54640e-05 -1.75275e-04        00000 
 1.79796e-05 -1.49091e-04        00000 
 1.83586e-05 -1.20567e-04        00000 
 1.69293e-05 -9.27513e-05        00000 
 1.43272e-05 -6.79782e-05        00000 
 1.12500e-05 -4.75761e-05        00000 
 8.26682e-06 -3.18971e-05        00000 
 5.72831e-06 -2.05683e-05        00000 
 3.77104e-06 -1.28185e-05        00000 
 2.37685e-06 -7.76411e-06        00000 
 1.44611e-06 -4.59835e-06        00000 
 8.56550e-07 -2.67952e-06        00000 
 4.98085e-07 -1.54520e-06        00000 
 2.86529e-07 -8.86226e-07        00000 
 1.64052e-07 -5.07457e-07        00000 
 9.38375e-08 -2.90921e-07        00000 
 5.36564e-08 -1.67419e-07        00000 
 3.05384e-08 -9.71627e-08        00000 
 1.70593e-08 -5.75651e-08        00000 
 9.16336e-09 -3.59532e-08        00000 
 6.36299e-09 -2.51742e-08        00000 
 1.33856e-08 -1.93480e-08        00000 
 1.29308e-04  1.82020e-04        00000 
 2.87456e-05  2.08903e-04        00000 
 1.06804e-05  2.36228e-04        00000 
 1.02828e-05  2.57489e-04        00000 
 7.55821e-06  2.73176e-04        00000 
 1.42274e-06  2.80310e-04        00000 
-6.62051e-06  2.75796e-04        00000 
-1.45948e-05  2.58558e-04        00000 
-2.07444e-05  2.30134e-04        00000 
-2.40065e-05  1.94162e-04        00000 
-2.42025e-05  1.55256e-04        00000 
-2.19087e-05  1.17778e-04        00000 
-1.81139e-05  8.49324e-05        00000 
-1.38371e-05  5.83926e-05        00000 
-9.85519e-06  3.84265e-05        00000 
-6.59853e-06  2.43244e-05        00000 
-4.18772e-06  1.48989e-05        00000 
-2.54145e-06  8.88878e-06        00000 
-1.48905e-06  5.20146e-06        00000 
-8.50882e-07  3.00547e-06        00000 
-4.79017e-07  1.72475e-06        00000 
-2.68097e-07  9.87399e-07        00000 
-1.50200e-07  5.65575e-07        00000 
-8.45490e-08  3.24728e-07        00000 
-4.78141e-08  1.87225e-07        00000 
-2.70200e-08  1.08848e-07        00000 
-1.50310e-08  6.45899e-08        00000 
-8.05682e-09  4.04033e-08        00000 
-5.57749e-09  2.83289e-08        00000 
-1.16843e-08  2.17882e-08        00000 
-1.56453e-04 -2.28309e-04        00000 
-3.66019e-05 -2.63276e-04        00000 
-1.60459e-05 -3.00389e-04        00000 
-1.59908e-05 -3.31238e-04        00000 
-1.21088e-05 -3.55106e-04        00000 
-3.24574e-06 -3.66967e-04        00000 
 8.33543e-06 -3.62082e-04        00000 
 1.96797e-05 -3.38922e-04        00000 
 2.81978e-05 -2.99917e-04        00000 
 3.24029e-05 -2.50575e-04        00000 
 3.21765e-05 -1.97698e-04        00000 
 2.85171e-05 -1.47510e-04        00000 
 2.29656e-05 -1.04355e-04        00000 
 1.70099e-05 -7.02592e-05        00000 
 1.16989e-05 -4.52414e-05        00000 
 7.53801e-06 -2.80342e-05        00000 
 4.59193e-06 -1.68385e-05        00000 
 2.67118e-06 -9.88128e-06        00000 
 1.50045e-06 -5.71035e-06        00000 
 8.23747e-07 -3.27288e-06        00000 
 4.47396e-07 -1.87068e-06        00000 
 2.42980e-07 -1.07004e-06        00000 
 1.32970e-07 -6.13608e-07        00000 
 7.35791e-08 -3.53006e-07        00000 
 4.11214e-08 -2.03947e-07        00000 
 2.30568e-08 -1.18776e-07        00000 
 1.27629e-08 -7.05780e-08        00000 
 6.82047e-09 -4.42010e-08        00000 
 4.70297e-09 -3.10208e-08        00000 
 9.80795e-09 -2.38700e-08        00000 
 1.89033e-04  2.83106e-04        00000 
 4.69322e-05  3.28432e-04        00000 
 2.40431e-05  3.78938e-04        00000 
 2.46242e-05  4.23791e-04        00000 
 1.90502e-05  4.59987e-04        00000 
 6.14671e-06  4.79234e-04        00000 
-1.06628e-05  4.74297e-04        00000 
-2.69165e-05  4.43028e-04        00000 
-3.87584e-05  3.89298e-04        00000 
-4.41053e-05  3.21489e-04        00000 
-4.30154e-05  2.49662e-04        00000 
-3.72043e-05  1.82684e-04        00000 
-2.90765e-05  1.26369e-04        00000 
-2.07941e-05  8.30280e-05        00000 
-1.37463e-05  5.21392e-05        00000 
-8.48053e-06  3.15369e-05        00000 
-4.93196e-06  1.85384e-05        00000 
-2.73469e-06  1.06914e-05        00000 
-1.46466e-06  6.10347e-06        00000 
-7.68684e-07  3.47389e-06        00000 
-4.01100e-07  1.98053e-06        00000 
-2.10723e-07  1.13340e-06        00000 
-1.12398e-07  6.51231e-07        00000 
-6.10424e-08  3.75531e-07        00000 
-3.36673e-08  2.17409e-07        00000 
-1.87037e-08  1.26814e-07        00000 
-1.02875e-08  7.54407e-08        00000 
-5.47365e-09  4.72887e-08        00000 
-3.75342e-09  3.32109e-08        00000 
-7.78236e-09  2.55635e-08        00000 
-2.27234e-04 -3.47380e-04        00000 
-6.05053e-05 -4.06063e-04        00000 
-3.59572e-05 -4.75044e-04        00000 
-3.76677e-05 -5.40413e-04        00000 
-2.96181e-05 -5.95158e-04        00000 
-1.07013e-05 -6.25823e-04        00000 
 1.38805e-05 -6.21367e-04        00000 
 3.73207e-05 -5.78792e-04        00000 
 5.38179e-05 -5.04301e-04        00000 
 6.04569e-05 -4.10748e-04        00000 
 5.77109e-05 -3.13071e-04        00000 
 4.85165e-05 -2.23884e-04        00000 
 3.66259e-05 -1.50850e-04        00000 
 2.51562e-05 -9.63407e-05        00000 
 1.58888e-05 -5.87860e-05        00000 
 9.32353e-06 -3.46100e-05        00000 
 5.13961e-06 -1.98805e-05        00000 
 2.69612e-06 -1.12677e-05        00000 
 1.36647e-06 -6.36280e-06        00000 
 6.80698e-07 -3.60382e-06        00000 
 3.39119e-07 -2.05361e-06        00000 
 1.71460e-07 -1.17751e-06        00000 
 8.87643e-08 -6.78417e-07        00000 
 4.71372e-08 -3.92184e-07        00000 
 2.55642e-08 -2.27477e-07        00000 
 1.40218e-08 -1.32858e-07        00000 
 7.63839e-09 -7.91054e-08        00000 
 4.03538e-09 -4.96193e-08        00000 
 2.74265e-09 -3.48667e-08        00000 
 5.63599e-09 -2.68443e-08        00000 
 2.70767e-04  4.21610e-04        00000 
 7.83372e-05  4.97592e-04        00000 
 5.36808e-05  5.92227e-04        00000 
 5.73583e-05  6.87729e-04        00000 
 4.57051e-05  7.70373e-04        00000 
 1.77943e-05  8.18585e-04        00000 
-1.84312e-05  8.15463e-04        00000 
-5.24638e-05  7.56835e-04        00000 
-7.54704e-05  6.52711e-04        00000 
-8.33876e-05  5.22952e-04        00000 
-7.75822e-05  3.89862e-04        00000 
-6.30768e-05  2.71349e-04        00000 
-4.57232e-05  1.77273e-04        00000 
-2.99537e-05  1.09546e-04        00000 
-1.79334e-05  6.46923e-05        00000 
-9.92003e-06  3.69735e-05        00000 
-5.13170e-06  2.07375e-05        00000 
-2.51877e-06  1.15655e-05        00000 
-1.19377e-06  6.47789e-06        00000 
-5.57527e-07  3.66245e-06        00000 
-2.61969e-07  2.09118e-06        00000 
-1.25974e-07  1.20308e-06        00000 
-6.25760e-08  6.95333e-07        00000 
-3.21246e-08  4.02901e-07        00000 
-1.69393e-08  2.34047e-07        00000 
-9.07533e-09  1.36822e-07        00000 
-4.85056e-09  8.15158e-08        00000 
-2.52514e-09  5.11568e-08        00000 
-1.68502e-09  3.59634e-08        00000 
-3.39983e-09  2.76938e-08        00000 
-3.18484e-04 -5.05348e-04        00000 
-1.01745e-04 -6.03787e-04        00000 
-7.99768e-05 -7.34218e-04        00000 
-8.70728e-05 -8.74062e-04        00000 
-7.02388e-05 -9.98711e-04        00000 
-2.88071e-05 -1.07382e-03        00000 
 2.50319e-05 -1.07337e-03        00000 
 7.48184e-05 -9.91527e-04        00000 
 1.06904e-04 -8.44563e-04        00000 
 1.15675e-04 -6.63454e-04        00000 
 1.04345e-04 -4.81705e-04        00000 
 8.15204e-05 -3.24645e-04        00000 
 5.63051e-05 -2.04495e-04        00000 
 3.48614e-05 -1.21609e-04        00000 
 1.95720e-05 -6.92037e-05        00000 
 1.00762e-05 -3.83111e-05        00000 
 4.81719e-06 -2.09944e-05        00000 
 2.17160e-06 -1.15585e-05        00000 
 9.40898e-07 -6.44987e-06        00000 
 4.00807e-07 -3.65469e-06        00000 
 1.71876e-07 -2.09621e-06        00000 
 7.56366e-08 -1.21119e-06        00000 
 3.44917e-08 -7.02194e-07        00000 
 1.62940e-08 -4.07634e-07        00000 
 7.92308e-09 -2.37034e-07        00000 
 3.92993e-09 -1.38645e-07        00000 
 1.96033e-09 -8.26342e-08        00000 
 9.63416e-10 -5.18782e-08        00000 
 5.95729e-10 -3.64852e-08        00000 
 1.10690e-09 -2.80998e-08        00000 
 3.67800e-04  5.96527e-04        00000 
 1.32368e-04  7.24120e-04        00000 
 1.18817e-04  9.04616e-04        00000 
 1.31919e-04  1.10980e-03        00000 
 1.07817e-04  1.29783e-03        00000 
 4.59476e-05  1.41424e-03        00000 
-3.48641e-05  1.41853e-03        00000 
-1.08353e-04  1.30247e-03        00000 
-1.53043e-04  1.09273e-03        00000 
-1.61316e-04  8.38170e-04        00000 
-1.40142e-04  5.89452e-04        00000 
-1.04332e-04  3.82158e-04        00000 
-6.79598e-05  2.30471e-04        00000 
-3.92723e-05  1.31036e-04        00000 
-2.03566e-05  7.15289e-05        00000 
-9.56160e-06  3.83157e-05        00000 
-4.11259e-06  2.05776e-05        00000 
-1.63855e-06  1.12502e-05        00000 
-6.12194e-07  6.29384e-06        00000 
-2.16686e-07  3.58999e-06        00000 
-7.25853e-08  2.07250e-06        00000 
-2.21765e-08  1.20292e-06        00000 
-5.21429e-09  6.99135e-07        00000 
 7.10420e-11  4.06317e-07        00000 
 1.35618e-09  2.36377e-07        00000 
 1.34669e-09  1.38294e-07        00000 
 9.93468e-10  8.24433e-08        00000 
 6.27748e-10  5.17739e-08        00000 
 5.09139e-10  3.64251e-08        00000 
 1.20827e-09  2.80572e-08        00000 
-4.13867e-04 -6.90475e-04        00000 
-1.72074e-04 -8.55729e-04        00000 
-1.75765e-04 -1.10617e-03        00000 
-1.99640e-04 -1.40767e-03        00000 
-1.65808e-04 -1.69171e-03        00000 
-7.28618e-05 -1.87185e-03        00000 
 4.99126e-05 -1.88413e-03        00000 
 1.59592e-04 -1.71661e-03        00000 
 2.21614e-04 -1.41353e-03        00000 
 2.26026e-04 -1.05298e-03        00000 
 1.87453e-04 -7.12121e-04        00000 
 1.31497e-04 -4.40323e-04        00000 
 7.96450e-05 -2.51929e-04        00000 
 4.21842e-05 -1.35860e-04        00000 
 1.97002e-05 -7.08337e-05        00000 
 8.14324e-06 -3.67690e-05        00000 
 2.96736e-06 -1.94919e-05        00000 
 9.29157e-07 -1.06837e-05        00000 
 2.24136e-07 -6.03798e-06        00000 
 1.53559e-08 -3.48017e-06        00000 
-3.13023e-08 -2.02358e-06        00000 
-3.26470e-08 -1.17889e-06        00000 
-2.46164e-08 -6.86134e-07        00000 
-1.67131e-08 -3.98888e-07        00000 
-1.07717e-08 -2.32054e-07        00000 
-6.68226e-09 -1.35767e-07        00000 
-3.96840e-09 -8.09484e-08        00000 
-2.22446e-09 -5.08478e-08        00000 
-1.61262e-09 -3.57856e-08        00000 
-3.51028e-09 -2.75674e-08        00000 
 4.48477e-04  7.78571e-04        00000 
 2.22563e-04  9.91845e-04        00000 
 2.58252e-04  1.33937e-03        00000 
 3.01986e-04  1.78272e-03        00000 
 2.56345e-04  2.21304e-03        00000 
 1.15828e-04  2.49250e-03        00000 
-7.35963e-05  2.51797e-03        00000 
-2.39593e-04  2.27139e-03        00000 
-3.24958e-04  1.82722e-03        00000 
-3.17855e-04  1.31232e-03        00000 
-2.48661e-04  8.45121e-04        00000 
-1.61817e-04  4.92531e-04        00000 
-8.92788e-05  2.64095e-04        00000 
-4.21157e-05  1.33790e-04        00000 
-1.69383e-05  6.64386e-05        00000 
-5.65349e-06  3.36512e-05        00000 
-1.39694e-06  1.78528e-05        00000 
-8.66158e-08  9.94039e-06        00000 
 1.95556e-07  5.71734e-06        00000 
 1.90845e-07  3.33571e-06        00000 
 1.35327e-07  1.95136e-06        00000 
 8.73717e-08  1.13910e-06        00000 
 5.44830e-08  6.63067e-07        00000 
 3.33966e-08  3.85333e-07        00000 
 2.01904e-08  2.24103e-07        00000 
 1.19968e-08  1.31106e-07        00000 
 6.91776e-09  7.81774e-08        00000 
 3.80105e-09  4.91176e-08        00000 
 2.69712e-09  3.45779e-08        00000 
 5.76357e-09  2.66389e-08        00000 
-4.58828e-04 -8.46714e-04        00000 
-2.84280e-04 -1.11947e-03        00000 
-3.75327e-04 -1.59964e-03        00000 
-4.56750e-04 -2.25126e-03        00000 
-4.00081e-04 -2.90642e-03        00000 
-1.86238e-04 -3.34313e-03        00000 
 1.12009e-04 -3.39035e-03        00000 
 3.67812e-04 -3.01943e-03        00000 
 4.83155e-04 -2.35789e-03        00000 
 4.47688e-04 -1.61606e-03        00000 
 3.24820e-04 -9.77201e-04        00000 
 1.91662e-04 -5.27752e-04        00000 
 9.32525e-05 -2.60696e-04        00000 
 3.71566e-05 -1.22657e-04        00000 
 1.15018e-05 -5.81451e-05        00000 
 2.09349e-06 -2.92571e-05        00000 
-4.87463e-07 -1.58938e-05        00000 