<?xml version="1.0" encoding="utf-8"?>
<VTKFile byte_order="LittleEndian" type="UnstructuredGrid" version="0.1">
   <UnstructuredGrid>
      <Piece NumberOfCells="3364" NumberOfPoints="1741">
         <Points>
            <DataArray Name="Points" NumberOfComponents="3" format="ascii" type="Float32">
0.0000 1.0000 0.0000
0.0000 1.0345 0.0000
0.0000 1.0690 0.0000
0.0000 1.1034 0.0000
0.0000 1.1379 0.0000
0.0000 1.1724 0.0000
0.0000 1.2069 0.0000
0.0000 1.2414 0.0000
0.0000 1.2759 0.0000
0.0000 1.3103 0.0000
0.0000 1.3448 0.0000
0.0000 1.3793 0.0000
0.0000 1.4138 0.0000
0.0000 1.4483 0.0000
0.0000 1.4828 0.0000
0.0000 1.5172 0.0000
0.0000 1.5517 0.0000
0.0000 1.5862 0.0000
0.0000 1.6207 0.0000
0.0000 1.6552 0.0000
0.0000 1.6897 0.0000
0.0000 1.7241 0.0000
0.0000 1.7586 0.0000
0.0000 1.7931 0.0000
0.0000 1.8276 0.0000
0.0000 1.8621 0.0000
0.0000 1.8966 0.0000
0.0000 1.9310 0.0000
0.0000 1.9655 0.0000
0.0000 2.0000 0.0000
0.0690 1.0000 0.0000
0.0690 1.0345 0.0000
0.0690 1.0690 0.0000
0.0690 1.1034 0.0000
0.0690 1.1379 0.0000
0.0690 1.1724 0.0000
0.0690 1.2069 0.0000
0.0690 1.2414 0.0000
0.0690 1.2759 0.0000
0.0690 1.3103 0.0000
0.0690 1.3448 0.0000
0.0690 1.3793 0.0000
0.0690 1.4138 0.0000
0.0690 1.4483 0.0000
0.0690 1.4828 0.0000
0.0690 1.5172 0.0000
0.0690 1.5517 0.0000
0.0690 1.5862 0.0000
0.0690 1.6207 0.0000
0.0690 1.6552 0.0000
0.0690 1.6897 0.0000
0.0690 1.7241 0.0000
0.0690 1.7586 0.0000
0.0690 1.7931 0.0000
0.0690 1.8276 0.0000
0.0690 1.8621 0.0000
0.0690 1.8966 0.0000
0.0690 1.9310 0.0000
0.0690 1.9655 0.0000
0.0690 2.0000 0.0000
0.1379 1.0000 0.0000
0.1379 1.0345 0.0000
0.1379 1.0690 0.0000
0.1379 1.1034 0.0000
0.1379 1.1379 0.0000
0.1379 1.1724 0.0000
0.1379 1.2069 0.0000
0.1379 1.2414 0.0000
0.1379 1.2759 0.0000
0.1379 1.3103 0.0000
0.1379 1.3448 0.0000
0.1379 1.3793 0.0000
0.1379 1.4138 0.0000
0.1379 1.4483 0.0000
0.1379 1.4828 0.0000
0.1379 1.5172 0.0000
0.1379 1.5517 0.0000
0.1379 1.5862 0.0000
0.1379 1.6207 0.0000
0.1379 1.6552 0.0000
0.1379 1.6897 0.0000
0.1379 1.7241 0.0000
0.1379 1.7586 0.0000
0.1379 1.7931 0.0000
0.1379 1.8276 0.0000
0.1379 1.8621 0.0000
0.1379 1.8966 0.0000
0.1379 1.9310 0.0000
0.1379 1.9655 0.0000
0.1379 2.0000 0.0000
0.2069 1.0000 0.0000
0.2069 1.0345 0.0000
0.2069 1.0690 0.0000
0.2069 1.1034 0.0000
0.2069 1.1379 0.0000
0.2069 1.1724 0.0000
0.2069 1.2069 0.0000
0.2069 1.2414 0.0000
0.2069 1.2759 0.0000
0.2069 1.3103 0.0000
0.2069 1.3448 0.0000
0.2069 1.3793 0.0000
0.2069 1.4138 0.0000
0.2069 1.4483 0.0000
0.2069 1.4828 0.0000
0.2069 1.5172 0.0000
0.2069 1.5517 0.0000
0.2069 1.5862 0.0000
0.2069 1.6207 0.0000
0.2069 1.6552 0.0000
0.2069 1.6897 0.0000
0.2069 1.7241 0.0000
0.2069 1.7586 0.0000
0.2069 1.7931 0.0000
0.2069 1.8276 0.0000
0.2069 1.8621 0.0000
0.2069 1.8966 0.0000
0.2069 1.9310 0.0000
0.2069 1.9655 0.0000
0.2069 2.0000 0.0000
0.2759 1.0000 0.0000
0.2759 1.0345 0.0000
0.2759 1.0690 0.0000
0.2759 1.1034 0.0000
0.2759 1.1379 0.0000
0.2759 1.1724 0.0000
0.2759 1.2069 0.0000
0.2759 1.2414 0.0000
0.2759 1.2759 0.0000
0.2759 1.3103 0.0000
0.2759 1.3448 0.0000
0.2759 1.3793 0.0000
0.2759 1.4138 0.0000
0.2759 1.4483 0.0000
0.2759 1.4828 0.0000
0.2759 1.5172 0.0000
0.2759 1.5517 0.0000
0.2759 1.5862 0.0000
0.2759 1.6207 0.0000
0.2759 1.6552 0.0000
0.2759 1.6897 0.0000
0.2759 1.7241 0.0000
0.2759 1.7586 0.0000
0.2759 1.7931 0.0000
0.2759 1.8276 0.0000
0.2759 1.8621 0.0000
0.2759 1.8966 0.0000
0.2759 1.9310 0.0000
0.2759 1.9655 0.0000
0.2759 2.0000 0.0000
0.3448 1.0000 0.0000
0.3448 1.0345 0.0000
0.3448 1.0690 0.0000
0.3448 1.1034 0.0000
0.3448 1.1379 0.0000
0.3448 1.1724 0.0000
0.3448 1.2069 0.0000
0.3448 1.2414 0.0000
0.3448 1.2759 0.0000
0.3448 1.3103 0.0000
0.3448 1.3448 0.0000
0.3448 1.3793 0.0000
0.3448 1.4138 0.0000
0.3448 1.4483 0.0000
0.3448 1.4828 0.0000
0.3448 1.5172 0.0000
0.3448 1.5517 0.0000
0.3448 1.5862 0.0000
0.3448 1.6207 0.0000
0.3448 1.6552 0.0000
0.3448 1.6897 0.0000
0.3448 1.7241 0.0000
0.3448 1.7586 0.0000
0.3448 1.7931 0.0000
0.3448 1.8276 0.0000
0.3448 1.8621 0.0000
0.3448 1.8966 0.0000
0.3448 1.9310 0.0000
0.3448 1.9655 0.0000
0.3448 2.0000 0.0000
0.4138 1.0000 0.0000
0.4138 1.0345 0.0000
0.4138 1.0690 0.0000
0.4138 1.1034 0.0000
0.4138 1.1379 0.0000
0.4138 1.1724 0.0000
0.4138 1.2069 0.0000
0.4138 1.2414 0.0000
0.4138 1.2759 0.0000
0.4138 1.3103 0.0000
0.4138 1.3448 0.0000
0.4138 1.3793 0.0000
0.4138 1.4138 0.0000
0.4138 1.4483 0.0000
0.4138 1.4828 0.0000
0.4138 1.5172 0.0000
0.4138 1.5517 0.0000
0.4138 1.5862 0.0000
0.4138 1.6207 0.0000
0.4138 1.6552 0.0000
0.4138 1.6897 0.0000
0.4138 1.7241 0.0000
0.4138 1.7586 0.0000
0.4138 1.7931 0.0000
0.4138 1.8276 0.0000
0.4138 1.8621 0.0000
0.4138 1.8966 0.0000
0.4138 1.9310 0.0000
0.4138 1.9655 0.0000
0.4138 2.0000 0.0000
0.4828 1.0000 0.0000
0.4828 1.0345 0.0000
0.4828 1.0690 0.0000
0.4828 1.1034 0.0000
0.4828 1.1379 0.0000
0.4828 1.1724 0.0000
0.4828 1.2069 0.0000
0.4828 1.2414 0.0000
0.4828 1.2759 0.0000
0.4828 1.3103 0.0000
0.4828 1.3448 0.0000
0.4828 1.3793 0.0000
0.4828 1.4138 0.0000
0.4828 1.4483 0.0000
0.4828 1.4828 0.0000
0.4828 1.5172 0.0000
0.4828 1.5517 0.0000
0.4828 1.5862 0.0000
0.4828 1.6207 0.0000
0.4828 1.6552 0.0000
0.4828 1.6897 0.0000
0.4828 1.7241 0.0000
0.4828 1.7586 0.0000
0.4828 1.7931 0.0000
0.4828 1.8276 0.0000
0.4828 1.8621 0.0000
0.4828 1.8966 0.0000
0.4828 1.9310 0.0000
0.4828 1.9655 0.0000
0.4828 2.0000 0.0000
0.5517 1.0000 0.0000
0.5517 1.0345 0.0000
0.5517 1.0690 0.0000
0.5517 1.1034 0.0000
0.5517 1.1379 0.0000
0.5517 1.1724 0.0000
0.5517 1.2069 0.0000
0.5517 1.2414 0.0000
0.5517 1.2759 0.0000
0.5517 1.3103 0.0000
0.5517 1.3448 0.0000
0.5517 1.3793 0.0000
0.5517 1.4138 0.0000
0.5517 1.4483 0.0000
0.5517 1.4828 0.0000
0.5517 1.5172 0.0000
0.5517 1.5517 0.0000
0.5517 1.5862 0.0000
0.5517 1.6207 0.0000
0.5517 1.6552 0.0000
0.5517 1.6897 0.0000
0.5517 1.7241 0.0000
0.5517 1.7586 0.0000
0.5517 1.7931 0.0000
0.5517 1.8276 0.0000
0.5517 1.8621 0.0000
0.5517 1.8966 0.0000
0.5517 1.9310 0.0000
0.5517 1.9655 0.0000
0.5517 2.0000 0.0000
0.6207 1.0000 0.0000
0.6207 1.0345 0.0000
0.6207 1.0690 0.0000
0.6207 1.1034 0.0000
0.6207 1.1379 0.0000
0.6207 1.1724 0.0000
0.6207 1.2069 0.0000
0.6207 1.2414 0.0000
0.6207 1.2759 0.0000
0.6207 1.3103 0.0000
0.6207 1.3448 0.0000
0.6207 1.3793 0.0000
0.6207 1.4138 0.0000
0.6207 1.4483 0.0000
0.6207 1.4828 0.0000
0.6207 1.5172 0.0000
0.6207 1.5517 0.0000
0.6207 1.5862 0.0000
0.6207 1.6207 0.0000
0.6207 1.6552 0.0000
0.6207 1.6897 0.0000
0.6207 1.7241 0.0000
0.6207 1.7586 0.0000
0.6207 1.7931 0.0000
0.6207 1.8276 0.0000
0.6207 1.8621 0.0000
0.6207 1.8966 0.0000
0.6207 1.9310 0.0000
0.6207 1.9655 0.0000
0.6207 2.0000 0.0000
0.6897 1.0000 0.0000
0.6897 1.0345 0.0000
0.6897 1.0690 0.0000
0.6897 1.1034 0.0000
0.6897 1.1379 0.0000
0.6897 1.1724 0.0000
0.6897 1.2069 0.0000
0.6897 1.2414 0.0000
0.6897 1.2759 0.0000
0.6897 1.3103 0.0000
0.6897 1.3448 0.0000
0.6897 1.3793 0.0000
0.6897 1.4138 0.0000
0.6897 1.4483 0.0000
0.6897 1.4828 0.0000
0.6897 1.5172 0.0000
0.6897 1.5517 0.0000
0.6897 1.5862 0.0000
0.6897 1.6207 0.0000
0.6897 1.6552 0.0000
0.6897 1.6897 0.0000
0.6897 1.7241 0.0000
0.6897 1.7586 0.0000
0.6897 1.7931 0.0000
0.6897 1.8276 0.0000
0.6897 1.8621 0.0000
0.6897 1.8966 0.0000
0.6897 1.9310 0.0000
0.6897 1.9655 0.0000
0.6897 2.0000 0.0000
0.7586 1.0000 0.0000
0.7586 1.0345 0.0000
0.7586 1.0690 0.0000
0.7586 1.1034 0.0000
0.7586 1.1379 0.0000
0.7586 1.1724 0.0000
0.7586 1.2069 0.0000
0.7586 1.2414 0.0000
0.7586 1.2759 0.0000
0.7586 1.3103 0.0000
0.7586 1.3448 0.0000
0.7586 1.3793 0.0000
0.7586 1.4138 0.0000
0.7586 1.4483 0.0000
0.7586 1.4828 0.0000
0.7586 1.5172 0.0000
0.7586 1.5517 0.0000
0.7586 1.5862 0.0000
0.7586 1.6207 0.0000
0.7586 1.6552 0.0000
0.7586 1.6897 0.0000
0.7586 1.7241 0.0000
0.7586 1.7586 0.0000
0.7586 1.7931 0.0000
0.7586 1.8276 0.0000
0.7586 1.8621 0.0000
0.7586 1.8966 0.0000
0.7586 1.9310 0.0000
0.7586 1.9655 0.0000
0.7586 2.0000 0.0000
0.8276 1.0000 0.0000
0.8276 1.0345 0.0000
0.8276 1.0690 0.0000
0.8276 1.1034 0.0000
0.8276 1.1379 0.0000
0.8276 1.1724 0.0000
0.8276 1.2069 0.0000
0.8276 1.2414 0.0000
0.8276 1.2759 0.0000
0.8276 1.3103 0.0000
0.8276 1.3448 0.0000
0.8276 1.3793 0.0000
0.8276 1.4138 0.0000
0.8276 1.4483 0.0000
0.8276 1.4828 0.0000
0.8276 1.5172 0.0000
0.8276 1.5517 0.0000
0.8276 1.5862 0.0000
0.8276 1.6207 0.0000
0.8276 1.6552 0.0000
0.8276 1.6897 0.0000
0.8276 1.7241 0.0000
0.8276 1.7586 0.0000
0.8276 1.7931 0.0000
0.8276 1.8276 0.0000
0.8276 1.8621 0.0000
0.8276 1.8966 0.0000
0.8276 1.9310 0.0000
0.8276 1.9655 0.0000
0.8276 2.0000 0.0000
0.8966 1.0000 0.0000
0.8966 1.0345 0.0000
0.8966 1.0690 0.0000
0.8966 1.1034 0.0000
0.8966 1.1379 0.0000
0.8966 1.1724 0.0000
0.8966 1.2069 0.0000
0.8966 1.2414 0.0000
0.8966 1.2759 0.0000
0.8966 1.3103 0.0000
0.8966 1.3448 0.0000
0.8966 1.3793 0.0000
0.8966 1.4138 0.0000
0.8966 1.4483 0.0000
0.8966 1.4828 0.0000
0.8966 1.5172 0.0000
0.8966 1.5517 0.0000
0.8966 1.5862 0.0000
0.8966 1.6207 0.0000
0.8966 1.6552 0.0000
0.8966 1.6897 0.0000
0.8966 1.7241 0.0000
0.8966 1.7586 0.0000
0.8966 1.7931 0.0000
0.8966 1.8276 0.0000
0.8966 1.8621 0.0000
0.8966 1.8966 0.0000
0.8966 1.9310 0.0000
0.8966 1.9655 0.0000
0.8966 2.0000 0.0000
0.9655 1.0000 0.0000
0.9655 1.0345 0.0000
0.9655 1.0690 0.0000
0.9655 1.1034 0.0000
0.9655 1.1379 0.0000
0.9655 1.1724 0.0000
0.9655 1.2069 0.0000
0.9655 1.2414 0.0000
0.9655 1.2759 0.0000
0.9655 1.3103 0.0000
0.9655 1.3448 0.0000
0.9655 1.3793 0.0000
0.9655 1.4138 0.0000
0.9655 1.4483 0.0000
0.9655 1.4828 0.0000
0.9655 1.5172 0.0000
0.9655 1.5517 0.0000
0.9655 1.5862 0.0000
0.9655 1.6207 0.0000
0.9655 1.6552 0.0000
0.9655 1.6897 0.0000
0.9655 1.7241 0.0000
0.9655 1.7586 0.0000
0.9655 1.7931 0.0000
0.9655 1.8276 0.0000
0.9655 1.8621 0.0000
0.9655 1.8966 0.0000
0.9655 1.9310 0.0000
0.9655 1.9655 0.0000
0.9655 2.0000 0.0000
1.0345 1.0000 0.0000
1.0345 1.0345 0.0000
1.0345 1.0690 0.0000
1.0345 1.1034 0.0000
1.0345 1.1379 0.0000
1.0345 1.1724 0.0000
1.0345 1.2069 0.0000
1.0345 1.2414 0.0000
1.0345 1.2759 0.0000
1.0345 1.3103 0.0000
1.0345 1.3448 0.0000
[...]
         <PointData>
            <DataArray Name="fValues" NumberOfComponents="3" format="ascii" type="Float64">
-1.34752e-22  2.36595e-22        00000 
 5.39007e-22 -1.88652e-21        00000 
       00000  3.64224e-21        00000 
 4.29717e-22  2.67876e-22        00000 
-4.44176e-22  2.48738e-21        00000 
 1.17431e-21 -4.25819e-21        00000 
 5.33011e-22  1.13709e-20        00000 
-2.39972e-22  6.51831e-21        00000 
 3.10923e-22  1.77670e-22        00000 
 5.24823e-22 -3.15051e-22        00000 
-6.66264e-23 -4.61943e-21        00000 
-8.37112e-24  5.69236e-21        00000 
-3.10923e-22  2.30971e-21        00000 
 1.96536e-22  8.93954e-21        00000 
-7.55099e-22 -1.42136e-21        00000 
-1.39519e-23  1.78584e-22        00000 
-5.33011e-22  9.32769e-21        00000 
-2.58150e-22  8.86442e-22        00000 
-3.10923e-22  1.33253e-21        00000 
-2.24625e-22  1.87792e-21        00000 
-4.21967e-22  4.44176e-22        00000 
 6.91819e-23  1.52473e-21        00000 
-2.66506e-22  9.77187e-22        00000 
-3.48797e-23  3.94838e-22        00000 
-4.99698e-23  1.74894e-22        00000 
-8.71860e-23  1.01188e-22        00000 
 5.55220e-24  1.11044e-23        00000 
-6.29005e-24  3.70414e-23        00000 
 1.39996e-24  6.99978e-25        00000 
 1.43397e-23 -6.99512e-23        00000 
 1.01776e-05  2.89657e-06        00000 
 1.55854e-06  3.08318e-06        00000 
 2.33866e-06  5.23906e-06        00000 
 3.36841e-06  6.99818e-06        00000 
 4.27549e-06  9.07441e-06        00000 
 4.88851e-06  1.15789e-05        00000 
 5.09833e-06  1.43508e-05        00000 
 4.81332e-06  1.71370e-05        00000 
 3.99889e-06  1.96389e-05        00000 
 2.70205e-06  2.15561e-05        00000 
 1.05679e-06  2.26387e-05        00000 
-7.34560e-07  2.27367e-05        00000 
-2.44057e-06  2.18325e-05        00000 
-3.84940e-06  2.00442e-05        00000 
-4.81213e-06  1.75985e-05        00000 
-5.26789e-06  1.47825e-05        00000 
-5.24491e-06  1.18876e-05        00000 
-4.84018e-06  9.16029e-06        00000 
-4.18689e-06  6.77214e-06        00000 
-3.42088e-06  4.81104e-06        00000 
-2.65527e-06  3.29104e-06        00000 
-1.96731e-06  2.17334e-06        00000 
-1.39713e-06  1.39005e-06        00000 
-9.54444e-07  8.64675e-07        00000 
-6.28747e-07  5.26176e-07        00000 
-3.99192e-07  3.16280e-07        00000 
-2.41929e-07  1.91030e-07        00000 
-1.36382e-07  1.15766e-07        00000 
-7.00070e-08  5.47915e-08        00000 
-2.35126e-07  4.89558e-08        00000 
-1.18325e-05 -6.51851e-06        00000 
-3.25204e-06 -7.75611e-06        00000 
-2.88044e-06 -1.04076e-05        00000 
-4.33251e-06 -1.39150e-05        00000 
-5.58037e-06 -1.83125e-05        00000 
-6.43979e-06 -2.36036e-05        00000 
-6.76253e-06 -2.94728e-05        00000 
-6.42161e-06 -3.53983e-05        00000 
-5.36034e-06 -4.07421e-05        00000 
-3.63520e-06 -4.48512e-05        00000 
-1.42703e-06 -4.71773e-05        00000 
 9.84119e-07 -4.73908e-05        00000 
 3.27551e-06 -4.54531e-05        00000 
 5.15254e-06 -4.16247e-05        00000 
 6.41152e-06 -3.64051e-05        00000 
 6.97493e-06 -3.04226e-05        00000 
 6.89096e-06 -2.43085e-05        00000 
 6.30202e-06 -1.85899e-05        00000 
 5.39650e-06 -1.36247e-05        00000 
 4.36110e-06 -9.58639e-06        00000 
 3.34627e-06 -6.48966e-06        00000 
 2.45028e-06 -4.23873e-06        00000 
 1.71997e-06 -2.68051e-06        00000 
 1.16195e-06 -1.64857e-06        00000 
 7.57543e-07 -9.92083e-07        00000 
 4.76297e-07 -5.89679e-07        00000 
 2.85618e-07 -3.51445e-07        00000 
 1.57389e-07 -2.13305e-07        00000 
 1.10072e-07 -1.37388e-07        00000 
 2.61676e-07 -1.08198e-07        00000 
 1.26264e-05  1.00034e-05        00000 
 3.89276e-06  1.22345e-05        00000 
 3.49844e-06  1.59347e-05        00000 
 5.13259e-06  2.12436e-05        00000 
 6.69879e-06  2.82308e-05        00000 
 7.82403e-06  3.67061e-05        00000 
 8.30409e-06  4.61520e-05        00000 
 7.95733e-06  5.57370e-05        00000 
 6.69125e-06  6.44214e-05        00000 
 4.56319e-06  7.11240e-05        00000 
 1.80108e-06  7.49287e-05        00000 
-1.22852e-06  7.52818e-05        00000 
-4.09843e-06  7.21187e-05        00000 
-6.42042e-06  6.58780e-05        00000 
-7.93259e-06  5.73975e-05        00000 
-8.54656e-06  4.77241e-05        00000 
-8.34278e-06  3.78991e-05        00000 
-7.52264e-06  2.87778e-05        00000 
-6.33966e-06  2.09257e-05        00000 
-5.03462e-06  1.45998e-05        00000 
-3.79218e-06  9.79794e-06        00000 
-2.72434e-06  6.34440e-06        00000 
-1.87628e-06  3.97910e-06        00000 
-1.24444e-06  2.42887e-06        00000 
-7.97528e-07  1.45207e-06        00000 
-4.93690e-07  8.58125e-07        00000 
-2.91855e-07  5.09067e-07        00000 
-1.61496e-07  3.12456e-07        00000 
-1.15789e-07  2.11679e-07        00000 
-2.58541e-07  1.61917e-07        00000 
-1.33316e-05 -1.35553e-05        00000 
-4.42185e-06 -1.66996e-05        00000 
-4.22705e-06 -2.17479e-05        00000 
-6.21275e-06 -2.91811e-05        00000 
-8.18562e-06 -3.91801e-05        00000 
-9.69149e-06 -5.14564e-05        00000 
-1.04207e-05 -6.52517e-05        00000 
-1.00989e-05 -7.93511e-05        00000 
-8.56968e-06 -9.22045e-05        00000 
-5.88418e-06 -1.02173e-04        00000 
-2.33701e-06 -1.07851e-04        00000 
 1.57559e-06 -1.08385e-04        00000 
 5.26795e-06 -1.03674e-04        00000 
 8.21040e-06 -9.43982e-05        00000 
 1.00562e-05 -8.18468e-05        00000 
 1.07065e-05 -6.76182e-05        00000 
 1.02970e-05 -5.32810e-05        00000 
 9.12265e-06 -4.00970e-05        00000 
 7.53514e-06 -2.88707e-05        00000 
 5.85268e-06 -1.99345e-05        00000 
 4.30467e-06 -1.32375e-05        00000 
 3.01680e-06 -8.48407e-06        00000 
 2.02633e-06 -5.27083e-06        00000 
 1.31157e-06 -3.19088e-06        00000 
 8.21545e-07 -1.89491e-06        00000 
 4.98278e-07 -1.11430e-06        00000 
 2.89916e-07 -6.59552e-07        00000 
 1.59281e-07 -4.06700e-07        00000 
 1.13326e-07 -2.79107e-07        00000 
 2.45647e-07 -2.12980e-07        00000 
 1.41017e-05  1.71569e-05        00000 
 5.01127e-06  2.12499e-05        00000 
 5.15008e-06  2.78843e-05        00000 
 7.66017e-06  3.78585e-05        00000 
 1.02222e-05  5.14965e-05        00000 
 1.22875e-05  6.84602e-05        00000 
 1.34086e-05  8.77333e-05        00000 
 1.31628e-05  1.07618e-04        00000 
 1.12855e-05  1.25889e-04        00000 
 7.80834e-06  1.40144e-04        00000 
 3.12164e-06  1.48300e-04        00000 
-2.08150e-06  1.49078e-04        00000 
-6.97158e-06  1.42328e-04        00000 
-1.08026e-05  1.29069e-04        00000 
-1.31025e-05  1.11223e-04        00000 
-1.37645e-05  9.11482e-05        00000 
-1.30177e-05  7.11204e-05        00000 
-1.13043e-05  5.29223e-05        00000 
-9.12470e-06  3.76368e-05        00000 
-6.90790e-06  2.56513e-05        00000 
-4.94164e-06  1.68119e-05        00000 
-3.36345e-06  1.06401e-05        00000 
-2.19283e-06  6.53508e-06        00000 
-1.37832e-06  3.91804e-06        00000 
-8.39832e-07  2.30931e-06        00000 
-4.97044e-07  1.35119e-06        00000 
-2.83612e-07  7.98165e-07        00000 
-1.53808e-07  4.93207e-07        00000 
-1.07571e-07  3.40282e-07        00000 
-2.28092e-07  2.60038e-07        00000 
-1.49036e-05 -2.07756e-05        00000 
-5.69821e-06 -2.58952e-05        00000 
-6.30339e-06 -3.43631e-05        00000 
-9.53584e-06 -4.73881e-05        00000 
-1.29334e-05 -6.54986e-05        00000 
-1.58201e-05 -8.83610e-05        00000 
-1.75520e-05 -1.14684e-04        00000 
-1.74792e-05 -1.42162e-04        00000 
-1.51588e-05 -1.67654e-04        00000 
-1.05766e-05 -1.87690e-04        00000 
-4.25702e-06 -1.99214e-04        00000 
 2.81030e-06 -2.00331e-04        00000 
 9.42343e-06 -1.90819e-04        00000 
 1.45081e-05 -1.72188e-04        00000 
 1.74092e-05 -1.47272e-04        00000 
 1.80226e-05 -1.19505e-04        00000 
 1.67330e-05 -9.21350e-05        00000 
 1.42131e-05 -6.76219e-05        00000 
 1.11838e-05 -4.73708e-05        00000 
 8.22824e-06 -3.17792e-05        00000 
 5.70567e-06 -2.05013e-05        00000 
 3.75738e-06 -1.27816e-05        00000 
 2.36797e-06 -7.74576e-06        00000 
 1.43926e-06 -4.59280e-06        00000 
 8.49565e-07 -2.68494e-06        00000 
 4.88826e-07 -1.56304e-06        00000 
 2.72631e-07 -9.21625e-07        00000 
 1.45415e-07 -5.70323e-07        00000 
 9.96609e-08 -3.94899e-07        00000 
 2.06988e-07 -3.02299e-07        00000 
 1.56465e-05  2.43517e-05        00000 
 6.47534e-06  3.05863e-05        00000 
 7.70505e-06  4.11542e-05        00000 
 1.18965e-05  5.78347e-05        00000 
 1.64554e-05  8.14717e-05        00000 
 2.05386e-05  1.11829e-04        00000 
 2.32181e-05  1.47342e-04        00000 
 2.34960e-05  1.84932e-04        00000 
 2.06381e-05  2.20209e-04        00000 
 1.45334e-05  2.48182e-04        00000 
 5.89112e-06  2.64369e-04        00000 
-3.85371e-06  2.65965e-04        00000 
-1.29297e-05  2.52639e-04        00000 
-1.97644e-05  2.26628e-04        00000 
-2.34388e-05  1.92109e-04        00000 
-2.38767e-05  1.54062e-04        00000 
-2.17226e-05  1.17086e-04        00000 
-1.80076e-05  8.45329e-05        00000 
-1.37763e-05  5.81624e-05        00000 
-9.82025e-06  3.82944e-05        00000 
-6.57821e-06  2.42493e-05        00000 
-4.17556e-06  1.48575e-05        00000 
-2.53359e-06  8.86819e-06        00000 
-1.48301e-06  5.19523e-06        00000 
-8.44745e-07  3.01158e-06        00000 
-4.70921e-07  1.74491e-06        00000 
-2.55982e-07  1.02753e-06        00000 
-1.33958e-07  6.36892e-07        00000 
-8.98286e-08  4.42433e-07        00000 
-1.82704e-07  3.39237e-07        00000 
-1.62077e-05 -2.77907e-05        00000 
-7.31192e-06 -3.52197e-05        00000 
-9.35291e-06 -4.81590e-05        00000 
-1.47890e-05 -6.91811e-05        00000 
-2.09406e-05 -9.96299e-05        00000 
-2.67558e-05 -1.39536e-04        00000 
-3.09005e-05 -1.87101e-04        00000 
-3.18437e-05 -2.38283e-04        00000 
-2.83744e-05 -2.86970e-04        00000 
-2.01888e-05 -3.25975e-04        00000 
-8.24578e-06 -3.48707e-04        00000 
 5.34792e-06 -3.50991e-04        00000 
 1.79444e-05 -3.32324e-04        00000 
 2.72109e-05 -2.96044e-04        00000 
 3.18490e-05 -2.48320e-04        00000 
 3.18674e-05 -1.96391e-04        00000 
 2.83447e-05 -1.46754e-04        00000 
 2.28693e-05 -1.03919e-04        00000 
 1.69557e-05 -7.00079e-05        00000 
 1.16682e-05 -4.50971e-05        00000 
 7.52037e-06 -2.79522e-05        00000 
 4.58147e-06 -1.67932e-05        00000 
 2.66447e-06 -9.85878e-06        00000 
 1.49532e-06 -5.70355e-06        00000 
 8.18564e-07 -3.27960e-06        00000 
 4.40581e-07 -1.89287e-06        00000 
 2.32788e-07 -1.11425e-06        00000 
 1.19296e-07 -6.92142e-07        00000 
 7.81710e-08 -4.82417e-07        00000 
 1.55530e-07 -3.70461e-07        00000 
 1.64393e-05  3.09608e-05        00000 
 8.15328e-06  3.96355e-05        00000 
 1.12133e-05  5.51900e-05        00000 
 1.82328e-05  8.12855e-05        00000 
 2.65449e-05  1.20056e-04        00000 
 3.48552e-05  1.72093e-04        00000 
 4.12591e-05  2.35498e-04        00000 
 4.34119e-05  3.05054e-04        00000 
 3.93193e-05  3.72272e-04        00000 
 2.83059e-05  4.26772e-04        00000 
 1.16578e-05  4.58798e-04        00000 
-7.49753e-06  4.62080e-04        00000 
-2.51480e-05  4.35849e-04        00000 
-3.77891e-05  3.85120e-04        00000 
-4.35795e-05  3.19070e-04        00000 
-4.27309e-05  2.48264e-04        00000 
-3.70499e-05  1.81876e-04        00000 
-2.89921e-05  1.25903e-04        00000 
-2.07476e-05  8.27597e-05        00000 
-1.37204e-05  5.19851e-05        00000 
-8.46589e-06  3.14493e-05        00000 
-4.92340e-06  1.84901e-05        00000 
-2.72926e-06  1.06674e-05        00000 
-1.46054e-06  6.09621e-06        00000 
-7.64543e-07  3.48112e-06        00000 
-3.95663e-07  2.00439e-06        00000 
-2.02584e-07  1.18095e-06        00000 
-1.01460e-07  7.35659e-07        00000 
-6.48281e-08  5.14505e-07        00000 
-1.25806e-07  3.95668e-07        00000 
-1.61756e-05 -3.36972e-05        00000 
-8.91500e-06 -4.36165e-05        00000 
-1.32035e-05 -6.19511e-05        00000 
-2.21914e-05 -9.38272e-05        00000 
-3.33984e-05 -1.42609e-04        00000 
-4.52840e-05 -2.09946e-04        00000 
-5.51636e-05 -2.94149e-04        00000 
-5.94547e-05 -3.88628e-04        00000 
-5.48736e-05 -4.81635e-04        00000 
-4.00390e-05 -5.58102e-04        00000 
-1.66452e-05 -6.03467e-04        00000 
 1.06135e-05 -6.08213e-04        00000 
 3.55722e-05 -5.71153e-04        00000 
 5.28978e-05 -4.99890e-04        00000 
 5.99761e-05 -4.08205e-04        00000 
 5.74595e-05 -3.11605e-04        00000 
 4.83842e-05 -2.23039e-04        00000 
 3.65557e-05 -1.50362e-04        00000 
 2.51185e-05 -9.60598e-05        00000 
 1.58684e-05 -5.86247e-05        00000 
 9.31219e-06 -3.45183e-05        00000 
 5.13310e-06 -1.98299e-05        00000 
 2.69207e-06 -1.12425e-05        00000 
 1.36344e-06 -6.35522e-06        00000 
 6.77666e-07 -3.61146e-06        00000 
 3.35139e-07 -2.07875e-06        00000 
 1.65483e-07 -1.22760e-06        00000 
 8.07107e-08 -7.67340e-07        00000 
 5.00178e-08 -5.38465e-07        00000 
 9.39302e-08 -4.14624e-07        00000 
 1.52468e-05  3.58156e-05        00000 
 9.47693e-06  4.68956e-05        00000 
 1.51684e-05  6.80228e-05        00000 
 2.65294e-05  1.06244e-04        00000 
 4.15536e-05  1.66797e-04        00000 
 5.85243e-05  2.53201e-04        00000 
 7.37347e-05  3.64597e-04        00000 
 8.17374e-05  4.92952e-04        00000 
 7.71157e-05  6.22071e-04        00000 
 5.71571e-05  7.29970e-04        00000 
 2.40182e-05  7.94695e-04        00000 
-1.51757e-05  8.01620e-04        00000 
-5.08041e-05  7.48879e-04        00000 
-7.46363e-05  6.48145e-04        00000 
-8.29703e-05  5.20327e-04        00000 
-7.73728e-05  3.88351e-04        00000 
-6.29709e-05  2.70478e-04        00000 
-4.56692e-05  1.76771e-04        00000 
-2.99258e-05  1.09257e-04        00000 
-1.79189e-05  6.45263e-05        00000 
-9.91228e-06  3.68792e-05        00000 
-5.12740e-06  2.06855e-05        00000 
-2.51618e-06  1.15396e-05        00000 
-1.19187e-06  6.47011e-06        00000 
-5.55655e-07  3.67037e-06        00000 
-2.59507e-07  2.11719e-06        00000 
-1.22250e-07  1.25487e-06        00000 
-5.75273e-08  7.87288e-07        00000 
-3.40237e-08  5.54143e-07        00000 
-6.03383e-08  4.27136e-07        00000 
-1.35027e-05 -3.71351e-05        00000 
-9.68121e-06 -4.91769e-05        00000 
-1.68569e-05 -7.28617e-05        00000 
-3.09542e-05 -1.17668e-04        00000 
-5.08942e-05 -1.91603e-04        00000 
-7.50158e-05 -3.01336e-04        00000 
-9.83687e-05 -4.48027e-04        00000 
-1.12735e-04 -6.22443e-04        00000 
-1.09158e-04 -8.02435e-04        00000 
-8.24174e-05 -9.55751e-04        00000 
-3.50700e-05 -1.04892e-03        00000 
 2.19381e-05 -1.05914e-03        00000 
 7.33281e-05 -9.83411e-04        00000 
 1.06196e-04 -8.39924e-04        00000 
 1.15340e-04 -6.60793e-04        00000 
 1.04186e-04 -4.80174e-04        00000 
 8.14448e-05 -3.23763e-04        00000 
 5.62692e-05 -2.03987e-04        00000 
 3.48443e-05 -1.21316e-04        00000 
 1.95638e-05 -6.90357e-05        00000 
 1.00722e-05 -3.82156e-05        00000 
 4.81523e-06 -2.09417e-05        00000 
 2.17053e-06 -1.15322e-05        00000 
 9.40184e-07 -6.44199e-06        00000 
 4.00130e-07 -3.66275e-06        00000 
 1.70975e-07 -2.12263e-06        00000 
 7.42295e-08 -1.26383e-06        00000 
 3.25386e-08 -7.95675e-07        00000 
 1.71610e-08 -5.61419e-07        00000 
 2.54839e-08 -4.33051e-07        00000 
 1.08462e-05  3.75147e-05        00000 
 9.34000e-06  5.01760e-05        00000 
 1.79043e-05  7.58293e-05        00000 
 3.49428e-05  1.26878e-04        00000 
 6.09905e-05  2.15273e-04        00000 
 9.49933e-05  3.52779e-04        00000 
 1.30701e-04  5.44734e-04        00000 
 1.55885e-04  7.81688e-04        00000 
 1.55710e-04  1.03376e-03        00000 
 1.20201e-04  1.25342e-03        00000 
 5.19158e-05  1.38895e-03        00000 
-3.21124e-05  1.40423e-03        00000 
-1.07119e-04  1.29435e-03        00000 
-1.52499e-04  1.08810e-03        00000 
-1.61079e-04  8.35513e-04        00000 
-1.40041e-04  5.87924e-04        00000 
-1.04290e-04  3.81278e-04        00000 
-6.79437e-05  2.29965e-04        00000 
-3.92668e-05  1.30744e-04        00000 
-2.03553e-05  7.13617e-05        00000 
-9.56166e-06  3.82206e-05        00000 
-4.11304e-06  2.05251e-05        00000 
-1.63904e-06  1.12241e-05        00000 
-6.12682e-07  6.28600e-06        00000 
-2.17221e-07  3.59805e-06        00000 
-7.32662e-08  2.09891e-06        00000 
-2.31242e-08  1.25553e-06        00000 
-6.41406e-09  7.92610e-07        00000 
 2.60032e-10  5.60185e-07        00000 
 1.01675e-08  4.32252e-07        00000 
-7.27409e-06 -3.68971e-05        00000 
-8.26047e-06 -4.96829e-05        00000 
-1.78378e-05 -7.62685e-05        00000 
-3.76692e-05 -1.32315e-04        00000 
-7.08859e-05 -2.35094e-04        00000 
-1.18170e-04 -4.04300e-04        00000 
-1.72421e-04 -6.53203e-04        00000 
-2.15877e-04 -9.74704e-04        00000 
-2.23965e-04 -1.32950e-03        00000 
-1.77631e-04 -1.64722e-03        00000 
-7.81205e-05 -1.84689e-03        00000 
 4.76983e-05 -1.87009e-03        00000 
 1.58697e-04 -1.70864e-03        00000 
 2.21268e-04 -1.40898e-03        00000 
 2.25902e-04 -1.05037e-03        00000 
 1.87416e-04 -7.10622e-04        00000 
 1.31492e-04 -4.39460e-04        00000 
 7.96501e-05 -2.51433e-04        00000 
 4.21910e-05 -1.35575e-04        00000 
 1.97060e-05 -7.06699e-05        00000 
 8.14741e-06 -3.66758e-05        00000 
 2.97025e-06 -1.94404e-05        00000 
 9.31222e-07 -1.06580e-05        00000 
 2.25825e-07 -6.03029e-06        00000 
 1.71005e-08 -3.48809e-06        00000 
-2.90375e-08 -2.04952e-06        00000 
-2.93363e-08 -1.23060e-06        00000 
-2.02443e-08 -7.78071e-07        00000 
-1.79576e-08 -5.50366e-07        00000 
-4.61302e-08 -4.24691e-07        00000 
 2.91408e-06  3.53501e-05        00000 
 6.29417e-06  4.76428e-05        00000 
 1.61312e-05  7.36512e-05        00000 
 3.79688e-05  1.32215e-04        00000 
 7.88183e-05  2.47264e-04        00000 
 1.43173e-04  4.50224e-04        00000 
 2.24745e-04  7.68598e-04        00000 
 2.98860e-04  1.20339e-03        00000 
 3.25002e-04  1.70530e-03        00000 
 2.66603e-04  2.17001e-03        00000 
 1.19916e-04  2.46856e-03        00000 
-7.21067e-05  2.50449e-03        00000 
-2.39109e-04  2.26372e-03        00000 
-3.24837e-04  1.82283e-03        00000 
-3.17855e-04  1.30979e-03        00000 
-2.48694e-04  8.43674e-04        00000 
-1.61851e-04  4.91700e-04        00000 
-8.93065e-05  2.63618e-04        00000 
-4.21353e-05  1.33516e-04        00000 
-1.69513e-05  6.62809e-05        00000 
-5.66183e-06  3.35613e-05        00000 
-1.40227e-06  1.78031e-05        00000 
-9.02341e-08  9.91563e-06        00000 
 1.92685e-07  5.70991e-06        00000 
 1.87910e-07  3.34336e-06        00000 
 1.31498e-07  1.97641e-06        00000 
 8.17211e-08  1.18905e-06        00000 
 4.69618e-08  7.51953e-07        00000 
 3.56768e-08  5.31964e-07        00000 
 8.18834e-08  4.10414e-07        00000 
 1.96060e-06 -3.30839e-05        00000 
-3.41086e-06 -4.42342e-05        00000 
-1.23366e-05 -6.78023e-05        00000 
-3.44176e-05 -1.24971e-04        00000 
-8.19468e-05 -2.47014e-04        00000 
-1.66630e-04 -4.81583e-04        00000 
-2.87192e-04 -8.80370e-04        00000 
-4.12216e-04 -1.46442e-03        00000 
-4.75911e-04 -2.17777e-03        00000 
-4.07611e-04 -2.86631e-03        00000 
-1.88706e-04 -3.32079e-03        00000 
 1.11397e-04 -3.37767e-03        00000 
 3.67787e-04 -3.01216e-03        00000 
 4.83276e-04 -2.35372e-03        00000 
 4.47819e-04 -1.61367e-03        00000 
 3.24926e-04 -9.75831e-04        00000 
 1.91737e-04 -5.26967e-04        00000 