<?xml version="1.0" encoding="utf-8"?>
<VTKFile byte_order="LittleEndian" type="UnstructuredGrid" version="0.1">
   <UnstructuredGrid>
      <Piece NumberOfCells="3364" NumberOfPoints="1741">
         <Points>
            <DataArray Name="Points" NumberOfComponents="3" format="ascii" type="Float32">
0.0000 1.0000 0.0000
0.0000 1.0345 0.0000
0.0000 1.0690 0.0000
0.0000 1.1034 0.0000
0.0000 1.1379 0.0000
0.0000 1.1724 0.0000
0.0000 1.2069 0.0000
0.0000 1.2414 0.0000
0.0000 1.2759 0.0000
0.0000 1.3103 0.0000
0.0000 1.3448 0.0000
0.0000 1.3793 0.0000
0.0000 1.4138 0.0000
0.0000 1.4483 0.0000
0.0000 1.4828 0.0000
0.0000 1.5172 0.0000
0.0000 1.5517 0.0000
0.0000 1.5862 0.0000
0.0000 1.6207 0.0000
0.0000 1.6552 0.0000
0.0000 1.6897 0.0000
0.0000 1.7241 0.0000
0.0000 1.7586 0.0000
0.0000 1.7931 0.0000
0.0000 1.8276 0.0000
0.0000 1.8621 0.0000
0.0000 1.8966 0.0000
0.0000 1.9310 0.0000
0.0000 1.9655 0.0000
0.0000 2.0000 0.0000
0.0690 1.0000 0.0000
0.0690 1.0345 0.0000
0.0690 1.0690 0.0000
0.0690 1.1034 0.0000
0.0690 1.1379 0.0000
0.0690 1.1724 0.0000
0.0690 1.2069 0.0000
0.0690 1.2414 0.0000
0.0690 1.2759 0.0000
0.0690 1.3103 0.0000
0.0690 1.3448 0.0000
0.0690 1.3793 0.0000
0.0690 1.4138 0.0000
0.0690 1.4483 0.0000
0.0690 1.4828 0.0000
0.0690 1.5172 0.0000
0.0690 1.5517 0.0000
0.0690 1.5862 0.0000
0.0690 1.6207 0.0000
0.0690 1.6552 0.0000
0.0690 1.6897 0.0000
0.0690 1.7241 0.0000
0.0690 1.7586 0.0000
0.0690 1.7931 0.0000
0.0690 1.8276 0.0000
0.0690 1.8621 0.0000
0.0690 1.8966 0.0000
0.0690 1.9310 0.0000
0.0690 1.9655 0.0000
0.0690 2.0000 0.0000
0.1379 1.0000 0.0000
0.1379 1.0345 0.0000
0.1379 1.0690 0.0000
0.1379 1.1034 0.0000
0.1379 1.1379 0.0000
0.1379 1.1724 0.0000
0.1379 1.2069 0.0000
0.1379 1.2414 0.0000
0.1379 1.2759 0.0000
0.1379 1.3103 0.0000
0.1379 1.3448 0.0000
0.1379 1.3793 0.0000
0.1379 1.4138 0.0000
0.1379 1.4483 0.0000
0.1379 1.4828 0.0000
0.1379 1.5172 0.0000
0.1379 1.5517 0.0000
0.1379 1.5862 0.0000
0.1379 1.6207 0.0000
0.1379 1.6552 0.0000
0.1379 1.6897 0.0000
0.1379 1.7241 0.0000
0.1379 1.7586 0.0000
0.1379 1.7931 0.0000
0.1379 1.8276 0.0000
0.1379 1.8621 0.0000
0.1379 1.8966 0.0000
0.1379 1.9310 0.0000
0.1379 1.9655 0.0000
0.1379 2.0000 0.0000
0.2069 1.0000 0.0000
0.2069 1.0345 0.0000
0.2069 1.0690 0.0000
0.2069 1.1034 0.0000
0.2069 1.1379 0.0000
0.2069 1.1724 0.0000
0.2069 1.2069 0.0000
0.2069 1.2414 0.0000
0.2069 1.2759 0.0000
0.2069 1.3103 0.0000
0.2069 1.3448 0.0000
0.2069 1.3793 0.0000
0.2069 1.4138 0.0000
0.2069 1.4483 0.0000
0.2069 1.4828 0.0000
0.2069 1.5172 0.0000
0.2069 1.5517 0.0000
0.2069 1.5862 0.0000
0.2069 1.6207 0.0000
0.2069 1.6552 0.0000
0.2069 1.6897 0.0000
0.2069 1.7241 0.0000
0.2069 1.7586 0.0000
0.2069 1.7931 0.0000
0.2069 1.8276 0.0000
0.2069 1.8621 0.0000
0.2069 1.8966 0.0000
0.2069 1.9310 0.0000
0.2069 1.9655 0.0000
0.2069 2.0000 0.0000
0.2759 1.0000 0.0000
0.2759 1.0345 0.0000
0.2759 1.0690 0.0000
0.2759 1.1034 0.0000
0.2759 1.1379 0.0000
0.2759 1.1724 0.0000
0.2759 1.2069 0.0000
0.2759 1.2414 0.0000
0.2759 1.2759 0.0000
0.2759 1.3103 0.0000
0.2759 1.3448 0.0000
0.2759 1.3793 0.0000
0.2759 1.4138 0.0000
0.2759 1.4483 0.0000
0.2759 1.4828 0.0000
0.2759 1.5172 0.0000
0.2759 1.5517 0.0000
0.2759 1.5862 0.0000
0.2759 1.6207 0.0000
0.2759 1.6552 0.0000
0.2759 1.6897 0.0000
0.2759 1.7241 0.0000
0.2759 1.7586 0.0000
0.2759 1.7931 0.0000
0.2759 1.8276 0.0000
0.2759 1.8621 0.0000
0.2759 1.8966 0.0000
0.2759 1.9310 0.0000
0.2759 1.9655 0.0000
0.2759 2.0000 0.0000
0.3448 1.0000 0.0000
0.3448 1.0345 0.0000
0.3448 1.0690 0.0000
0.3448 1.1034 0.0000
0.3448 1.1379 0.0000
0.3448 1.1724 0.0000
0.3448 1.2069 0.0000
0.3448 1.2414 0.0000
0.3448 1.2759 0.0000
0.3448 1.3103 0.0000
0.3448 1.3448 0.0000
0.3448 1.3793 0.0000
0.3448 1.4138 0.0000
0.3448 1.4483 0.0000
0.3448 1.4828 0.0000
0.3448 1.5172 0.0000
0.3448 1.5517 0.0000
0.3448 1.5862 0.0000
0.3448 1.6207 0.0000
0.3448 1.6552 0.0000
0.3448 1.6897 0.0000
0.3448 1.7241 0.0000
0.3448 1.7586 0.0000
0.3448 1.7931 0.0000
0.3448 1.8276 0.0000
0.3448 1.8621 0.0000
0.3448 1.8966 0.0000
0.3448 1.9310 0.0000
0.3448 1.9655 0.0000
0.3448 2.0000 0.0000
0.4138 1.0000 0.0000
0.4138 1.0345 0.0000
0.4138 1.0690 0.0000
0.4138 1.1034 0.0000
0.4138 1.1379 0.0000
0.4138 1.1724 0.0000
0.4138 1.2069 0.0000
0.4138 1.2414 0.0000
0.4138 1.2759 0.0000
0.4138 1.3103 0.0000
0.4138 1.3448 0.0000
0.4138 1.3793 0.0000
0.4138 1.4138 0.0000
0.4138 1.4483 0.0000
0.4138 1.4828 0.0000
0.4138 1.5172 0.0000
0.4138 1.5517 0.0000
0.4138 1.5862 0.0000
0.4138 1.6207 0.0000
0.4138 1.6552 0.0000
0.4138 1.6897 0.0000
0.4138 1.7241 0.0000
0.4138 1.7586 0.0000
0.4138 1.7931 0.0000
0.4138 1.8276 0.0000
0.4138 1.8621 0.0000
0.4138 1.8966 0.0000
0.4138 1.9310 0.0000
0.4138 1.9655 0.0000
0.4138 2.0000 0.0000
0.4828 1.0000 0.0000
0.4828 1.0345 0.0000
0.4828 1.0690 0.0000
0.4828 1.1034 0.0000
0.4828 1.1379 0.0000
0.4828 1.1724 0.0000
0.4828 1.2069 0.0000
0.4828 1.2414 0.0000
0.4828 1.2759 0.0000
0.4828 1.3103 0.0000
0.4828 1.3448 0.0000
0.4828 1.3793 0.0000
0.4828 1.4138 0.0000
0.4828 1.4483 0.0000
0.4828 1.4828 0.0000
0.4828 1.5172 0.0000
0.4828 1.5517 0.0000
0.4828 1.5862 0.0000
0.4828 1.6207 0.0000
0.4828 1.6552 0.0000
0.4828 1.6897 0.0000
0.4828 1.7241 0.0000
0.4828 1.7586 0.0000
0.4828 1.7931 0.0000
0.4828 1.8276 0.0000
0.4828 1.8621 0.0000
0.4828 1.8966 0.0000
0.4828 1.9310 0.0000
0.4828 1.9655 0.0000
0.4828 2.0000 0.0000
0.5517 1.0000 0.0000
0.5517 1.0345 0.0000
0.5517 1.0690 0.0000
0.5517 1.1034 0.0000
0.5517 1.1379 0.0000
0.5517 1.1724 0.0000
0.5517 1.2069 0.0000
0.5517 1.2414 0.0000
0.5517 1.2759 0.0000
0.5517 1.3103 0.0000
0.5517 1.3448 0.0000
0.5517 1.3793 0.0000
0.5517 1.4138 0.0000
0.5517 1.4483 0.0000
0.5517 1.4828 0.0000
0.5517 1.5172 0.0000
0.5517 1.5517 0.0000
0.5517 1.5862 0.0000
0.5517 1.6207 0.0000
0.5517 1.6552 0.0000
0.5517 1.6897 0.0000
0.5517 1.7241 0.0000
0.5517 1.7586 0.0000
0.5517 1.7931 0.0000
0.5517 1.8276 0.0000
0.5517 1.8621 0.0000
0.5517 1.8966 0.0000
0.5517 1.9310 0.0000
0.5517 1.9655 0.0000
0.5517 2.0000 0.0000
0.6207 1.0000 0.0000
0.6207 1.0345 0.0000
0.6207 1.0690 0.0000
0.6207 1.1034 0.0000
0.6207 1.1379 0.0000
0.6207 1.1724 0.0000
0.6207 1.2069 0.0000
0.6207 1.2414 0.0000
0.6207 1.2759 0.0000
0.6207 1.3103 0.0000
0.6207 1.3448 0.0000
0.6207 1.3793 0.0000
0.6207 1.4138 0.0000
0.6207 1.4483 0.0000
0.6207 1.4828 0.0000
0.6207 1.5172 0.0000
0.6207 1.5517 0.0000
0.6207 1.5862 0.0000
0.6207 1.6207 0.0000
0.6207 1.6552 0.0000
0.6207 1.6897 0.0000
0.6207 1.7241 0.0000
0.6207 1.7586 0.0000
0.6207 1.7931 0.0000
0.6207 1.8276 0.0000
0.6207 1.8621 0.0000
0.6207 1.8966 0.0000
0.6207 1.9310 0.0000
0.6207 1.9655 0.0000
0.6207 2.0000 0.0000
0.6897 1.0000 0.0000
0.6897 1.0345 0.0000
0.6897 1.0690 0.0000
0.6897 1.1034 0.0000
0.6897 1.1379 0.0000
0.6897 1.1724 0.0000
0.6897 1.2069 0.0000
0.6897 1.2414 0.0000
0.6897 1.2759 0.0000
0.6897 1.3103 0.0000
0.6897 1.3448 0.0000
0.6897 1.3793 0.0000
0.6897 1.4138 0.0000
0.6897 1.4483 0.0000
0.6897 1.4828 0.0000
0.6897 1.5172 0.0000
0.6897 1.5517 0.0000
0.6897 1.5862 0.0000
0.6897 1.6207 0.0000
0.6897 1.6552 0.0000
0.6897 1.6897 0.0000
0.6897 1.7241 0.0000
0.6897 1.7586 0.0000
0.6897 1.7931 0.0000
0.6897 1.8276 0.0000
0.6897 1.8621 0.0000
0.6897 1.8966 0.0000
0.6897 1.9310 0.0000
0.6897 1.9655 0.0000
0.6897 2.0000 0.0000
0.7586 1.0000 0.0000
0.7586 1.0345 0.0000
0.7586 1.0690 0.0000
0.7586 1.1034 0.0000
0.7586 1.1379 0.0000
0.7586 1.1724 0.0000
0.7586 1.2069 0.0000
0.7586 1.2414 0.0000
0.7586 1.2759 0.0000
0.7586 1.3103 0.0000
0.7586 1.3448 0.0000
0.7586 1.3793 0.0000
0.7586 1.4138 0.0000
0.7586 1.4483 0.0000
0.7586 1.4828 0.0000
0.7586 1.5172 0.0000
0.7586 1.5517 0.0000
0.7586 1.5862 0.0000
0.7586 1.6207 0.0000
0.7586 1.6552 0.0000
0.7586 1.6897 0.0000
0.7586 1.7241 0.0000
0.7586 1.7586 0.0000
0.7586 1.7931 0.0000
0.7586 1.8276 0.0000
0.7586 1.8621 0.0000
0.7586 1.8966 0.0000
0.7586 1.9310 0.0000
0.7586 1.9655 0.0000
0.7586 2.0000 0.0000
0.8276 1.0000 0.0000
0.8276 1.0345 0.0000
0.8276 1.0690 0.0000
0.8276 1.1034 0.0000
0.8276 1.1379 0.0000
0.8276 1.1724 0.0000
0.8276 1.2069 0.0000
0.8276 1.2414 0.0000
0.8276 1.2759 0.0000
0.8276 1.3103 0.0000
0.8276 1.3448 0.0000
0.8276 1.3793 0.0000
0.8276 1.4138 0.0000
0.8276 1.4483 0.0000
0.8276 1.4828 0.0000
0.8276 1.5172 0.0000
0.8276 1.5517 0.0000
0.8276 1.5862 0.0000
0.8276 1.6207 0.0000
0.8276 1.6552 0.0000
0.8276 1.6897 0.0000
0.8276 1.7241 0.0000
0.8276 1.7586 0.0000
0.8276 1.7931 0.0000
0.8276 1.8276 0.0000
0.8276 1.8621 0.0000
0.8276 1.8966 0.0000
0.8276 1.9310 0.0000
0.8276 1.9655 0.0000
0.8276 2.0000 0.0000
0.8966 1.0000 0.0000
0.8966 1.0345 0.0000
0.8966 1.0690 0.0000
0.8966 1.1034 0.0000
0.8966 1.1379 0.0000
0.8966 1.1724 0.0000
0.8966 1.2069 0.0000
0.8966 1.2414 0.0000
0.8966 1.2759 0.0000
0.8966 1.3103 0.0000
0.8966 1.3448 0.0000
0.8966 1.3793 0.0000
0.8966 1.4138 0.0000
0.8966 1.4483 0.0000
0.8966 1.4828 0.0000
0.8966 1.5172 0.0000
0.8966 1.5517 0.0000
0.8966 1.5862 0.0000
0.8966 1.6207 0.0000
0.8966 1.6552 0.0000
0.8966 1.6897 0.0000
0.8966 1.7241 0.0000
0.8966 1.7586 0.0000
0.8966 1.7931 0.0000
0.8966 1.8276 0.0000
0.8966 1.8621 0.0000
0.8966 1.8966 0.0000
0.8966 1.9310 0.0000
0.8966 1.9655 0.0000
0.8966 2.0000 0.0000
0.9655 1.0000 0.0000
0.9655 1.0345 0.0000
0.9655 1.0690 0.0000
0.9655 1.1034 0.0000
0.9655 1.1379 0.0000
0.9655 1.1724 0.0000
0.9655 1.2069 0.0000
0.9655 1.2414 0.0000
0.9655 1.2759 0.0000
0.9655 1.3103 0.0000
0.9655 1.3448 0.0000
0.9655 1.3793 0.0000
0.9655 1.4138 0.0000
0.9655 1.4483 0.0000
0.9655 1.4828 0.0000
0.9655 1.5172 0.0000
0.9655 1.5517 0.0000
0.9655 1.5862 0.0000
0.9655 1.6207 0.0000
0.9655 1.6552 0.0000
0.9655 1.6897 0.0000
0.9655 1.7241 0.0000
0.9655 1.7586 0.0000
0.9655 1.7931 0.0000
0.9655 1.8276 0.0000
0.9655 1.8621 0.0000
0.9655 1.8966 0.0000
0.9655 1.9310 0.0000
0.9655 1.9655 0.0000
0.9655 2.0000 0.0000
1.0345 1.0000 0.0000
1.0345 1.0345 0.0000
1.0345 1.0690 0.0000
1.0345 1.1034 0.0000
1.0345 1.1379 0.0000
1.0345 1.1724 0.0000
1.0345 1.2069 0.0000
1.0345 1.2414 0.0000
1.0345 1.2759 0.0000
1.0345 1.3103 0.0000
1.0345 1.3448 0.0000
[...]
         <PointData>
            <DataArray Name="fValues" NumberOfComponents="3" format="ascii" type="Float64">
 4.11230e-27  5.47354e-26        00000 
-1.64492e-26 -1.04178e-25        00000 
 7.59090e-26  2.41282e-25        00000 
-8.17492e-27  3.44028e-25        00000 
 2.38571e-25  2.71103e-25        00000 
-1.20359e-26 -3.34460e-27        00000 
       00000 -1.27961e-24        00000 
 2.13910e-25 -1.22147e-24        00000 
-6.94025e-25  6.07272e-25        00000 
 2.19426e-24  8.63792e-24        00000 
-5.20519e-25 -1.99532e-24        00000 
 2.09278e-24  9.46111e-24        00000 
 9.71635e-24 -1.45745e-23        00000 
-2.48106e-24 -8.38406e-24        00000 
 1.52685e-23 -2.56789e-23        00000 
 1.46495e-23 -6.75793e-24        00000 
 2.22088e-23  1.38805e-22        00000 
 3.67368e-23 -1.73934e-23        00000 
 7.77308e-23 -3.88654e-23        00000 
-1.81374e-23  1.96721e-22        00000 
 1.11044e-22  5.77429e-22        00000 
 9.27184e-23  4.19297e-22        00000 
-2.22088e-23  8.88352e-22        00000 
 1.10220e-22 -1.10917e-21        00000 
-6.66264e-23  9.77187e-22        00000 
 1.35196e-22  1.70949e-21        00000 
-3.33132e-23  8.88352e-23        00000 
-2.09668e-24 -1.19092e-21        00000 
 2.68791e-22 -4.03187e-22        00000 
 4.02874e-22 -3.69275e-22        00000 
 4.45658e-10  8.89982e-11        00000 
 1.39246e-10  9.78699e-11        00000 
 2.79471e-10  2.07870e-10        00000 
 5.18759e-10  3.41325e-10        00000 
 9.14850e-10  5.68233e-10        00000 
 1.57806e-09  9.66683e-10        00000 
 2.69520e-09  1.65923e-09        00000 
 4.57131e-09  2.85765e-09        00000 
 7.69650e-09  4.92741e-09        00000 
 1.28381e-08  8.49196e-09        00000 
 2.11565e-08  1.45966e-08        00000 
 3.43291e-08  2.49515e-08        00000 
 5.46426e-08  4.22622e-08        00000 
 8.49859e-08  7.06301e-08        00000 
 1.28639e-07  1.15950e-07        00000 
 1.88757e-07  1.86161e-07        00000 
 2.67476e-07  2.91121e-07        00000 
 3.64711e-07  4.41856e-07        00000 
 4.76873e-07  6.48987e-07        00000 
 5.95970e-07  9.20353e-07        00000 
 7.09611e-07  1.25821e-06        00000 
 8.02319e-07  1.65669e-06        00000 
 8.58134e-07  2.10054e-06        00000 
 8.63918e-07  2.56597e-06        00000 
 8.12570e-07  3.02388e-06        00000 
 7.05845e-07  3.44269e-06        00000 
 5.62591e-07  3.76944e-06        00000 
 3.61117e-07  3.78064e-06        00000 
-1.27198e-07  2.80403e-06        00000 
-8.30621e-06  2.90210e-06        00000 
-4.95561e-10 -1.97324e-10        00000 
-2.14630e-10 -2.47800e-10        00000 
-3.18460e-10 -3.78280e-10        00000 
-6.00850e-10 -6.15068e-10        00000 
-1.06300e-09 -1.02877e-09        00000 
-1.83572e-09 -1.75328e-09        00000 
-3.13841e-09 -3.01390e-09        00000 
-5.33107e-09 -5.20162e-09        00000 
-8.99633e-09 -8.99586e-09        00000 
-1.50563e-08 -1.55673e-08        00000 
-2.49252e-08 -2.69034e-08        00000 
-4.06836e-08 -4.63013e-08        00000 
-6.52302e-08 -7.90601e-08        00000 
-1.02324e-07 -1.33348e-07        00000 
-1.56383e-07 -2.21113e-07        00000 
-2.31868e-07 -3.58743e-07        00000 
-3.32141e-07 -5.66982e-07        00000 
-4.57815e-07 -8.69522e-07        00000 
-6.04879e-07 -1.28977e-06        00000 
-7.63230e-07 -1.84573e-06        00000 
-9.16415e-07 -2.54378e-06        00000 
-1.04326e-06 -3.37286e-06        00000 
-1.12155e-06 -4.30125e-06        00000 
-1.13313e-06 -5.27776e-06        00000 
-1.06972e-06 -6.23661e-06        00000 
-9.41328e-07 -7.09792e-06        00000 
-7.80168e-07 -7.73500e-06        00000 
-5.89334e-07 -7.86867e-06        00000 
 1.25486e-06 -7.26252e-06        00000 
 1.01940e-05 -6.74742e-06        00000 
 4.88932e-10  2.96416e-10        00000 
 2.22947e-10  3.83857e-10        00000 
 3.19286e-10  5.55402e-10        00000 
 5.95081e-10  8.90155e-10        00000 
 1.05529e-09  1.49035e-09        00000 
 1.82497e-09  2.54146e-09        00000 
 3.12502e-09  4.36885e-09        00000 
 5.32119e-09  7.53950e-09        00000 
 9.01297e-09  1.30399e-08        00000 
 1.51658e-08  2.25756e-08        00000 
 2.52941e-08  3.90582e-08        00000 
 4.16884e-08  6.73584e-08        00000 
 6.76493e-08  1.15388e-07        00000 
 1.07632e-07  1.95501e-07        00000 
 1.67134e-07  3.26044e-07        00000 
 2.52097e-07  5.32609e-07        00000 
 3.67590e-07  8.48205e-07        00000 
 5.15712e-07  1.31133e-06        00000 
 6.92989e-07  1.96101e-06        00000 
 8.88039e-07  2.82851e-06        00000 
 1.08071e-06  3.92682e-06        00000 
 1.24384e-06  5.24043e-06        00000 
 1.34816e-06  6.71913e-06        00000 
 1.36976e-06  8.27882e-06        00000 
 1.29926e-06  9.80794e-06        00000 
 1.15130e-06  1.11701e-05        00000 
 9.65955e-07  1.21813e-05        00000 
 6.24282e-07  1.25668e-05        00000 
-1.69388e-06  1.19437e-05        00000 
-1.19305e-05  1.08518e-05        00000 
-4.63909e-10 -3.91787e-10        00000 
-2.15115e-10 -5.08915e-10        00000 
-3.05957e-10 -7.27065e-10        00000 
-5.67448e-10 -1.15837e-09        00000 
-1.00644e-09 -1.93802e-09        00000 
-1.74306e-09 -3.30470e-09        00000 
-2.99090e-09 -5.67879e-09        00000 
-5.10897e-09 -9.79429e-09        00000 
-8.69555e-09 -1.69288e-08        00000 
-1.47359e-08 -2.92955e-08        00000 
-2.48203e-08 -5.06908e-08        00000 
-4.14395e-08 -8.75166e-08        00000 
-6.83331e-08 -1.50292e-07        00000 
-1.10795e-07 -2.55690e-07        00000 
-1.75739e-07 -4.28917e-07        00000 
-2.71184e-07 -7.05867e-07        00000 
-4.04800e-07 -1.13392e-06        00000 
-5.81228e-07 -1.76980e-06        00000 
-7.98394e-07 -2.67285e-06        00000 
-1.04378e-06 -3.89291e-06        00000 
-1.29240e-06 -5.45406e-06        00000 
-1.50845e-06 -7.33803e-06        00000 
-1.65198e-06 -9.47321e-06        00000 
-1.68980e-06 -1.17343e-05        00000 
-1.60840e-06 -1.39525e-05        00000 
-1.42485e-06 -1.59270e-05        00000 
-1.17441e-06 -1.74153e-05        00000 
-7.13928e-07 -1.80612e-05        00000 
 2.08947e-06 -1.72709e-05        00000 
 1.42275e-05 -1.56446e-05        00000 
 4.30378e-10  4.80987e-10        00000 
 2.01006e-10  6.24307e-10        00000 
 2.85896e-10  8.88251e-10        00000 
 5.29240e-10  1.41145e-09        00000 
 9.38944e-10  2.35964e-09        00000 
 1.62864e-09  4.02230e-09        00000 
 2.80146e-09  6.90835e-09        00000 
 4.80356e-09  1.19058e-08        00000 
 8.22301e-09  2.05599e-08        00000 
 1.40532e-08  3.55511e-08        00000 
 2.39503e-08  6.14986e-08        00000 
 4.06120e-08  1.06258e-07        00000 
 6.82759e-08  1.82907e-07        00000 
 1.13258e-07  3.12533e-07        00000 
 1.84300e-07  5.27709e-07        00000 
 2.92283e-07  8.75983e-07        00000 
 4.48683e-07  1.42191e-06        00000 
 6.62212e-07  2.24526e-06        00000 
 9.33594e-07  3.43263e-06        00000 
 1.24961e-06  5.06075e-06        00000 
 1.57895e-06  7.17227e-06        00000 
 1.87330e-06  9.74968e-06        00000 
 2.07614e-06  1.26964e-05        00000 
 2.13889e-06  1.58342e-05        00000 
 2.03979e-06  1.89199e-05        00000 
 1.79771e-06  2.16698e-05        00000 
 1.45842e-06  2.37555e-05        00000 
 8.61319e-07  2.46952e-05        00000 
-2.57644e-06  2.36563e-05        00000 
-1.73885e-05  2.14247e-05        00000 
-3.90618e-10 -5.62553e-10        00000 
-1.83221e-10 -7.29550e-10        00000 
-2.60978e-10 -1.03616e-09        00000 
-4.82944e-10 -1.64428e-09        00000 
-8.57461e-10 -2.74726e-09        00000 
-1.49001e-09 -4.68118e-09        00000 
-2.57042e-09 -8.03546e-09        00000 
-4.42664e-09 -1.38367e-08        00000 
-7.62719e-09 -2.38695e-08        00000 
-1.31588e-08 -4.12316e-08        00000 
-2.27237e-08 -7.12827e-08        00000 
-3.92119e-08 -1.23217e-07        00000 
-6.73837e-08 -2.12550e-07        00000 
-1.14721e-07 -3.64796e-07        00000 
-1.92209e-07 -6.20334e-07        00000 
-3.14480e-07 -1.03984e-06        00000 
-4.98389e-07 -1.70842e-06        00000 
-7.58930e-07 -2.73518e-06        00000 
-1.10197e-06 -4.24373e-06        00000 
-1.51488e-06 -6.34998e-06        00000 
-1.95869e-06 -9.12724e-06        00000 
-2.36733e-06 -1.25656e-05        00000 
-2.65902e-06 -1.65399e-05        00000 
-2.76015e-06 -2.08024e-05        00000 
-2.63474e-06 -2.50080e-05        00000 
-2.30663e-06 -2.87572e-05        00000 
-1.84452e-06 -3.16005e-05        00000 
-1.06888e-06 -3.28942e-05        00000 
 3.21910e-06 -3.15290e-05        00000 
 2.16450e-05 -2.85561e-05        00000 
 3.45442e-10  6.35403e-10        00000 
 1.62564e-10  8.23564e-10        00000 
 2.31990e-10  1.16860e-09        00000 
 4.29528e-10  1.85305e-09        00000 
 7.63637e-10  3.09471e-09        00000 
 1.33003e-09  5.27121e-09        00000 
 2.30228e-09  9.04328e-09        00000 
 3.98452e-09  1.55592e-08        00000 
 6.91471e-09  2.68115e-08        00000 
 1.20523e-08  4.62580e-08        00000 
 2.11113e-08  7.98992e-08        00000 
 3.71266e-08  1.38108e-07        00000 
 6.53469e-08  2.38635e-07        00000 
 1.14481e-07  4.11271e-07        00000 
 1.98103e-07  7.04446e-07        00000 
 3.35548e-07  1.19332e-06        00000 
 5.50990e-07  1.98731e-06        00000 
 8.68826e-07  3.23260e-06        00000 
 1.30388e-06  5.10286e-06        00000 
 1.84703e-06  7.77109e-06        00000 
 2.45104e-06  1.13603e-05        00000 
 3.02540e-06  1.58810e-05        00000 
 3.45014e-06  2.11771e-05        00000 
 3.61139e-06  2.69078e-05        00000 
 3.44920e-06  3.25838e-05        00000 
 2.99556e-06  3.76388e-05        00000 
 2.35785e-06  4.14552e-05        00000 
 1.33914e-06  4.31860e-05        00000 
-4.07207e-06  4.13952e-05        00000 
-2.72699e-05  3.74875e-05        00000 
-2.95447e-10 -6.98608e-10        00000 
-1.39460e-10 -9.05175e-10        00000 
-1.99470e-10 -1.28370e-09        00000 
-3.69770e-10 -2.03457e-09        00000 
-6.58713e-10 -3.39673e-09        00000 
-1.15073e-09 -5.78372e-09        00000 
-2.00027e-09 -9.91764e-09        00000 
-3.48177e-09 -1.70506e-08        00000 
-6.09035e-09 -2.93499e-08        00000 
-1.07328e-08 -5.05723e-08        00000 
-1.90858e-08 -8.72452e-08        00000 
-3.42462e-08 -1.50722e-07        00000 
-6.18407e-08 -2.60679e-07        00000 
-1.11739e-07 -4.50820e-07        00000 
-2.00292e-07 -7.77505e-07        00000 
-3.52432e-07 -1.33133e-06        00000 
-6.01911e-07 -2.24968e-06        00000 
-9.86742e-07 -3.72481e-06        00000 
-1.53666e-06 -5.99723e-06        00000 
-2.25177e-06 -9.32240e-06        00000 
-3.07786e-06 -1.39026e-05        00000 
-3.89213e-06 -1.97921e-05        00000 
-4.51743e-06 -2.68053e-05        00000 
-4.77488e-06 -3.44769e-05        00000 
-4.56257e-06 -4.21092e-05        00000 
-3.92307e-06 -4.88906e-05        00000 
-3.02685e-06 -5.39669e-05        00000 
-1.67177e-06 -5.62371e-05        00000 
 5.20376e-06 -5.38802e-05        00000 
 3.46124e-05 -4.87754e-05        00000 
 2.41272e-10  7.51344e-10        00000 
 1.14267e-10  9.73295e-10        00000 
 1.63914e-10  1.37978e-09        00000 
 3.04465e-10  2.18613e-09        00000 
 5.43977e-10  3.64882e-09        00000 
 9.54206e-10  6.21127e-09        00000 
 1.66771e-09  1.06464e-08        00000 
 2.92354e-09  1.82917e-08        00000 
 5.16134e-09  3.14561e-08        00000 
 9.20720e-09  5.41325e-08        00000 
 1.66404e-08  9.32549e-08        00000 
 3.05028e-08  1.60927e-07        00000 
 5.66046e-08  2.78340e-07        00000 
 1.05737e-07  4.82489e-07        00000 
 1.96951e-07  8.37007e-07        00000 
 3.61408e-07  1.44805e-06        00000 
 6.44802e-07  2.48393e-06        00000 
 1.10413e-06  4.19234e-06        00000 
 1.79290e-06  6.90135e-06        00000 
 2.73071e-06  1.09837e-05        00000 
 3.86198e-06  1.67664e-05        00000 
 5.02366e-06  2.43881e-05        00000 
 5.95422e-06  3.36457e-05        00000 
 6.36893e-06  4.39083e-05        00000 
 6.09026e-06  5.41738e-05        00000 
 5.17038e-06  6.32616e-05        00000 
 3.88312e-06  6.99763e-05        00000 
 2.05513e-06  7.28985e-05        00000 
-6.71011e-06  6.97677e-05        00000 
-4.41182e-05  6.31109e-05        00000 
-1.83633e-10 -7.92911e-10        00000 
-8.73487e-11 -1.02699e-09        00000 
-1.25827e-10 -1.45550e-09        00000 
-2.34471e-10 -2.30550e-09        00000 
-4.20826e-10 -3.84728e-09        00000 
-7.42714e-10 -6.54764e-09        00000 
-1.30828e-09 -1.12195e-08        00000 
-2.31588e-09 -1.92667e-08        00000 
-4.13777e-09 -3.31070e-08        00000 
-7.49131e-09 -5.69089e-08        00000 
-1.37934e-08 -9.78934e-08        00000 
-2.58890e-08 -1.68670e-07        00000 
-4.94969e-08 -2.91458e-07        00000 
-9.58892e-08 -5.05652e-07        00000 
-1.86342e-07 -8.80847e-07        00000 
-3.58321e-07 -1.53760e-06        00000 
-6.71500e-07 -2.67635e-06        00000 
-1.20810e-06 -4.60872e-06        00000 
-2.05781e-06 -7.77386e-06        00000 
-3.27707e-06 -1.27080e-05        00000 
-4.82299e-06 -1.99307e-05        00000 
-6.48768e-06 -2.97359e-05        00000 
-7.88769e-06 -4.19361e-05        00000 
-8.56547e-06 -5.56872e-05        00000 
-8.20399e-06 -6.95382e-05        00000 
-6.85381e-06 -8.17409e-05        00000 
-4.95812e-06 -9.05904e-05        00000 
-2.44997e-06 -9.42673e-05        00000 
 8.73253e-06 -9.00418e-05        00000 
 5.63460e-05 -8.13483e-05        00000 
 1.23314e-10  8.22745e-10        00000 
 5.90848e-11  1.06552e-09        00000 
 8.57372e-11  1.50976e-09        00000 
 1.60709e-10  2.39096e-09        00000 
 2.90790e-10  3.98919e-09        00000 
 5.18734e-10  6.78795e-09        00000 
 9.26020e-10  1.16286e-08        00000 
 1.66565e-09  1.99625e-08        00000 
 3.03202e-09  3.42839e-08        00000 
 5.60852e-09  5.88795e-08        00000 
 1.05870e-08  1.01147e-07        00000 
 2.04648e-08  1.73965e-07        00000 
 4.05346e-08  3.00061e-07        00000 
 8.19069e-08  5.20135e-07        00000 
 1.67108e-07  9.07731e-07        00000 
 3.39066e-07  1.59498e-06        00000 
 6.72384e-07  2.81264e-06        00000 
 1.28075e-06  4.94142e-06        00000 
 2.30611e-06  8.55532e-06        00000 
 3.86908e-06  1.44116e-05        00000 
 5.96894e-06  2.33212e-05        00000 
 8.35962e-06  3.58524e-05        00000 
 1.04886e-05  5.19119e-05        00000 
 1.16169e-05  7.03964e-05        00000 
 1.11666e-05  8.91914e-05        00000 
 9.14668e-06  1.05655e-04        00000 
 6.27564e-06  1.17290e-04        00000 
 2.75740e-06  1.21770e-04        00000 
-1.14889e-05  1.15934e-04        00000 
-7.19790e-05  1.04528e-04        00000 
-6.11531e-11 -8.40440e-10        00000 
-2.98757e-11 -1.08836e-09        00000 
-4.42062e-11 -1.54181e-09        00000 
-8.41709e-11 -2.44129e-09        00000 
-1.55535e-10 -4.07252e-09        00000 
-2.84988e-10 -6.92874e-09        00000 
-5.25367e-10 -1.18679e-08        00000 
-9.80355e-10 -2.03694e-08        00000 
-1.85795e-09 -3.49718e-08        00000 
-3.58712e-09 -6.00269e-08        00000 
-7.08158e-09 -1.03011e-07        00000 
-1.43504e-08 -1.76866e-07        00000 
-2.99075e-08 -3.04336e-07        00000 
-6.39071e-08 -5.26254e-07        00000 
-1.38622e-07 -9.17541e-07        00000 
-3.00333e-07 -1.61722e-06        00000 
-6.37404e-07 -2.88030e-06        00000 
-1.29942e-06 -5.15495e-06        00000 
-2.49895e-06 -9.16859e-06        00000 
-4.46070e-06 -1.59650e-05        00000 
-7.28126e-06 -2.67829e-05        00000 
-1.07107e-05 -4.26598e-05        00000 
-1.39791e-05 -6.37629e-05        00000 
-1.58963e-05 -8.87152e-05        00000 
-1.53931e-05 -1.14426e-04        00000 
-1.23220e-05 -1.36817e-04        00000 
-7.83855e-06 -1.52097e-04        00000 
-2.75476e-06 -1.57278e-04        00000 
 1.53330e-05 -1.48968e-04        00000 
 9.18196e-05 -1.33882e-04        00000 
-1.97501e-12  8.45757e-10        00000 
 1.38633e-13  1.09518e-09        00000 
 1.82215e-12  1.55121e-09        00000 
 5.91305e-12  2.45579e-09        00000 
 1.68691e-11  4.09616e-09        00000 
 4.44797e-11  6.96808e-09        00000 
 1.11263e-10  1.19340e-08        00000 
 2.68300e-10  2.04811e-08        00000 
 6.30533e-10  3.51600e-08        00000 
 1.45760e-09  6.03359e-08        00000 
 3.34637e-09  1.03479e-07        00000 
 7.70681e-09  1.77430e-07        00000 
 1.79558e-08  3.04555e-07        00000 
 4.24520e-08  5.24742e-07        00000 
 1.01295e-07  9.11502e-07        00000 
 2.40573e-07  1.60448e-06        00000 
 5.57991e-07  2.87185e-06        00000 
 1.23872e-06  5.21682e-06        00000 
 2.58257e-06  9.52441e-06        00000 
 4.97048e-06  1.71869e-05        00000 
 8.68998e-06  3.00462e-05        00000 
 1.35796e-05  4.99147e-05        00000 
 1.86311e-05  7.75493e-05        00000 
 2.19547e-05  1.11387e-04        00000 
 2.15588e-05  1.46935e-04        00000 
 1.68404e-05  1.77753e-04        00000 
 9.60993e-06  1.97843e-04        00000 
 1.96592e-06  2.03289e-04        00000 
-2.08745e-05  1.90996e-04        00000 
-1.16745e-04  1.70787e-04        00000 
 6.51723e-11 -8.38626e-10        00000 
 2.96970e-11 -1.08590e-09        00000 
 4.08029e-11 -1.53785e-09        00000 
 7.29494e-11 -2.43433e-09        00000 
 1.23267e-10 -4.05987e-09        00000 
 1.99503e-10 -6.90559e-09        00000 
 3.10792e-10 -1.18261e-08        00000 
 4.61296e-10 -2.02954e-08        00000 
 6.34151e-10 -3.48429e-08        00000 
 7.48907e-10 -5.97954e-08        00000 
 5.48682e-10 -1.02539e-07        00000 
-7.08089e-10 -1.75691e-07        00000 
-5.11008e-09 -3.00968e-07        00000 
-1.84848e-08 -5.16528e-07        00000 
-5.67091e-08 -8.91988e-07        00000 
-1.60935e-07 -1.56069e-06        00000 
-4.29781e-07 -2.78826e-06        00000 
-1.07528e-06 -5.10654e-06        00000 
-2.49132e-06 -9.53545e-06        00000 
-5.27181e-06 -1.78510e-05        00000 
-1.00373e-05 -3.26947e-05        00000 
-1.69136e-05 -5.71047e-05        00000 
-2.47339e-05 -9.30432e-05        00000 
-3.05922e-05 -1.39116e-04        00000 
-3.07923e-05 -1.88911e-04        00000 
-2.35397e-05 -2.32074e-04        00000 
-1.14993e-05 -2.58639e-04        00000 
 6.02034e-07 -2.63206e-04        00000 
 2.92360e-05 -2.44196e-04        00000 
 1.47573e-04 -2.16597e-04        00000 
-1.27534e-10  8.19153e-10        00000 
-5.91945e-11  1.06067e-09        00000 
-8.30400e-11  1.50195e-09        00000 
-1.51258e-10  2.37727e-09        00000 
-2.62822e-10  3.96432e-09        00000 
-4.43404e-10  6.74241e-09        00000 
-7.34707e-10  1.15459e-08        00000 
-1.19809e-09  1.98148e-08        00000 
-1.91843e-09  3.40222e-08        00000 
-3.00053e-09  5.84022e-08        00000 
-4.53772e-09  1.00179e-07        00000 
-6.48379e-09  1.71643e-07        00000 
-8.19166e-09  2.93719e-07        00000 
-6.84964e-09  5.02434e-07        00000 
 7.44552e-09  8.61882e-07        00000 
 6.57473e-08  1.49306e-06        00000 
 2.55549e-07  2.64115e-06        00000 
 7.95560e-07  4.82630e-06        00000 
 2.15890e-06  9.14107e-06        00000 
 5.19263e-06  1.77151e-05        00000 
 1.10341e-05  3.41537e-05        00000 
 2.04625e-05  6.33176e-05        00000 
 3.24870e-05  1.09451e-04        00000 
 4.29138e-05  1.72294e-04        00000 
 4.50082e-05  2.43112e-04        00000 
 3.40529e-05  3.05064e-04        00000 
 1.34060e-05  3.40719e-04        00000 
-6.99537e-06  3.41865e-04        00000 
-4.26238e-05  3.10984e-04        00000 
-1.84711e-04  2.72201e-04        00000 
 1.88165e-10 -7.87614e-10        00000 
 8.79162e-11 -1.01985e-09        00000 
 1.24251e-10 -1.44404e-09        00000 
 2.27826e-10 -2.28551e-09        00000 
 3.99665e-10 -3.81102e-09        00000 
 6.83455e-10 -6.48117e-09        00000 
 1.15386e-09 -1.10980e-08        00000 
 1.93055e-09 -1.90464e-08        00000 
 3.20249e-09 -3.27078e-08        00000 
 5.26318e-09 -5.61654e-08        00000 
 8.55822e-09 -9.63952e-08        00000 
 1.37317e-08 -1.65257e-07        00000 
 2.15777e-08 -2.82800e-07        00000 
 3.24518e-08 -4.82885e-07        00000 
 4.34503e-08 -8.23634e-07        00000 
 3.79370e-08 -1.41022e-06        00000 
-4.69841e-08 -2.45191e-06        00000 