<?xml version="1.0" encoding="utf-8"?>
<VTKFile byte_order="LittleEndian" type="UnstructuredGrid" version="0.1">
   <UnstructuredGrid>
      <Piece NumberOfCells="3364" NumberOfPoints="1741">
         <Points>
            <DataArray Name="Points" NumberOfComponents="3" format="ascii" type="Float32">
0.0000 1.0000 0.0000
0.0000 1.0345 0.0000
0.0000 1.0690 0.0000
0.0000 1.1034 0.0000
0.0000 1.1379 0.0000
0.0000 1.1724 0.0000
0.0000 1.2069 0.0000
0.0000 1.2414 0.0000
0.0000 1.2759 0.0000
0.0000 1.3103 0.0000
0.0000 1.3448 0.0000
0.0000 1.3793 0.0000
0.0000 1.4138 0.0000
0.0000 1.4483 0.0000
0.0000 1.4828 0.0000
0.0000 1.5172 0.0000
0.0000 1.5517 0.0000
0.0000 1.5862 0.0000
0.0000 1.6207 0.0000
0.0000 1.6552 0.0000
0.0000 1.6897 0.0000
0.0000 1.7241 0.0000
0.0000 1.7586 0.0000
0.0000 1.7931 0.0000
0.0000 1.8276 0.0000
0.0000 1.8621 0.0000
0.0000 1.8966 0.0000
0.0000 1.9310 0.0000
0.0000 1.9655 0.0000
0.0000 2.0000 0.0000
0.0690 1.0000 0.0000
0.0690 1.0345 0.0000
0.0690 1.0690 0.0000
0.0690 1.1034 0.0000
0.0690 1.1379 0.0000
0.0690 1.1724 0.0000
0.0690 1.2069 0.0000
0.0690 1.2414 0.0000
0.0690 1.2759 0.0000
0.0690 1.3103 0.0000
0.0690 1.3448 0.0000
0.0690 1.3793 0.0000
0.0690 1.4138 0.0000
0.0690 1.4483 0.0000
0.0690 1.4828 0.0000
0.0690 1.5172 0.0000
0.0690 1.5517 0.0000
0.0690 1.5862 0.0000
0.0690 1.6207 0.0000
0.0690 1.6552 0.0000
0.0690 1.6897 0.0000
0.0690 1.7241 0.0000
0.0690 1.7586 0.0000
0.0690 1.7931 0.0000
0.0690 1.8276 0.0000
0.0690 1.8621 0.0000
0.0690 1.8966 0.0000
0.0690 1.9310 0.0000
0.0690 1.9655 0.0000
0.0690 2.0000 0.0000
0.1379 1.0000 0.0000
0.1379 1.0345 0.0000
0.1379 1.0690 0.0000
0.1379 1.1034 0.0000
0.1379 1.1379 0.0000
0.1379 1.1724 0.0000
0.1379 1.2069 0.0000
0.1379 1.2414 0.0000
0.1379 1.2759 0.0000
0.1379 1.3103 0.0000
0.1379 1.3448 0.0000
0.1379 1.3793 0.0000
0.1379 1.4138 0.0000
0.1379 1.4483 0.0000
0.1379 1.4828 0.0000
0.1379 1.5172 0.0000
0.1379 1.5517 0.0000
0.1379 1.5862 0.0000
0.1379 1.6207 0.0000
0.1379 1.6552 0.0000
0.1379 1.6897 0.0000
0.1379 1.7241 0.0000
0.1379 1.7586 0.0000
0.1379 1.7931 0.0000
0.1379 1.8276 0.0000
0.1379 1.8621 0.0000
0.1379 1.8966 0.0000
0.1379 1.9310 0.0000
0.1379 1.9655 0.0000
0.1379 2.0000 0.0000
0.2069 1.0000 0.0000
0.2069 1.0345 0.0000
0.2069 1.0690 0.0000
0.2069 1.1034 0.0000
0.2069 1.1379 0.0000
0.2069 1.1724 0.0000
0.2069 1.2069 0.0000
0.2069 1.2414 0.0000
0.2069 1.2759 0.0000
0.2069 1.3103 0.0000
0.2069 1.3448 0.0000
0.2069 1.3793 0.0000
0.2069 1.4138 0.0000
0.2069 1.4483 0.0000
0.2069 1.4828 0.0000
0.2069 1.5172 0.0000
0.2069 1.5517 0.0000
0.2069 1.5862 0.0000
0.2069 1.6207 0.0000
0.2069 1.6552 0.0000
0.2069 1.6897 0.0000
0.2069 1.7241 0.0000
0.2069 1.7586 0.0000
0.2069 1.7931 0.0000
0.2069 1.8276 0.0000
0.2069 1.8621 0.0000
0.2069 1.8966 0.0000
0.2069 1.9310 0.0000
0.2069 1.9655 0.0000
0.2069 2.0000 0.0000
0.2759 1.0000 0.0000
0.2759 1.0345 0.0000
0.2759 1.0690 0.0000
0.2759 1.1034 0.0000
0.2759 1.1379 0.0000
0.2759 1.1724 0.0000
0.2759 1.2069 0.0000
0.2759 1.2414 0.0000
0.2759 1.2759 0.0000
0.2759 1.3103 0.0000
0.2759 1.3448 0.0000
0.2759 1.3793 0.0000
0.2759 1.4138 0.0000
0.2759 1.4483 0.0000
0.2759 1.4828 0.0000
0.2759 1.5172 0.0000
0.2759 1.5517 0.0000
0.2759 1.5862 0.0000
0.2759 1.6207 0.0000
0.2759 1.6552 0.0000
0.2759 1.6897 0.0000
0.2759 1.7241 0.0000
0.2759 1.7586 0.0000
0.2759 1.7931 0.0000
0.2759 1.8276 0.0000
0.2759 1.8621 0.0000
0.2759 1.8966 0.0000
0.2759 1.9310 0.0000
0.2759 1.9655 0.0000
0.2759 2.0000 0.0000
0.3448 1.0000 0.0000
0.3448 1.0345 0.0000
0.3448 1.0690 0.0000
0.3448 1.1034 0.0000
0.3448 1.1379 0.0000
0.3448 1.1724 0.0000
0.3448 1.2069 0.0000
0.3448 1.2414 0.0000
0.3448 1.2759 0.0000
0.3448 1.3103 0.0000
0.3448 1.3448 0.0000
0.3448 1.3793 0.0000
0.3448 1.4138 0.0000
0.3448 1.4483 0.0000
0.3448 1.4828 0.0000
0.3448 1.5172 0.0000
0.3448 1.5517 0.0000
0.3448 1.5862 0.0000
0.3448 1.6207 0.0000
0.3448 1.6552 0.0000
0.3448 1.6897 0.0000
0.3448 1.7241 0.0000
0.3448 1.7586 0.0000
0.3448 1.7931 0.0000
0.3448 1.8276 0.0000
0.3448 1.8621 0.0000
0.3448 1.8966 0.0000
0.3448 1.9310 0.0000
0.3448 1.9655 0.0000
0.3448 2.0000 0.0000
0.4138 1.0000 0.0000
0.4138 1.0345 0.0000
0.4138 1.0690 0.0000
0.4138 1.1034 0.0000
0.4138 1.1379 0.0000
0.4138 1.1724 0.0000
0.4138 1.2069 0.0000
0.4138 1.2414 0.0000
0.4138 1.2759 0.0000
0.4138 1.3103 0.0000
0.4138 1.3448 0.0000
0.4138 1.3793 0.0000
0.4138 1.4138 0.0000
0.4138 1.4483 0.0000
0.4138 1.4828 0.0000
0.4138 1.5172 0.0000
0.4138 1.5517 0.0000
0.4138 1.5862 0.0000
0.4138 1.6207 0.0000
0.4138 1.6552 0.0000
0.4138 1.6897 0.0000
0.4138 1.7241 0.0000
0.4138 1.7586 0.0000
0.4138 1.7931 0.0000
0.4138 1.8276 0.0000
0.4138 1.8621 0.0000
0.4138 1.8966 0.0000
0.4138 1.9310 0.0000
0.4138 1.9655 0.0000
0.4138 2.0000 0.0000
0.4828 1.0000 0.0000
0.4828 1.0345 0.0000
0.4828 1.0690 0.0000
0.4828 1.1034 0.0000
0.4828 1.1379 0.0000
0.4828 1.1724 0.0000
0.4828 1.2069 0.0000
0.4828 1.2414 0.0000
0.4828 1.2759 0.0000
0.4828 1.3103 0.0000
0.4828 1.3448 0.0000
0.4828 1.3793 0.0000
0.4828 1.4138 0.0000
0.4828 1.4483 0.0000
0.4828 1.4828 0.0000
0.4828 1.5172 0.0000
0.4828 1.5517 0.0000
0.4828 1.5862 0.0000
0.4828 1.6207 0.0000
0.4828 1.6552 0.0000
0.4828 1.6897 0.0000
0.4828 1.7241 0.0000
0.4828 1.7586 0.0000
0.4828 1.7931 0.0000
0.4828 1.8276 0.0000
0.4828 1.8621 0.0000
0.4828 1.8966 0.0000
0.4828 1.9310 0.0000
0.4828 1.9655 0.0000
0.4828 2.0000 0.0000
0.5517 1.0000 0.0000
0.5517 1.0345 0.0000
0.5517 1.0690 0.0000
0.5517 1.1034 0.0000
0.5517 1.1379 0.0000
0.5517 1.1724 0.0000
0.5517 1.2069 0.0000
0.5517 1.2414 0.0000
0.5517 1.2759 0.0000
0.5517 1.3103 0.0000
0.5517 1.3448 0.0000
0.5517 1.3793 0.0000
0.5517 1.4138 0.0000
0.5517 1.4483 0.0000
0.5517 1.4828 0.0000
0.5517 1.5172 0.0000
0.5517 1.5517 0.0000
0.5517 1.5862 0.0000
0.5517 1.6207 0.0000
0.5517 1.6552 0.0000
0.5517 1.6897 0.0000
0.5517 1.7241 0.0000
0.5517 1.7586 0.0000
0.5517 1.7931 0.0000
0.5517 1.8276 0.0000
0.5517 1.8621 0.0000
0.5517 1.8966 0.0000
0.5517 1.9310 0.0000
0.5517 1.9655 0.0000
0.5517 2.0000 0.0000
0.6207 1.0000 0.0000
0.6207 1.0345 0.0000
0.6207 1.0690 0.0000
0.6207 1.1034 0.0000
0.6207 1.1379 0.0000
0.6207 1.1724 0.0000
0.6207 1.2069 0.0000
0.6207 1.2414 0.0000
0.6207 1.2759 0.0000
0.6207 1.3103 0.0000
0.6207 1.3448 0.0000
0.6207 1.3793 0.0000
0.6207 1.4138 0.0000
0.6207 1.4483 0.0000
0.6207 1.4828 0.0000
0.6207 1.5172 0.0000
0.6207 1.5517 0.0000
0.6207 1.5862 0.0000
0.6207 1.6207 0.0000
0.6207 1.6552 0.0000
0.6207 1.6897 0.0000
0.6207 1.7241 0.0000
0.6207 1.7586 0.0000
0.6207 1.7931 0.0000
0.6207 1.8276 0.0000
0.6207 1.8621 0.0000
0.6207 1.8966 0.0000
0.6207 1.9310 0.0000
0.6207 1.9655 0.0000
0.6207 2.0000 0.0000
0.6897 1.0000 0.0000
0.6897 1.0345 0.0000
0.6897 1.0690 0.0000
0.6897 1.1034 0.0000
0.6897 1.1379 0.0000
0.6897 1.1724 0.0000
0.6897 1.2069 0.0000
0.6897 1.2414 0.0000
0.6897 1.2759 0.0000
0.6897 1.3103 0.0000
0.6897 1.3448 0.0000
0.6897 1.3793 0.0000
0.6897 1.4138 0.0000
0.6897 1.4483 0.0000
0.6897 1.4828 0.0000
0.6897 1.5172 0.0000
0.6897 1.5517 0.0000
0.6897 1.5862 0.0000
0.6897 1.6207 0.0000
0.6897 1.6552 0.0000
0.6897 1.6897 0.0000
0.6897 1.7241 0.0000
0.6897 1.7586 0.0000
0.6897 1.7931 0.0000
0.6897 1.8276 0.0000
0.6897 1.8621 0.0000
0.6897 1.8966 0.0000
0.6897 1.9310 0.0000
0.6897 1.9655 0.0000
0.6897 2.0000 0.0000
0.7586 1.0000 0.0000
0.7586 1.0345 0.0000
0.7586 1.0690 0.0000
0.7586 1.1034 0.0000
0.7586 1.1379 0.0000
0.7586 1.1724 0.0000
0.7586 1.2069 0.0000
0.7586 1.2414 0.0000
0.7586 1.2759 0.0000
0.7586 1.3103 0.0000
0.7586 1.3448 0.0000
0.7586 1.3793 0.0000
0.7586 1.4138 0.0000
0.7586 1.4483 0.0000
0.7586 1.4828 0.0000
0.7586 1.5172 0.0000
0.7586 1.5517 0.0000
0.7586 1.5862 0.0000
0.7586 1.6207 0.0000
0.7586 1.6552 0.0000
0.7586 1.6897 0.0000
0.7586 1.7241 0.0000
0.7586 1.7586 0.0000
0.7586 1.7931 0.0000
0.7586 1.8276 0.0000
0.7586 1.8621 0.0000
0.7586 1.8966 0.0000
0.7586 1.9310 0.0000
0.7586 1.9655 0.0000
0.7586 2.0000 0.0000
0.8276 1.0000 0.0000
0.8276 1.0345 0.0000
0.8276 1.0690 0.0000
0.8276 1.1034 0.0000
0.8276 1.1379 0.0000
0.8276 1.1724 0.0000
0.8276 1.2069 0.0000
0.8276 1.2414 0.0000
0.8276 1.2759 0.0000
0.8276 1.3103 0.0000
0.8276 1.3448 0.0000
0.8276 1.3793 0.0000
0.8276 1.4138 0.0000
0.8276 1.4483 0.0000
0.8276 1.4828 0.0000
0.8276 1.5172 0.0000
0.8276 1.5517 0.0000
0.8276 1.5862 0.0000
0.8276 1.6207 0.0000
0.8276 1.6552 0.0000
0.8276 1.6897 0.0000
0.8276 1.7241 0.0000
0.8276 1.7586 0.0000
0.8276 1.7931 0.0000
0.8276 1.8276 0.0000
0.8276 1.8621 0.0000
0.8276 1.8966 0.0000
0.8276 1.9310 0.0000
0.8276 1.9655 0.0000
0.8276 2.0000 0.0000
0.8966 1.0000 0.0000
0.8966 1.0345 0.0000
0.8966 1.0690 0.0000
0.8966 1.1034 0.0000
0.8966 1.1379 0.0000
0.8966 1.1724 0.0000
0.8966 1.2069 0.0000
0.8966 1.2414 0.0000
0.8966 1.2759 0.0000
0.8966 1.3103 0.0000
0.8966 1.3448 0.0000
0.8966 1.3793 0.0000
0.8966 1.4138 0.0000
0.8966 1.4483 0.0000
0.8966 1.4828 0.0000
0.8966 1.5172 0.0000
0.8966 1.5517 0.0000
0.8966 1.5862 0.0000
0.8966 1.6207 0.0000
0.8966 1.6552 0.0000
0.8966 1.6897 0.0000
0.8966 1.7241 0.0000
0.8966 1.7586 0.0000
0.8966 1.7931 0.0000
0.8966 1.8276 0.0000
0.8966 1.8621 0.0000
0.8966 1.8966 0.0000
0.8966 1.9310 0.0000
0.8966 1.9655 0.0000
0.8966 2.0000 0.0000
0.9655 1.0000 0.0000
0.9655 1.0345 0.0000
0.9655 1.0690 0.0000
0.9655 1.1034 0.0000
0.9655 1.1379 0.0000
0.9655 1.1724 0.0000
0.9655 1.2069 0.0000
0.9655 1.2414 0.0000
0.9655 1.2759 0.0000
0.9655 1.3103 0.0000
0.9655 1.3448 0.0000
0.9655 1.3793 0.0000
0.9655 1.4138 0.0000
0.9655 1.4483 0.0000
0.9655 1.4828 0.0000
0.9655 1.5172 0.0000
0.9655 1.5517 0.0000
0.9655 1.5862 0.0000
0.9655 1.6207 0.0000
0.9655 1.6552 0.0000
0.9655 1.6897 0.0000
0.9655 1.7241 0.0000
0.9655 1.7586 0.0000
0.9655 1.7931 0.0000
0.9655 1.8276 0.0000
0.9655 1.8621 0.0000
0.9655 1.8966 0.0000
0.9655 1.9310 0.0000
0.9655 1.9655 0.0000
0.9655 2.0000 0.0000
1.0345 1.0000 0.0000
1.0345 1.0345 0.0000
1.0345 1.0690 0.0000
1.0345 1.1034 0.0000
1.0345 1.1379 0.0000
1.0345 1.1724 0.0000
1.0345 1.2069 0.0000
1.0345 1.2414 0.0000
1.0345 1.2759 0.0000
1.0345 1.3103 0.0000
1.0345 1.3448 0.0000
[...]
         <PointData>
            <DataArray Name="fValues" NumberOfComponents="3" format="ascii" type="Float64">
 1.34362e-22  3.76065e-23        00000 
-6.73759e-23  2.02128e-22        00000 
 8.32830e-24  3.33132e-23        00000 
-1.39519e-24  1.06034e-22        00000 
-4.16415e-24 -8.21725e-22        00000 
 1.72073e-23 -1.96529e-22        00000 
 8.32830e-24 -5.10802e-22        00000 
 2.70317e-24 -9.76630e-24        00000 
 1.11044e-23 -2.60953e-22        00000 
 6.63139e-23 -1.71090e-22        00000 
 2.77610e-23 -1.27701e-22        00000 
 3.88908e-23 -8.26648e-23        00000 
-8.32830e-24  5.27459e-23        00000 
 5.47847e-23 -8.22364e-23        00000 
 2.77610e-24  7.77308e-23        00000 
-2.09278e-24  2.09976e-22        00000 
       00000  6.66264e-23        00000 
-1.92897e-23  1.00517e-22        00000 
 4.16415e-24 -1.11044e-23        00000 
-4.70875e-24  1.31671e-23        00000 
-9.02232e-24  2.91490e-23        00000 
-7.89439e-24  3.22195e-23        00000 
-5.55220e-24        00000        00000 
-2.44158e-24  6.88873e-24        00000 
-1.73506e-24  1.64831e-23        00000 
-2.93685e-24  5.44297e-24        00000 
 3.47012e-25  2.94961e-24        00000 
-7.64416e-25  2.52257e-24        00000 
 3.06240e-25 -1.93588e-24        00000 
 1.30060e-24 -2.95894e-24        00000 
-2.38789e-06 -7.90246e-07        00000 
-1.36285e-07 -7.90059e-07        00000 
-7.54468e-08 -1.14818e-06        00000 
-5.52482e-08 -1.26657e-06        00000 
 1.45434e-10 -1.30618e-06        00000 
 9.80295e-08 -1.29604e-06        00000 
 2.20734e-07 -1.22117e-06        00000 
 3.45162e-07 -1.07193e-06        00000 
 4.46197e-07 -8.53884e-07        00000 
 5.02971e-07 -5.87583e-07        00000 
 5.04286e-07 -3.03835e-07        00000 
 4.51237e-07 -3.64714e-08        00000 
 3.56195e-07  1.85314e-07        00000 
 2.38707e-07  3.42799e-07        00000 
 1.19885e-07  4.30269e-07        00000 
 1.72510e-08  4.53985e-07        00000 
-5.84967e-08  4.28482e-07        00000 
-1.04203e-07  3.71782e-07        00000 
-1.22881e-07  3.01051e-07        00000 
-1.21204e-07  2.29729e-07        00000 
-1.06917e-07  1.66401e-07        00000 
-8.69057e-08  1.15106e-07        00000 
-6.61889e-08  7.64743e-08        00000 
-4.77397e-08  4.90914e-08        00000 
-3.28272e-08  3.06688e-08        00000 
-2.15636e-08  1.88482e-08        00000 
-1.34189e-08  1.16004e-08        00000 
-7.71572e-09  7.14206e-09        00000 
-4.03447e-09  3.45211e-09        00000 
-1.42676e-08  3.08695e-09        00000 
 2.87937e-06  1.81603e-06        00000 
 4.93134e-07  2.02397e-06        00000 
 8.22516e-08  2.36355e-06        00000 
 8.20121e-08  2.59330e-06        00000 
 1.72999e-08  2.70686e-06        00000 
-1.12285e-07  2.70590e-06        00000 
-2.80664e-07  2.55956e-06        00000 
-4.53172e-07  2.24903e-06        00000 
-5.93601e-07  1.78700e-06        00000 
-6.72138e-07  1.21889e-06        00000 
-6.73021e-07  6.12922e-07        00000 
-5.98278e-07  4.38266e-08        00000 
-4.66097e-07 -4.24444e-07        00000 
-3.04628e-07 -7.51736e-07        00000 
-1.43692e-07 -9.27072e-07        00000 
-7.33689e-09 -9.65879e-07        00000 
 9.05386e-08 -9.01295e-07        00000 
 1.46827e-07 -7.73266e-07        00000 
 1.66846e-07 -6.18966e-07        00000 
 1.60539e-07 -4.66717e-07        00000 
 1.38783e-07 -3.33917e-07        00000 
 1.10815e-07 -2.28093e-07        00000 
 8.30467e-08 -1.49635e-07        00000 
 5.90288e-08 -9.48615e-08        00000 
 4.00620e-08 -5.85458e-08        00000 
 2.60033e-08 -3.55438e-08        00000 
 1.59814e-08 -2.15650e-08        00000 
 8.96254e-09 -1.32825e-08        00000 
 6.46817e-09 -8.63841e-09        00000 
 1.59370e-08 -6.82905e-09        00000 
-3.27007e-06 -2.87139e-06        00000 
-6.47466e-07 -3.28102e-06        00000 
-1.55313e-07 -3.73218e-06        00000 
-1.32555e-07 -4.07035e-06        00000 
-5.78043e-08 -4.27985e-06        00000 
 1.04999e-07 -4.30682e-06        00000 
 3.22741e-07 -4.09017e-06        00000 
 5.48749e-07 -3.59809e-06        00000 
 7.33392e-07 -2.85199e-06        00000 
 8.35920e-07 -1.92842e-06        00000 
 8.35191e-07 -9.42502e-07        00000 
 7.34845e-07 -1.99985e-08        00000 
 5.60721e-07  7.32471e-07        00000 
 3.51728e-07  1.24956e-06        00000 
 1.47946e-07  1.51580e-06        00000 
-1.96400e-08  1.55995e-06        00000 
-1.34676e-07  1.43945e-06        00000 
-1.95514e-07  1.22150e-06        00000 
-2.11237e-07  9.67058e-07        00000 
-1.96074e-07  7.21200e-07        00000 
-1.64425e-07  5.10411e-07        00000 
-1.27723e-07  3.45015e-07        00000 
-9.33145e-08  2.24124e-07        00000 
-6.47936e-08  1.40829e-07        00000 
-4.30540e-08  8.62444e-08        00000 
-2.74252e-08  5.20055e-08        00000 
-1.65741e-08  3.13787e-08        00000 
-9.32569e-09  1.95232e-08        00000 
-6.88206e-09  1.33213e-08        00000 
-1.58524e-08  1.02348e-08        00000 
 3.74806e-06  4.04518e-06        00000 
 7.97851e-07  4.65067e-06        00000 
 2.52303e-07  5.28805e-06        00000 
 2.27670e-07  5.79055e-06        00000 
 1.30964e-07  6.13515e-06        00000 
-8.20669e-08  6.21894e-06        00000 
-3.73129e-07  5.93449e-06        00000 
-6.78838e-07  5.22826e-06        00000 
-9.29515e-07  4.13172e-06        00000 
-1.06750e-06  2.76302e-06        00000 
-1.06340e-06  1.30066e-06        00000 
-9.23685e-07 -6.09870e-08        00000 
-6.86510e-07 -1.15911e-06        00000 
-4.07676e-07 -1.89706e-06        00000 
-1.42864e-07 -2.25669e-06        00000 
 6.70257e-08 -2.28772e-06        00000 
 2.02920e-07 -2.08186e-06        00000 
 2.66380e-07 -1.74262e-06        00000 
 2.72823e-07 -1.36085e-06        00000 
 2.43094e-07 -1.00114e-06        00000 
 1.96625e-07 -6.99182e-07        00000 
 1.47676e-07 -4.66705e-07        00000 
 1.04511e-07 -2.99717e-07        00000 
 7.04348e-08 -1.86459e-07        00000 
 4.55424e-08 -1.13260e-07        00000 
 2.83211e-08 -6.78725e-08        00000 
 1.67984e-08 -4.08163e-08        00000 
 9.36621e-09 -2.54866e-08        00000 
 6.83052e-09 -1.75984e-08        00000 
 1.52093e-08 -1.34854e-08        00000 
-4.36873e-06 -5.37662e-06        00000 
-9.87882e-07 -6.20734e-06        00000 
-3.90985e-07 -7.10117e-06        00000 
-3.76916e-07 -7.84783e-06        00000 
-2.52053e-07 -8.39944e-06        00000 
 3.59123e-08 -8.58872e-06        00000 
 4.36846e-07 -8.24351e-06        00000 
 8.62694e-07 -7.27590e-06        00000 
 1.21311e-06 -5.72892e-06        00000 
 1.40410e-06 -3.77855e-06        00000 
 1.39350e-06 -1.69294e-06        00000 
 1.19269e-06  2.37029e-07        00000 
 8.59679e-07  1.77120e-06        00000 
 4.76889e-07  2.77275e-06        00000 
 1.23836e-07  3.22475e-06        00000 
-1.44388e-07  3.21080e-06        00000 
-3.06029e-07  2.87287e-06        00000 
-3.68872e-07  2.36461e-06        00000 
-3.58681e-07  1.81562e-06        00000 
-3.06320e-07  1.31344e-06        00000 
-2.38298e-07  9.02432e-07        00000 
-1.72418e-07  5.93200e-07        00000 
-1.17703e-07  3.75726e-07        00000 
-7.66502e-08  2.31016e-07        00000 
-4.80121e-08  1.39028e-07        00000 
-2.90336e-08  8.27719e-08        00000 
-1.68406e-08  4.96129e-08        00000 
-9.24730e-09  3.10112e-08        00000 
-6.59875e-09  2.15120e-08        00000 
-1.43075e-08  1.65027e-08        00000 
 5.14966e-06  6.90457e-06        00000 
 1.23920e-06  8.01138e-06        00000 
 5.92908e-07  9.25076e-06        00000 
 6.03535e-07  1.03551e-05        00000 
 4.43735e-07  1.12261e-05        00000 
 4.86743e-08  1.16008e-05        00000 
-5.13928e-07  1.12119e-05        00000 
-1.11869e-06  9.91824e-06        00000 
-1.61822e-06  7.77609e-06        00000 
-1.88760e-06  5.04396e-06        00000 
-1.86493e-06  2.12011e-06        00000 
-1.57004e-06 -5.64970e-07        00000 
-1.09278e-06 -2.66193e-06        00000 
-5.57280e-07 -3.98166e-06        00000 
-7.89825e-08 -4.51636e-06        00000 
 2.67319e-07 -4.40467e-06        00000 
 4.58363e-07 -3.86359e-06        00000 
 5.13486e-07 -3.11724e-06        00000 
 4.75013e-07 -2.34576e-06        00000 
 3.88577e-07 -1.66325e-06        00000 
 2.90213e-07 -1.12079e-06        00000 
 2.01776e-07 -7.23501e-07        00000 
 1.32471e-07 -4.50944e-07        00000 
 8.30841e-08 -2.73577e-07        00000 
 5.02479e-08 -1.62969e-07        00000 
 2.94557e-08 -9.63681e-08        00000 
 1.66581e-08 -5.75737e-08        00000 
 8.97631e-09 -3.59987e-08        00000 
 6.24812e-09 -2.50451e-08        00000 
 1.32052e-08 -1.92402e-08        00000 
-6.09739e-06 -8.66411e-06        00000 
-1.57005e-06 -1.01168e-05        00000 
-8.87205e-07 -1.18230e-05        00000 
-9.43620e-07 -1.34483e-05        00000 
-7.41864e-07 -1.48081e-05        00000 
-1.96543e-07 -1.54952e-05        00000 
 6.01340e-07 -1.50987e-05        00000 
 1.47104e-06 -1.33933e-05        00000 
 2.19277e-06 -1.04499e-05        00000 
 2.57761e-06 -6.64664e-06        00000 
 2.53308e-06 -2.57400e-06        00000 
 2.09339e-06  1.13191e-06        00000 
 1.39974e-06  3.96510e-06        00000 
 6.41534e-07  5.66841e-06        00000 
-1.19956e-08  6.25851e-06        00000 
-4.59569e-07  5.96352e-06        00000 
-6.80055e-07  5.11331e-06        00000 
-7.13609e-07  4.03137e-06        00000 
-6.28665e-07  2.96341e-06        00000 
-4.92103e-07  2.05278e-06        00000 
-3.52174e-07  1.35253e-06        00000 
-2.34721e-07  8.55174e-07        00000 
-1.47799e-07  5.23462e-07        00000 
-8.90239e-08  3.12961e-07        00000 
-5.18409e-08  1.84450e-07        00000 
-2.93855e-08  1.08348e-07        00000 
-1.61667e-08  6.45460e-08        00000 
-8.53134e-09  4.03767e-08        00000 
-5.78548e-09  2.81659e-08        00000 
-1.19150e-08  2.16662e-08        00000 
 7.20906e-06  1.06814e-05        00000 
 2.00106e-06  1.25709e-05        00000 
 1.31357e-06  1.49096e-05        00000 
 1.45003e-06  1.72902e-05        00000 
 1.20130e-06  1.93921e-05        00000 
 4.47789e-07  2.05903e-05        00000 
-6.91023e-07  2.02555e-05        00000 
-1.95318e-06  1.80278e-05        00000 
-3.00699e-06  1.39913e-05        00000 
-3.56236e-06  8.69931e-06        00000 
-3.47878e-06  3.03046e-06        00000 
-2.81522e-06 -2.07223e-06        00000 
-1.79620e-06 -5.87553e-06        00000 
-7.13876e-07 -8.03483e-06        00000 
 1.82203e-07 -8.62011e-06        00000 
 7.56632e-07 -8.00504e-06        00000 
 9.98966e-07 -6.68962e-06        00000 
 9.86058e-07 -5.13704e-06        00000 
 8.26921e-07 -3.67630e-06        00000 
 6.18199e-07 -2.47972e-06        00000 
 4.22828e-07 -1.59277e-06        00000 
 2.69357e-07 -9.84043e-07        00000 
 1.62183e-07 -5.90622e-07        00000 
 9.35411e-08 -3.47761e-07        00000 
 5.23102e-08 -2.02821e-07        00000 
 2.86093e-08 -1.18437e-07        00000 
 1.52858e-08 -7.04154e-08        00000 
 7.89002e-09 -4.40932e-08        00000 
 5.20938e-09 -3.08448e-08        00000 
 1.04449e-08 -2.37569e-08        00000 
-8.46705e-06 -1.29663e-05        00000 
-2.55635e-06 -1.54079e-05        00000 
-1.92567e-06 -1.86037e-05        00000 
-2.19853e-06 -2.20743e-05        00000 
-1.90498e-06 -2.52937e-05        00000 
-8.66930e-07 -2.73128e-05        00000 
 7.65210e-07 -2.71669e-05        00000 
 2.61116e-06 -2.42776e-05        00000 
 4.16467e-06 -1.87344e-05        00000 
 4.97370e-06 -1.13491e-05        00000 
 4.82107e-06 -3.43726e-06        00000 
 3.80855e-06  3.59414e-06        00000 
 2.29758e-06  8.67925e-06        00000 
 7.43360e-07  1.13643e-05        00000 
-4.84962e-07  1.18259e-05        00000 
-1.21088e-06  1.06745e-05        00000 
-1.45275e-06  8.66645e-06        00000 
-1.35091e-06  6.45941e-06        00000 
-1.07643e-06  4.48421e-06        00000 
-7.66210e-07  2.93516e-06        00000 
-4.99059e-07  1.83259e-06        00000 
-3.02712e-07  1.10405e-06        00000 
-1.73628e-07  6.49122e-07        00000 
-9.55582e-08  3.76466e-07        00000 
-5.11666e-08  2.17488e-07        00000 
-2.69396e-08  1.26430e-07        00000 
-1.39576e-08  7.51117e-08        00000 
-7.04041e-09  4.71173e-08        00000 
-4.52137e-09  3.30593e-08        00000 
-8.80695e-09  2.54937e-08        00000 
 9.83015e-06  1.55019e-05        00000 
 3.26272e-06  1.86387e-05        00000 
 2.79429e-06  2.29912e-05        00000 
 3.29611e-06  2.80247e-05        00000 
 2.97771e-06  3.29161e-05        00000 
 1.55809e-06  3.62381e-05        00000 
-7.87531e-07  3.65076e-05        00000 
-3.50757e-06  3.27878e-05        00000 
-5.82065e-06  2.51501e-05        00000 
-7.01095e-06  1.47898e-05        00000 
-6.73671e-06  3.69355e-06        00000 
-5.17458e-06 -6.02149e-06        00000 
-2.91416e-06 -1.27988e-05        00000 
-6.71947e-07 -1.60555e-05        00000 
 1.00551e-06 -1.61731e-05        00000 
 1.89856e-06 -1.41467e-05        00000 
 2.09067e-06 -1.11183e-05        00000 
 1.83019e-06 -8.01171e-06        00000 
 1.38107e-06 -5.37399e-06        00000 
 9.31932e-07 -3.40123e-06        00000 
 5.75228e-07 -2.05844e-06        00000 
 3.30545e-07 -1.20737e-06        00000 
 1.79711e-07 -6.95303e-07        00000 
 9.39495e-08 -3.97669e-07        00000 
 4.79827e-08 -2.28017e-07        00000 
 2.42501e-08 -1.32222e-07        00000 
 1.21593e-08 -7.86135e-08        00000 
 5.98574e-09 -4.94372e-08        00000 
 3.72873e-09 -3.47937e-08        00000 
 7.01753e-09 -2.68614e-08        00000 
-1.12218e-05 -1.82307e-05        00000 
-4.14630e-06 -2.22344e-05        00000 
-4.00880e-06 -2.81350e-05        00000 
-4.89111e-06 -3.53910e-05        00000 
-4.60687e-06 -4.27697e-05        00000 
-2.69034e-06 -4.81442e-05        00000 
 6.86259e-07 -4.92270e-05        00000 
 4.72604e-06 -4.44840e-05        00000 
 8.20832e-06 -3.39117e-05        00000 
 9.97957e-06 -1.92784e-05        00000 
 9.49106e-06 -3.61450e-06        00000 
 7.05241e-06  9.86086e-06        00000 
 3.63997e-06  1.88618e-05        00000 
 3.93658e-07  2.26696e-05        00000 
-1.87906e-06  2.20493e-05        00000 
-2.92873e-06  1.86229e-05        00000 
-2.97424e-06  1.41084e-05        00000 
-2.44448e-06  9.78405e-06        00000 
-1.73838e-06  6.31294e-06        00000 
-1.10547e-06  3.84864e-06        00000 
-6.42413e-07  2.25202e-06        00000 
-3.47330e-07  1.28506e-06        00000 
-1.77772e-07  7.25671e-07        00000 
-8.77044e-08  4.10337e-07        00000 
-4.24774e-08  2.34226e-07        00000 
-2.05061e-08  1.35830e-07        00000 
-9.91075e-09  8.09444e-08        00000 
-4.74509e-09  5.10549e-08        00000 
-2.84414e-09  3.60368e-08        00000 
-5.09678e-09  2.78474e-08        00000 
 1.25161e-05  2.10373e-05        00000 
 5.22519e-06  2.61037e-05        00000 
 5.67430e-06  3.40477e-05        00000 
 7.18381e-06  4.44301e-05        00000 
 7.07288e-06  5.54870e-05        00000 
 4.54022e-06  6.40824e-05        00000 
-3.22489e-07  6.66719e-05        00000 
-6.37466e-06  6.07127e-05        00000 
-1.16844e-05  4.59985e-05        00000 
-1.43558e-05  2.51579e-05        00000 
-1.34877e-05  2.87003e-06        00000 
-9.63065e-06 -1.59105e-05        00000 
-4.42936e-06 -2.78056e-05        00000 
 2.81785e-07 -3.19936e-05        00000 
 3.31826e-06 -2.99491e-05        00000 
 4.45330e-06 -2.43164e-05        00000 
 4.17430e-06 -1.76661e-05        00000 
 3.20580e-06 -1.17266e-05        00000 
 2.13398e-06 -7.24110e-06        00000 
 1.26869e-06 -4.23522e-06        00000 
 6.87975e-07 -2.39127e-06        00000 
 3.46610e-07 -1.32820e-06        00000 
 1.65304e-07 -7.37626e-07        00000 
 7.61504e-08 -4.14110e-07        00000 
 3.46009e-08 -2.36258e-07        00000 
 1.57839e-08 -1.37388e-07        00000 
 7.27374e-09 -8.21589e-08        00000 
 3.35015e-09 -5.19785e-08        00000 
 1.88384e-09 -3.67793e-08        00000 
 3.06720e-09 -2.84403e-08        00000 
-1.35239e-05 -2.37307e-05        00000 
-6.49497e-06 -3.00644e-05        00000 
-7.89892e-06 -4.06470e-05        00000 
-1.04337e-05 -5.53638e-05        00000 
-1.07925e-05 -7.18244e-05        00000 
-7.56379e-06 -8.54665e-05        00000 
-5.71036e-07 -9.07700e-05        00000 
 8.58443e-06 -8.34632e-05        00000 
 1.68026e-05 -6.28606e-05        00000 
 2.08973e-05 -3.28892e-05        00000 
 1.93502e-05 -8.77376e-07        00000 
 1.31583e-05  2.54399e-05        00000 
 5.14835e-06  4.10376e-05        00000 
-1.69230e-06  4.51236e-05        00000 
-5.65312e-06  4.04798e-05        00000 
-6.67510e-06  3.14180e-05        00000 
-5.76054e-06  2.17486e-05        00000 
-4.10452e-06  1.37270e-05        00000 
-2.53387e-06  8.06391e-06        00000 
-1.39298e-06  4.50677e-06        00000 
-6.95946e-07  2.45311e-06        00000 
-3.21901e-07  1.32992e-06        00000 
-1.40555e-07  7.30315e-07        00000 
-5.91969e-08  4.09510e-07        00000 
-2.45923e-08  2.34573e-07        00000 
-1.02681e-08  1.37104e-07        00000 
-4.34103e-09  8.23182e-08        00000 
-1.83916e-09  5.22133e-08        00000 
-8.65358e-10  3.70119e-08        00000 
-9.53048e-10  2.86301e-08        00000 
 1.39846e-05  2.60313e-05        00000 
 7.90387e-06  3.38104e-05        00000 
 1.07619e-05  4.76878e-05        00000 
 1.49536e-05  6.82918e-05        00000 
 1.63764e-05  9.26270e-05        00000 
 1.25183e-05  1.14177e-04        00000 
 2.50931e-06  1.24303e-04        00000 
-1.14912e-05  1.15726e-04        00000 
-2.44387e-05  8.66911e-05        00000 
-3.08401e-05  4.30957e-05        00000 
-2.80594e-05 -3.39127e-06        00000 
-1.79464e-05 -4.04920e-05        00000 
-5.47392e-06 -6.06821e-05        00000 
 4.43321e-06 -6.35668e-05        00000 
 9.38554e-06 -5.43371e-05        00000 
 9.84563e-06 -4.00212e-05        00000 
 7.77558e-06 -2.61807e-05        00000 
 5.08791e-06 -1.55828e-05        00000 
 2.87543e-06 -8.64904e-06        00000 
 1.43861e-06 -4.60237e-06        00000 
 6.48986e-07 -2.41843e-06        00000 
 2.68290e-07 -1.28781e-06        00000 
 1.03244e-07 -7.05335e-07        00000 
 3.75196e-08 -3.97963e-07        00000 
 1.29764e-08 -2.29844e-07        00000 
 4.22008e-09 -1.35197e-07        00000 
 1.21776e-09 -8.14652e-08        00000 
 2.49850e-10 -5.17564e-08        00000 
-1.94440e-10 -3.67254e-08        00000 
-1.21941e-09 -2.84094e-08        00000 
-1.35738e-05 -2.75759e-05        00000 
-9.31451e-06 -3.68844e-05        00000 
-1.42482e-05 -5.46644e-05        00000 
-2.10689e-05 -8.30306e-05        00000 
-2.46944e-05 -1.18709e-04        00000 
-2.06660e-05 -1.52656e-04        00000 
-6.49200e-06 -1.71316e-04        00000 
 1.51712e-05 -1.62084e-04        00000 
 3.60070e-05 -1.20891e-04        00000 
 4.62606e-05 -5.66274e-05        00000 
 4.11897e-05  1.17611e-05        00000 
 2.43335e-05  6.44025e-05        00000 
 4.68550e-06  8.99599e-05        00000 
-9.54457e-06  8.93449e-05        00000 
-1.52520e-05  7.22093e-05        00000 
-1.42325e-05  4.99827e-05        00000 
-1.01820e-05  3.05670e-05        00000 
-6.02926e-06  1.69775e-05        00000 
-3.06047e-06  8.83395e-06        00000 
-1.35816e-06  4.46689e-06        00000 
-5.32587e-07  2.27937e-06        00000 
-1.84587e-07  1.20629e-06        00000 
-5.51674e-08  6.66910e-07        00000 
-1.25739e-08  3.81510e-07        00000 
-4.73913e-10  2.22749e-07        00000 
 2.07832e-09  1.31813e-07        00000 
 1.99956e-09  7.96061e-08        00000 
 1.38564e-09  5.05965e-08        00000 
 1.27985e-09  3.59133e-08        00000 
 3.42108e-09  2.77753e-08        00000 
 1.19430e-05  2.79573e-05        00000 
 1.04555e-05  3.86745e-05        00000 
 1.81323e-05  6.06871e-05        00000 
 2.89982e-05  9.88315e-05        00000 
 3.69141e-05  1.50562e-04        00000 
 3.41042e-05  2.03940e-04        00000 
 1.44812e-05  2.37723e-04        00000 
-1.94465e-05  2.29731e-04        00000 
-5.38421e-05  1.70898e-04        00000 
-7.07708e-05  7.46530e-05        00000 
-6.13240e-05 -2.75215e-05        00000 
-3.25412e-05 -1.02715e-04        00000 
-1.23035e-06 -1.33766e-04        00000 
 1.88189e-05 -1.25045e-04        00000 
 2.42634e-05 -9.45266e-05        00000 
 2.00159e-05 -6.06767e-05        00000 
 1.27679e-05 -3.41836e-05        00000 