<?xml version="1.0" encoding="utf-8"?>
<VTKFile byte_order="LittleEndian" type="UnstructuredGrid" version="0.1">
   <UnstructuredGrid>
      <Piece NumberOfCells="3364" NumberOfPoints="1741">
         <Points>
            <DataArray Name="Points" NumberOfComponents="3" format="ascii" type="Float32">
0.0000 1.0000 0.0000
0.0000 1.0345 0.0000
0.0000 1.0690 0.0000
0.0000 1.1034 0.0000
0.0000 1.1379 0.0000
0.0000 1.1724 0.0000
0.0000 1.2069 0.0000
0.0000 1.2414 0.0000
0.0000 1.2759 0.0000
0.0000 1.3103 0.0000
0.0000 1.3448 0.0000
0.0000 1.3793 0.0000
0.0000 1.4138 0.0000
0.0000 1.4483 0.0000
0.0000 1.4828 0.0000
0.0000 1.5172 0.0000
0.0000 1.5517 0.0000
0.0000 1.5862 0.0000
0.0000 1.6207 0.0000
0.0000 1.6552 0.0000
0.0000 1.6897 0.0000
0.0000 1.7241 0.0000
0.0000 1.7586 0.0000
0.0000 1.7931 0.0000
0.0000 1.8276 0.0000
0.0000 1.8621 0.0000
0.0000 1.8966 0.0000
0.0000 1.9310 0.0000
0.0000 1.9655 0.0000
0.0000 2.0000 0.0000
0.0690 1.0000 0.0000
0.0690 1.0345 0.0000
0.0690 1.0690 0.0000
0.0690 1.1034 0.0000
0.0690 1.1379 0.0000
0.0690 1.1724 0.0000
0.0690 1.2069 0.0000
0.0690 1.2414 0.0000
0.0690 1.2759 0.0000
0.0690 1.3103 0.0000
0.0690 1.3448 0.0000
0.0690 1.3793 0.0000
0.0690 1.4138 0.0000
0.0690 1.4483 0.0000
0.0690 1.4828 0.0000
0.0690 1.5172 0.0000
0.0690 1.5517 0.0000
0.0690 1.5862 0.0000
0.0690 1.6207 0.0000
0.0690 1.6552 0.0000
0.0690 1.6897 0.0000
0.0690 1.7241 0.0000
0.0690 1.7586 0.0000
0.0690 1.7931 0.0000
0.0690 1.8276 0.0000
0.0690 1.8621 0.0000
0.0690 1.8966 0.0000
0.0690 1.9310 0.0000
0.0690 1.9655 0.0000
0.0690 2.0000 0.0000
0.1379 1.0000 0.0000
0.1379 1.0345 0.0000
0.1379 1.0690 0.0000
0.1379 1.1034 0.0000
0.1379 1.1379 0.0000
0.1379 1.1724 0.0000
0.1379 1.2069 0.0000
0.1379 1.2414 0.0000
0.1379 1.2759 0.0000
0.1379 1.3103 0.0000
0.1379 1.3448 0.0000
0.1379 1.3793 0.0000
0.1379 1.4138 0.0000
0.1379 1.4483 0.0000
0.1379 1.4828 0.0000
0.1379 1.5172 0.0000
0.1379 1.5517 0.0000
0.1379 1.5862 0.0000
0.1379 1.6207 0.0000
0.1379 1.6552 0.0000
0.1379 1.6897 0.0000
0.1379 1.7241 0.0000
0.1379 1.7586 0.0000
0.1379 1.7931 0.0000
0.1379 1.8276 0.0000
0.1379 1.8621 0.0000
0.1379 1.8966 0.0000
0.1379 1.9310 0.0000
0.1379 1.9655 0.0000
0.1379 2.0000 0.0000
0.2069 1.0000 0.0000
0.2069 1.0345 0.0000
0.2069 1.0690 0.0000
0.2069 1.1034 0.0000
0.2069 1.1379 0.0000
0.2069 1.1724 0.0000
0.2069 1.2069 0.0000
0.2069 1.2414 0.0000
0.2069 1.2759 0.0000
0.2069 1.3103 0.0000
0.2069 1.3448 0.0000
0.2069 1.3793 0.0000
0.2069 1.4138 0.0000
0.2069 1.4483 0.0000
0.2069 1.4828 0.0000
0.2069 1.5172 0.0000
0.2069 1.5517 0.0000
0.2069 1.5862 0.0000
0.2069 1.6207 0.0000
0.2069 1.6552 0.0000
0.2069 1.6897 0.0000
0.2069 1.7241 0.0000
0.2069 1.7586 0.0000
0.2069 1.7931 0.0000
0.2069 1.8276 0.0000
0.2069 1.8621 0.0000
0.2069 1.8966 0.0000
0.2069 1.9310 0.0000
0.2069 1.9655 0.0000
0.2069 2.0000 0.0000
0.2759 1.0000 0.0000
0.2759 1.0345 0.0000
0.2759 1.0690 0.0000
0.2759 1.1034 0.0000
0.2759 1.1379 0.0000
0.2759 1.1724 0.0000
0.2759 1.2069 0.0000
0.2759 1.2414 0.0000
0.2759 1.2759 0.0000
0.2759 1.3103 0.0000
0.2759 1.3448 0.0000
0.2759 1.3793 0.0000
0.2759 1.4138 0.0000
0.2759 1.4483 0.0000
0.2759 1.4828 0.0000
0.2759 1.5172 0.0000
0.2759 1.5517 0.0000
0.2759 1.5862 0.0000
0.2759 1.6207 0.0000
0.2759 1.6552 0.0000
0.2759 1.6897 0.0000
0.2759 1.7241 0.0000
0.2759 1.7586 0.0000
0.2759 1.7931 0.0000
0.2759 1.8276 0.0000
0.2759 1.8621 0.0000
0.2759 1.8966 0.0000
0.2759 1.9310 0.0000
0.2759 1.9655 0.0000
0.2759 2.0000 0.0000
0.3448 1.0000 0.0000
0.3448 1.0345 0.0000
0.3448 1.0690 0.0000
0.3448 1.1034 0.0000
0.3448 1.1379 0.0000
0.3448 1.1724 0.0000
0.3448 1.2069 0.0000
0.3448 1.2414 0.0000
0.3448 1.2759 0.0000
0.3448 1.3103 0.0000
0.3448 1.3448 0.0000
0.3448 1.3793 0.0000
0.3448 1.4138 0.0000
0.3448 1.4483 0.0000
0.3448 1.4828 0.0000
0.3448 1.5172 0.0000
0.3448 1.5517 0.0000
0.3448 1.5862 0.0000
0.3448 1.6207 0.0000
0.3448 1.6552 0.0000
0.3448 1.6897 0.0000
0.3448 1.7241 0.0000
0.3448 1.7586 0.0000
0.3448 1.7931 0.0000
0.3448 1.8276 0.0000
0.3448 1.8621 0.0000
0.3448 1.8966 0.0000
0.3448 1.9310 0.0000
0.3448 1.9655 0.0000
0.3448 2.0000 0.0000
0.4138 1.0000 0.0000
0.4138 1.0345 0.0000
0.4138 1.0690 0.0000
0.4138 1.1034 0.0000
0.4138 1.1379 0.0000
0.4138 1.1724 0.0000
0.4138 1.2069 0.0000
0.4138 1.2414 0.0000
0.4138 1.2759 0.0000
0.4138 1.3103 0.0000
0.4138 1.3448 0.0000
0.4138 1.3793 0.0000
0.4138 1.4138 0.0000
0.4138 1.4483 0.0000
0.4138 1.4828 0.0000
0.4138 1.5172 0.0000
0.4138 1.5517 0.0000
0.4138 1.5862 0.0000
0.4138 1.6207 0.0000
0.4138 1.6552 0.0000
0.4138 1.6897 0.0000
0.4138 1.7241 0.0000
0.4138 1.7586 0.0000
0.4138 1.7931 0.0000
0.4138 1.8276 0.0000
0.4138 1.8621 0.0000
0.4138 1.8966 0.0000
0.4138 1.9310 0.0000
0.4138 1.9655 0.0000
0.4138 2.0000 0.0000
0.4828 1.0000 0.0000
0.4828 1.0345 0.0000
0.4828 1.0690 0.0000
0.4828 1.1034 0.0000
0.4828 1.1379 0.0000
0.4828 1.1724 0.0000
0.4828 1.2069 0.0000
0.4828 1.2414 0.0000
0.4828 1.2759 0.0000
0.4828 1.3103 0.0000
0.4828 1.3448 0.0000
0.4828 1.3793 0.0000
0.4828 1.4138 0.0000
0.4828 1.4483 0.0000
0.4828 1.4828 0.0000
0.4828 1.5172 0.0000
0.4828 1.5517 0.0000
0.4828 1.5862 0.0000
0.4828 1.6207 0.0000
0.4828 1.6552 0.0000
0.4828 1.6897 0.0000
0.4828 1.7241 0.0000
0.4828 1.7586 0.0000
0.4828 1.7931 0.0000
0.4828 1.8276 0.0000
0.4828 1.8621 0.0000
0.4828 1.8966 0.0000
0.4828 1.9310 0.0000
0.4828 1.9655 0.0000
0.4828 2.0000 0.0000
0.5517 1.0000 0.0000
0.5517 1.0345 0.0000
0.5517 1.0690 0.0000
0.5517 1.1034 0.0000
0.5517 1.1379 0.0000
0.5517 1.1724 0.0000
0.5517 1.2069 0.0000
0.5517 1.2414 0.0000
0.5517 1.2759 0.0000
0.5517 1.3103 0.0000
0.5517 1.3448 0.0000
0.5517 1.3793 0.0000
0.5517 1.4138 0.0000
0.5517 1.4483 0.0000
0.5517 1.4828 0.0000
0.5517 1.5172 0.0000
0.5517 1.5517 0.0000
0.5517 1.5862 0.0000
0.5517 1.6207 0.0000
0.5517 1.6552 0.0000
0.5517 1.6897 0.0000
0.5517 1.7241 0.0000
0.5517 1.7586 0.0000
0.5517 1.7931 0.0000
0.5517 1.8276 0.0000
0.5517 1.8621 0.0000
0.5517 1.8966 0.0000
0.5517 1.9310 0.0000
0.5517 1.9655 0.0000
0.5517 2.0000 0.0000
0.6207 1.0000 0.0000
0.6207 1.0345 0.0000
0.6207 1.0690 0.0000
0.6207 1.1034 0.0000
0.6207 1.1379 0.0000
0.6207 1.1724 0.0000
0.6207 1.2069 0.0000
0.6207 1.2414 0.0000
0.6207 1.2759 0.0000
0.6207 1.3103 0.0000
0.6207 1.3448 0.0000
0.6207 1.3793 0.0000
0.6207 1.4138 0.0000
0.6207 1.4483 0.0000
0.6207 1.4828 0.0000
0.6207 1.5172 0.0000
0.6207 1.5517 0.0000
0.6207 1.5862 0.0000
0.6207 1.6207 0.0000
0.6207 1.6552 0.0000
0.6207 1.6897 0.0000
0.6207 1.7241 0.0000
0.6207 1.7586 0.0000
0.6207 1.7931 0.0000
0.6207 1.8276 0.0000
0.6207 1.8621 0.0000
0.6207 1.8966 0.0000
0.6207 1.9310 0.0000
0.6207 1.9655 0.0000
0.6207 2.0000 0.0000
0.6897 1.0000 0.0000
0.6897 1.0345 0.0000
0.6897 1.0690 0.0000
0.6897 1.1034 0.0000
0.6897 1.1379 0.0000
0.6897 1.1724 0.0000
0.6897 1.2069 0.0000
0.6897 1.2414 0.0000
0.6897 1.2759 0.0000
0.6897 1.3103 0.0000
0.6897 1.3448 0.0000
0.6897 1.3793 0.0000
0.6897 1.4138 0.0000
0.6897 1.4483 0.0000
0.6897 1.4828 0.0000
0.6897 1.5172 0.0000
0.6897 1.5517 0.0000
0.6897 1.5862 0.0000
0.6897 1.6207 0.0000
0.6897 1.6552 0.0000
0.6897 1.6897 0.0000
0.6897 1.7241 0.0000
0.6897 1.7586 0.0000
0.6897 1.7931 0.0000
0.6897 1.8276 0.0000
0.6897 1.8621 0.0000
0.6897 1.8966 0.0000
0.6897 1.9310 0.0000
0.6897 1.9655 0.0000
0.6897 2.0000 0.0000
0.7586 1.0000 0.0000
0.7586 1.0345 0.0000
0.7586 1.0690 0.0000
0.7586 1.1034 0.0000
0.7586 1.1379 0.0000
0.7586 1.1724 0.0000
0.7586 1.2069 0.0000
0.7586 1.2414 0.0000
0.7586 1.2759 0.0000
0.7586 1.3103 0.0000
0.7586 1.3448 0.0000
0.7586 1.3793 0.0000
0.7586 1.4138 0.0000
0.7586 1.4483 0.0000
0.7586 1.4828 0.0000
0.7586 1.5172 0.0000
0.7586 1.5517 0.0000
0.7586 1.5862 0.0000
0.7586 1.6207 0.0000
0.7586 1.6552 0.0000
0.7586 1.6897 0.0000
0.7586 1.7241 0.0000
0.7586 1.7586 0.0000
0.7586 1.7931 0.0000
0.7586 1.8276 0.0000
0.7586 1.8621 0.0000
0.7586 1.8966 0.0000
0.7586 1.9310 0.0000
0.7586 1.9655 0.0000
0.7586 2.0000 0.0000
0.8276 1.0000 0.0000
0.8276 1.0345 0.0000
0.8276 1.0690 0.0000
0.8276 1.1034 0.0000
0.8276 1.1379 0.0000
0.8276 1.1724 0.0000
0.8276 1.2069 0.0000
0.8276 1.2414 0.0000
0.8276 1.2759 0.0000
0.8276 1.3103 0.0000
0.8276 1.3448 0.0000
0.8276 1.3793 0.0000
0.8276 1.4138 0.0000
0.8276 1.4483 0.0000
0.8276 1.4828 0.0000
0.8276 1.5172 0.0000
0.8276 1.5517 0.0000
0.8276 1.5862 0.0000
0.8276 1.6207 0.0000
0.8276 1.6552 0.0000
0.8276 1.6897 0.0000
0.8276 1.7241 0.0000
0.8276 1.7586 0.0000
0.8276 1.7931 0.0000
0.8276 1.8276 0.0000
0.8276 1.8621 0.0000
0.8276 1.8966 0.0000
0.8276 1.9310 0.0000
0.8276 1.9655 0.0000
0.8276 2.0000 0.0000
0.8966 1.0000 0.0000
0.8966 1.0345 0.0000
0.8966 1.0690 0.0000
0.8966 1.1034 0.0000
0.8966 1.1379 0.0000
0.8966 1.1724 0.0000
0.8966 1.2069 0.0000
0.8966 1.2414 0.0000
0.8966 1.2759 0.0000
0.8966 1.3103 0.0000
0.8966 1.3448 0.0000
0.8966 1.3793 0.0000
0.8966 1.4138 0.0000
0.8966 1.4483 0.0000
0.8966 1.4828 0.0000
0.8966 1.5172 0.0000
0.8966 1.5517 0.0000
0.8966 1.5862 0.0000
0.8966 1.6207 0.0000
0.8966 1.6552 0.0000
0.8966 1.6897 0.0000
0.8966 1.7241 0.0000
0.8966 1.7586 0.0000
0.8966 1.7931 0.0000
0.8966 1.8276 0.0000
0.8966 1.8621 0.0000
0.8966 1.8966 0.0000
0.8966 1.9310 0.0000
0.8966 1.9655 0.0000
0.8966 2.0000 0.0000
0.9655 1.0000 0.0000
0.9655 1.0345 0.0000
0.9655 1.0690 0.0000
0.9655 1.1034 0.0000
0.9655 1.1379 0.0000
0.9655 1.1724 0.0000
0.9655 1.2069 0.0000
0.9655 1.2414 0.0000
0.9655 1.2759 0.0000
0.9655 1.3103 0.0000
0.9655 1.3448 0.0000
0.9655 1.3793 0.0000
0.9655 1.4138 0.0000
0.9655 1.4483 0.0000
0.9655 1.4828 0.0000
0.9655 1.5172 0.0000
0.9655 1.5517 0.0000
0.9655 1.5862 0.0000
0.9655 1.6207 0.0000
0.9655 1.6552 0.0000
0.9655 1.6897 0.0000
0.9655 1.7241 0.0000
0.9655 1.7586 0.0000
0.9655 1.7931 0.0000
0.9655 1.8276 0.0000
0.9655 1.8621 0.0000
0.9655 1.8966 0.0000
0.9655 1.9310 0.0000
0.9655 1.9655 0.0000
0.9655 2.0000 0.0000
1.0345 1.0000 0.0000
1.0345 1.0345 0.0000
1.0345 1.0690 0.0000
1.0345 1.1034 0.0000
1.0345 1.1379 0.0000
1.0345 1.1724 0.0000
1.0345 1.2069 0.0000
1.0345 1.2414 0.0000
1.0345 1.2759 0.0000
1.0345 1.3103 0.0000
1.0345 1.3448 0.0000
[...]
         <PointData>
            <DataArray Name="fValues" NumberOfComponents="3" format="ascii" type="Float64">
 9.99503e-18  2.56296e-18        00000 
-1.47185e-18  5.15147e-18        00000 
       00000  2.72902e-19        00000 
-1.04007e-18 -2.61732e-18        00000 
-3.04740e-18  4.73030e-18        00000 
-1.29007e-18 -1.43709e-18        00000 
 4.54836e-19 -9.09672e-19        00000 
 2.00014e-20  5.60039e-19        00000 
-1.13709e-20 -7.84592e-19        00000 
-1.65899e-20 -3.63723e-20        00000 
       00000 -4.54836e-20        00000 
-2.06711e-20 -1.89634e-20        00000 
 1.77670e-20 -1.38583e-20        00000 
-3.58105e-21 -1.32682e-20        00000 
 2.84273e-21  1.90107e-20        00000 
 1.83048e-21 -7.85769e-21        00000 
-4.44176e-22  3.19807e-21        00000 
 6.69965e-22 -2.92515e-21        00000 
 4.44176e-22  4.61943e-21        00000 
 3.34845e-23 -5.00035e-21        00000 
 2.88714e-22  8.88352e-23        00000 
-5.85220e-23  1.60986e-21        00000 
-7.77308e-23        00000        00000 
 5.44123e-23  8.53854e-22        00000 
-3.19251e-23  1.77670e-22        00000 
 4.97231e-23 -4.90955e-23        00000 
-1.38805e-23 -2.22088e-23        00000 
 5.06698e-24  9.78452e-24        00000 
-6.56229e-25  3.34239e-23        00000 
 5.67271e-24  2.10235e-23        00000 
 3.86442e-02  4.42075e-02        00000 
 5.78132e-02  3.60140e-02        00000 
 5.20646e-02 -2.30934e-03        00000 
 4.35225e-02 -1.01753e-02        00000 
 2.64840e-02 -3.12696e-02        00000 
-3.62150e-03 -1.28518e-02        00000 
 1.25709e-05 -7.67317e-03        00000 
 4.87791e-04 -4.41949e-03        00000 
 4.33999e-04 -2.47097e-03        00000 
 2.67079e-04 -1.28524e-03        00000 
 1.64447e-04 -6.10377e-04        00000 
 1.06252e-04 -2.49599e-04        00000 
 7.03733e-05 -6.95412e-05        00000 
 4.66418e-05  1.19259e-05        00000 
 3.06713e-05  4.23067e-05        00000 
 1.99776e-05  4.80051e-05        00000 
 1.28877e-05  4.31204e-05        00000 
 8.23449e-06  3.47908e-05        00000 
 5.21106e-06  2.63430e-05        00000 
 3.26606e-06  1.91050e-05        00000 
 2.02716e-06  1.34195e-05        00000 
 1.24575e-06  9.19073e-06        00000 
 7.57700e-07  6.16443e-06        00000 
 4.55839e-07  4.06258e-06        00000 
 2.70880e-07  2.63979e-06        00000 
 1.58504e-07  1.70105e-06        00000 
 9.12323e-08  1.10190e-06        00000 
 5.40177e-08  7.41061e-07        00000 
 4.80227e-08  5.50899e-07        00000 
 6.02173e-08  4.75340e-07        00000 
 2.07889e-02  6.80976e-03        00000 
 5.83107e-02  2.22364e-02        00000 
 2.59793e-01  4.93877e-02        00000 
 1.34091e-01 -1.11345e-01        00000 
-7.18586e-02  1.87987e-03        00000 
-1.43889e-03  2.28177e-03        00000 
 7.14735e-04  4.92674e-03        00000 
 2.03431e-03  5.04763e-03        00000 
 1.67056e-03  4.16766e-03        00000 
 1.24626e-03  3.02967e-03        00000 
 8.83350e-04  2.06993e-03        00000 
 6.07458e-04  1.36830e-03        00000 
 4.07857e-04  8.85305e-04        00000 
 2.68686e-04  5.62904e-04        00000 
 1.74184e-04  3.52246e-04        00000 
 1.11305e-04  2.17042e-04        00000 
 7.01674e-05  1.31667e-04        00000 
 4.36527e-05  7.85831e-05        00000 
 2.67995e-05  4.60787e-05        00000 
 1.62301e-05  2.64856e-05        00000 
 9.68907e-06  1.48705e-05        00000 
 5.69540e-06  8.10963e-06        00000 
 3.29134e-06  4.25470e-06        00000 
 1.86614e-06  2.10874e-06        00000 
 1.03550e-06  9.47536e-07        00000 
 5.60344e-07  3.40140e-07        00000 
 2.92639e-07  3.55144e-08        00000 
 1.41256e-07 -1.04749e-07        00000 
 3.90477e-08 -1.38731e-07        00000 
 5.22255e-08 -7.32114e-08        00000 
-1.90028e-02  1.83922e-02        00000 
-4.05644e-02  1.55171e-02        00000 
 5.80043e-02 -4.27633e-02        00000 
 1.50990e-02  3.84460e-02        00000 
-7.65286e-02 -5.41287e-02        00000 
-1.47701e-03 -1.26511e-02        00000 
-1.54545e-03 -9.86735e-04        00000 
 1.18201e-03  1.15999e-03        00000 
 1.20374e-03  1.05566e-03        00000 
 9.03382e-04  6.84670e-04        00000 
 6.09160e-04  4.26743e-04        00000 
 3.98034e-04  2.69462e-04        00000 
 2.54937e-04  1.71409e-04        00000 
 1.60448e-04  1.08632e-04        00000 
 9.92573e-05  6.82830e-05        00000 
 6.03588e-05  4.25340e-05        00000 
 3.60603e-05  2.62570e-05        00000 
 2.11365e-05  1.60622e-05        00000 
 1.21258e-05  9.73408e-06        00000 
 6.78269e-06  5.84144e-06        00000 
 3.67676e-06  3.46910e-06        00000 
 1.91234e-06  2.03721e-06        00000 
 9.37753e-07  1.18170e-06        00000 
 4.18919e-07  6.76140e-07        00000 
 1.57099e-07  3.81130e-07        00000 
 3.62676e-08  2.11990e-07        00000 
-1.05181e-08  1.18062e-07        00000 
-2.14843e-08  6.93085e-08        00000 
-6.16032e-08  5.61043e-08        00000 
-1.26667e-07  3.07240e-09        00000 
-7.19167e-02  6.48064e-02        00000 
-7.61734e-02  6.26804e-02        00000 
-5.30447e-02  1.31236e-02        00000 
-5.23193e-02 -7.15430e-02        00000 
-4.63879e-02 -4.28887e-02        00000 
 4.21791e-03  9.20630e-04        00000 
 2.32725e-04  4.54550e-04        00000 
 1.18738e-04 -1.00537e-03        00000 
-3.07123e-04 -1.22637e-03        00000 
-2.99695e-04 -9.31459e-04        00000 
-2.18986e-04 -6.20997e-04        00000 
-1.44162e-04 -4.00119e-04        00000 
-9.19390e-05 -2.55765e-04        00000 
-5.76916e-05 -1.62569e-04        00000 
-3.56985e-05 -1.02515e-04        00000 
-2.17587e-05 -6.40379e-05        00000 
-1.30473e-05 -3.96030e-05        00000 
-7.68542e-06 -2.42399e-05        00000 
-4.43751e-06 -1.46785e-05        00000 
-2.50330e-06 -8.78893e-06        00000 
-1.37274e-06 -5.19929e-06        00000 
-7.25863e-07 -3.03535e-06        00000 
-3.65117e-07 -1.74591e-06        00000 
-1.70455e-07 -9.87095e-07        00000 
-7.01872e-08 -5.46710e-07        00000 
-2.23225e-08 -2.95348e-07        00000 
-2.97217e-09 -1.55257e-07        00000 
 4.24029e-09 -8.22118e-08        00000 
 1.76278e-08 -5.02714e-08        00000 
 6.04142e-08 -2.10585e-08        00000 
 3.76566e-02 -4.21362e-02        00000 
 7.65232e-03 -3.25176e-02        00000 
-6.45921e-03 -4.46640e-03        00000 
 2.01116e-03  2.66990e-02        00000 
 1.34041e-02  2.72926e-02        00000 
 7.14676e-03  9.62043e-03        00000 
 4.44764e-04  1.55788e-03        00000 
 7.70849e-05  9.03578e-04        00000 
 6.98762e-05  9.28739e-04        00000 
 1.28887e-04  7.79164e-04        00000 
 1.13265e-04  5.55828e-04        00000 
 8.08676e-05  3.69153e-04        00000 
 5.29345e-05  2.38646e-04        00000 
 3.35179e-05  1.52574e-04        00000 
 2.08661e-05  9.67670e-05        00000 
 1.28139e-05  6.08543e-05        00000 
 7.75718e-06  3.79180e-05        00000 
 4.62261e-06  2.33985e-05        00000 
 2.70674e-06  1.42943e-05        00000 
 1.55353e-06  8.64149e-06        00000 
 8.70886e-07  5.16671e-06        00000 
 4.74286e-07  3.05270e-06        00000 
 2.48842e-07  1.78033e-06        00000 
 1.24091e-07  1.02324e-06        00000 
 5.75013e-08  5.78371e-07        00000 
 2.38904e-08  3.20809e-07        00000 
 8.44774e-09  1.74968e-07        00000 
 2.01949e-09  9.64079e-08        00000 
-6.44847e-09  5.92709e-08        00000 
-3.60077e-08  3.77371e-08        00000 
-1.98606e-02  2.41198e-02        00000 
 2.66871e-03  1.81913e-02        00000 
 9.96522e-03  4.19599e-03        00000 
 4.64050e-03 -1.04000e-02        00000 
-3.47822e-03 -1.44096e-02        00000 
-4.41663e-03 -8.82465e-03        00000 
-1.87686e-03 -3.37674e-03        00000 
-4.04563e-04 -1.27930e-03        00000 
-1.23667e-04 -8.16213e-04        00000 
-8.42680e-05 -6.33768e-04        00000 
-7.62763e-05 -4.68315e-04        00000 
-5.88510e-05 -3.22353e-04        00000 
-4.06307e-05 -2.12802e-04        00000 
-2.64418e-05 -1.37600e-04        00000 
-1.67181e-05 -8.79598e-05        00000 
-1.03910e-05 -5.57289e-05        00000 
-6.36896e-06 -3.50010e-05        00000 
-3.84905e-06 -2.17840e-05        00000 
-2.29081e-06 -1.34310e-05        00000 
-1.34036e-06 -8.20069e-06        00000 
-7.69166e-07 -4.95665e-06        00000 
-4.31436e-07 -2.96403e-06        00000 
-2.35390e-07 -1.75229e-06        00000 
-1.24036e-07 -1.02315e-06        00000 
-6.24998e-08 -5.89418e-07        00000 
-2.97613e-08 -3.34963e-07        00000 
-1.33111e-08 -1.88780e-07        00000 
-5.45007e-09 -1.08514e-07        00000 
 1.98959e-09 -6.94455e-08        00000 
 2.32492e-08 -4.92084e-08        00000 
 1.13077e-02 -1.42822e-02        00000 
-2.85732e-03 -1.12626e-02        00000 
-6.78789e-03 -3.94203e-03        00000 
-4.09171e-03  4.12194e-03        00000 
 3.46607e-04  7.73265e-03        00000 
 2.17750e-03  6.35715e-03        00000 
 1.58756e-03  3.48707e-03        00000 
 6.63065e-04  1.60985e-03        00000 
 2.21189e-04  8.42485e-04        00000 
 9.71047e-05  5.55959e-04        00000 
 6.39023e-05  3.97035e-04        00000 
 4.77213e-05  2.77683e-04        00000 
 3.39380e-05  1.87166e-04        00000 
 2.27710e-05  1.22859e-04        00000 
 1.46998e-05  7.93485e-05        00000 
 9.27095e-06  5.06897e-05        00000 
 5.75368e-06  3.20882e-05        00000 
 3.52157e-06  2.01352e-05        00000 
 2.12550e-06  1.25226e-05        00000 
 1.26374e-06  7.71719e-06        00000 
 7.38965e-07  4.71117e-06        00000 
 4.24011e-07  2.84803e-06        00000 
 2.37998e-07  1.70412e-06        00000 
 1.30133e-07  1.00870e-06        00000 
 6.89421e-08  5.90485e-07        00000 
 3.51810e-08  3.42277e-07        00000 
 1.72250e-08  1.97959e-07        00000 
 7.91514e-09  1.17662e-07        00000 
 7.39795e-10  7.77840e-08        00000 
-1.42649e-08  5.73058e-08        00000 
-6.82529e-03  8.80394e-03        00000 
 1.79432e-03  7.32167e-03        00000 
 4.11779e-03  3.31844e-03        00000 
 2.85775e-03 -1.48618e-03        00000 
 5.15545e-04 -4.23032e-03        00000 
-9.14263e-04 -4.26628e-03        00000 
-1.03939e-03 -2.91525e-03        00000 
-6.23729e-04 -1.61882e-03        00000 
-2.79599e-04 -8.70003e-04        00000 
-1.20970e-04 -5.21226e-04        00000 
-6.44155e-05 -3.48182e-04        00000 
-4.21275e-05 -2.40191e-04        00000 
-2.92640e-05 -1.63501e-04        00000 
-1.99074e-05 -1.08811e-04        00000 
-1.30960e-05 -7.10914e-05        00000 
-8.38997e-06 -4.58360e-05        00000 
-5.27426e-06 -2.92524e-05        00000 
-3.26664e-06 -1.85018e-05        00000 
-1.99593e-06 -1.16011e-05        00000 
-1.20283e-06 -7.21108e-06        00000 
-7.14240e-07 -4.44269e-06        00000 
-4.17248e-07 -2.71230e-06        00000 
-2.39302e-07 -1.64043e-06        00000 
-1.34373e-07 -9.82691e-07        00000 
-7.36181e-08 -5.83217e-07        00000 
-3.91869e-08 -3.43697e-07        00000 
-2.01506e-08 -2.02982e-07        00000 
-9.77340e-09 -1.23834e-07        00000 
-2.82562e-09 -8.38223e-08        00000 
 7.14498e-09 -6.29868e-08        00000 
 4.29696e-03 -5.60951e-03        00000 
-9.98252e-04 -4.87664e-03        00000 
-2.45401e-03 -2.61172e-03        00000 
-1.89659e-03  3.44233e-04        00000 
-6.55396e-04  2.32220e-03        00000 
 2.98771e-04  2.78033e-03        00000 
 5.98556e-04  2.22216e-03        00000 
 4.76069e-04  1.42672e-03        00000 
 2.70059e-04  8.32660e-04        00000 
 1.33151e-04  4.93829e-04        00000 
 6.80411e-05  3.14376e-04        00000 
 3.99737e-05  2.10732e-04        00000 
 2.61091e-05  1.42882e-04        00000 
 1.75499e-05  9.58370e-05        00000 
 1.16475e-05  6.32674e-05        00000 
 7.56249e-06  4.11833e-05        00000 
 4.81481e-06  2.65063e-05        00000 
 3.01690e-06  1.68980e-05        00000 
 1.86442e-06  1.06791e-05        00000 
 1.13710e-06  6.69193e-06        00000 
 6.84179e-07  4.15807e-06        00000 
 4.05723e-07  2.56161e-06        00000 
 2.36783e-07  1.56447e-06        00000 
 1.35737e-07  9.47266e-07        00000 
 7.62359e-08  5.69021e-07        00000 
 4.17918e-08  3.40130e-07        00000 
 2.21918e-08  2.04415e-07        00000 
 1.11411e-08  1.27333e-07        00000 
 4.48335e-09  8.77300e-08        00000 
-1.34196e-09  6.67647e-08        00000 
-2.78753e-03  3.66744e-03        00000 
 5.35026e-04  3.30008e-03        00000 
 1.47566e-03  1.98376e-03        00000 
 1.24524e-03  1.31652e-04        00000 
 5.79350e-04 -1.26022e-03        00000 
-2.58987e-05 -1.78399e-03        00000 
-3.13341e-04 -1.61486e-03        00000 
-3.24597e-04 -1.16385e-03        00000 
-2.23953e-04 -7.41388e-04        00000 
-1.27537e-04 -4.54884e-04        00000 
-6.86804e-05 -2.85929e-04        00000 
-3.89077e-05 -1.87222e-04        00000 
-2.40400e-05 -1.25486e-04        00000 
-1.56910e-05 -8.42491e-05        00000 
-1.03685e-05 -5.60152e-05        00000 
-6.78210e-06 -3.67808e-05        00000 
-4.36474e-06 -2.38733e-05        00000 
-2.76519e-06 -1.53408e-05        00000 
-1.72743e-06 -9.76994e-06        00000 
-1.06522e-06 -6.16997e-06        00000 
-6.48507e-07 -3.86464e-06        00000 
-3.89594e-07 -2.40100e-06        00000 
-2.30734e-07 -1.47962e-06        00000 
-1.34522e-07 -9.04656e-07        00000 
-7.70450e-08 -5.49346e-07        00000 
-4.31831e-08 -3.32506e-07        00000 
-2.34729e-08 -2.02849e-07        00000 
-1.20816e-08 -1.28549e-07        00000 
-5.77192e-09 -8.98068e-08        00000 
-3.36538e-09 -6.89840e-08        00000 
 1.84892e-03 -2.44712e-03        00000 
-2.83435e-04 -2.26197e-03        00000 
-9.02150e-04 -1.47963e-03        00000 
-8.18484e-04 -3.02463e-04        00000 
-4.56967e-04  6.65542e-04        00000 
-8.00797e-05  1.13293e-03        00000 
 1.46617e-04  1.14177e-03        00000 
 2.05619e-04  9.05306e-04        00000 
 1.68977e-04  6.24951e-04        00000 
 1.10106e-04  4.03152e-04        00000 
 6.44646e-05  2.56962e-04        00000 
 3.72042e-05  1.66886e-04        00000 
 2.24236e-05  1.10710e-04        00000 
 1.42249e-05  7.40966e-05        00000 
 9.27588e-06  4.94381e-05        00000 
 6.06904e-06  3.26856e-05        00000 
 3.93373e-06  2.13819e-05        00000 
 2.51591e-06  1.38473e-05        00000 
 1.58758e-06  8.88611e-06        00000 
 9.89080e-07  5.65434e-06        00000 
 6.08639e-07  3.56900e-06        00000 
 3.69884e-07  2.23507e-06        00000 
 2.21864e-07  1.38898e-06        00000 
 1.31207e-07  8.56921e-07        00000 
 7.63593e-08  5.25535e-07        00000 
 4.35596e-08  3.21693e-07        00000 
 2.41100e-08  1.98853e-07        00000 
 1.26488e-08  1.27871e-07        00000 
 6.72915e-09  9.03569e-08        00000 
 7.11537e-09  6.99193e-08        00000 
-1.24779e-03  1.66016e-03        00000 
 1.49223e-04  1.56777e-03        00000 
 5.61422e-04  1.09379e-03        00000 
 5.40795e-04  3.35927e-04        00000 
 3.42642e-04 -3.33932e-04        00000 
 1.09437e-04 -7.13350e-04        00000 
-5.56356e-05 -7.93630e-04        00000 
-1.22789e-04 -6.82906e-04        00000 
-1.19637e-04 -5.06341e-04        00000 
-8.82542e-05 -3.44615e-04        00000 
-5.65466e-05 -2.26044e-04        00000 
-3.42112e-05 -1.47801e-04        00000 
-2.07430e-05 -9.77143e-05        00000 
-1.29682e-05 -6.51982e-05        00000 
-8.34145e-06 -4.35542e-05        00000 
-5.43244e-06 -2.89363e-05        00000 
-3.53179e-06 -1.90576e-05        00000 
-2.27504e-06 -1.24333e-05        00000 
-1.44831e-06 -8.03812e-06        00000 
-9.10875e-07 -5.15269e-06        00000 
-5.66066e-07 -3.27666e-06        00000 
-3.47615e-07 -2.06772e-06        00000 
-2.10865e-07 -1.29524e-06        00000 
-1.26247e-07 -8.05866e-07        00000 
-7.44712e-08 -4.98779e-07        00000 
-4.31028e-08 -3.08472e-07        00000 
-2.42079e-08 -1.92943e-07        00000 
-1.28945e-08 -1.25664e-07        00000 
-7.39244e-09 -8.96612e-08        00000 
-1.00207e-08 -6.98059e-08        00000 
 8.54108e-04 -1.14193e-03        00000 
-7.77147e-05 -1.09736e-03        00000 
-3.55330e-04 -8.05386e-04        00000 
-3.59753e-04 -3.11639e-04        00000 
-2.50409e-04  1.51432e-04        00000 
-1.06262e-04  4.45308e-04        00000 
 9.26413e-06  5.45415e-04        00000 
 6.90554e-05  5.04620e-04        00000 
 8.08170e-05  3.98670e-04        00000 
 6.70282e-05  2.85818e-04        00000 
 4.69265e-05  1.94216e-04        00000 
 3.01217e-05  1.29222e-04        00000 
 1.87634e-05  8.58426e-05        00000 
 1.17592e-05  5.72857e-05        00000 
 7.50997e-06  3.83070e-05        00000 
 4.86502e-06  2.55413e-05        00000 
 3.16341e-06  1.69168e-05        00000 
 2.04727e-06  1.11111e-05        00000 
 1.31275e-06  7.23462e-06        00000 
 8.32596e-07  4.67118e-06        00000 
 5.22103e-07  2.99212e-06        00000 
 3.23678e-07  1.90216e-06        00000 
 1.98335e-07  1.20066e-06        00000 
 1.20038e-07  7.53032e-07        00000 
 7.16379e-08  4.70115e-07        00000 
 4.19737e-08  2.93534e-07        00000 
 2.38612e-08  1.85587e-07        00000 
 1.28687e-08  1.22259e-07        00000 
 7.79933e-09  8.79728e-08        00000 
 1.21822e-08  6.88516e-08        00000 
-5.91621e-04  7.94703e-04        00000 
 3.95341e-05  7.74842e-04        00000 
 2.28374e-04  5.92356e-04        00000 
 2.41085e-04  2.67122e-04        00000 
 1.80530e-04 -5.34344e-05        00000 
 9.13010e-05 -2.75181e-04        00000 
 1.21723e-05 -3.71808e-04        00000 
-3.59062e-05 -3.67567e-04        00000 
-5.25222e-05 -3.07403e-04        00000 
-4.88861e-05 -2.31390e-04        00000 
-3.72729e-05 -1.63217e-04        00000 
-2.54784e-05 -1.11214e-04        00000 
-1.64997e-05 -7.47609e-05        00000 
-1.05129e-05 -5.01270e-05        00000 
-6.72955e-06 -3.36070e-05        00000 
-4.35012e-06 -2.24830e-05        00000 
-2.82725e-06 -1.49643e-05        00000 
-1.83499e-06 -9.88868e-06        00000 
-1.18323e-06 -6.48217e-06        00000 
-7.55894e-07 -4.21472e-06        00000 
-4.77860e-07 -2.71897e-06        00000 
-2.98821e-07 -1.74102e-06        00000 
-1.84782e-07 -1.10710e-06        00000 
-1.12921e-07 -6.99720e-07        00000 
-6.80813e-08 -4.40431e-07        00000 
-4.03129e-08 -2.77481e-07        00000 
-2.31539e-08 -1.77199e-07        00000 
-1.26178e-08 -1.17950e-07        00000 
-7.98594e-09 -8.55175e-08        00000 
-1.36925e-08 -6.72405e-08        00000 
 4.13985e-04 -5.58648e-04        00000 
-1.91693e-05 -5.51378e-04        00000 
-1.48813e-04 -4.35878e-04        00000 
-1.62764e-04 -2.19464e-04        00000 
-1.29233e-04  3.04845e-06        00000 
-7.38536e-05  1.67823e-04        00000 
-2.03055e-05  2.51878e-04        00000 
 1.63369e-05  2.65003e-04        00000 
 3.29193e-05  2.33391e-04        00000 
 3.45338e-05  1.83787e-04        00000 
 2.85975e-05  1.34536e-04        00000 
 2.08196e-05  9.41847e-05        00000 
 1.40972e-05  6.43951e-05        00000 
 9.22016e-06  4.35778e-05        00000 
 5.96939e-06  2.93687e-05        00000 
 3.87091e-06  1.97304e-05        00000 
 2.51847e-06  1.31949e-05        00000 
 1.63835e-06  8.76908e-06        00000 
 1.06108e-06  5.78500e-06        00000 
 6.81984e-07  3.78693e-06        00000 
 4.34226e-07  2.46004e-06        00000 
 2.73660e-07  1.58640e-06        00000 
 1.70628e-07  1.01609e-06        00000 
 1.05180e-07  6.47013e-07        00000 
 6.39907e-08  4.10482e-07        00000 
 3.82420e-08  2.60834e-07        00000 
 2.21603e-08  1.68138e-07        00000 
 1.21838e-08  1.12999e-07        00000 
 7.98586e-09  8.24957e-08        00000 
 1.46366e-08  6.51355e-08        00000 
-2.92228e-04  3.96165e-04        00000 
 8.40099e-06  3.95101e-04        00000 
 9.81669e-05  3.21191e-04        00000 
 1.10681e-04  1.75844e-04        00000 
 9.22060e-05  2.08373e-05        00000 
 5.77285e-05 -1.00492e-04        00000 
 2.17338e-05 -1.69725e-04        00000 
-5.32580e-06 -1.89620e-04        00000 
-1.98409e-05 -1.75154e-04        00000 
-2.37528e-05 -1.43803e-04        00000 
-2.13404e-05 -1.09094e-04        00000 
-1.65277e-05 -7.85660e-05        00000 
-1.17268e-05 -5.48110e-05        00000 
-7.91841e-06 -3.75767e-05        00000 
-5.22201e-06 -2.55304e-05        00000 
-3.41626e-06 -1.72510e-05        00000 
-2.23164e-06 -1.15978e-05        00000 