<?xml version="1.0" encoding="utf-8"?>
<VTKFile byte_order="LittleEndian" type="UnstructuredGrid" version="0.1">
   <UnstructuredGrid>
      <Piece NumberOfCells="3364" NumberOfPoints="1741">
         <Points>
            <DataArray Name="Points" NumberOfComponents="3" format="ascii" type="Float32">
0.0000 1.0000 0.0000
0.0000 1.0345 0.0000
0.0000 1.0690 0.0000
0.0000 1.1034 0.0000
0.0000 1.1379 0.0000
0.0000 1.1724 0.0000
0.0000 1.2069 0.0000
0.0000 1.2414 0.0000
0.0000 1.2759 0.0000
0.0000 1.3103 0.0000
0.0000 1.3448 0.0000
0.0000 1.3793 0.0000
0.0000 1.4138 0.0000
0.0000 1.4483 0.0000
0.0000 1.4828 0.0000
0.0000 1.5172 0.0000
0.0000 1.5517 0.0000
0.0000 1.5862 0.0000
0.0000 1.6207 0.0000
0.0000 1.6552 0.0000
0.0000 1.6897 0.0000
0.0000 1.7241 0.0000
0.0000 1.7586 0.0000
0.0000 1.7931 0.0000
0.0000 1.8276 0.0000
0.0000 1.8621 0.0000
0.0000 1.8966 0.0000
0.0000 1.9310 0.0000
0.0000 1.9655 0.0000
0.0000 2.0000 0.0000
0.0690 1.0000 0.0000
0.0690 1.0345 0.0000
0.0690 1.0690 0.0000
0.0690 1.1034 0.0000
0.0690 1.1379 0.0000
0.0690 1.1724 0.0000
0.0690 1.2069 0.0000
0.0690 1.2414 0.0000
0.0690 1.2759 0.0000
0.0690 1.3103 0.0000
0.0690 1.3448 0.0000
0.0690 1.3793 0.0000
0.0690 1.4138 0.0000
0.0690 1.4483 0.0000
0.0690 1.4828 0.0000
0.0690 1.5172 0.0000
0.0690 1.5517 0.0000
0.0690 1.5862 0.0000
0.0690 1.6207 0.0000
0.0690 1.6552 0.0000
0.0690 1.6897 0.0000
0.0690 1.7241 0.0000
0.0690 1.7586 0.0000
0.0690 1.7931 0.0000
0.0690 1.8276 0.0000
0.0690 1.8621 0.0000
0.0690 1.8966 0.0000
0.0690 1.9310 0.0000
0.0690 1.9655 0.0000
0.0690 2.0000 0.0000
0.1379 1.0000 0.0000
0.1379 1.0345 0.0000
0.1379 1.0690 0.0000
0.1379 1.1034 0.0000
0.1379 1.1379 0.0000
0.1379 1.1724 0.0000
0.1379 1.2069 0.0000
0.1379 1.2414 0.0000
0.1379 1.2759 0.0000
0.1379 1.3103 0.0000
0.1379 1.3448 0.0000
0.1379 1.3793 0.0000
0.1379 1.4138 0.0000
0.1379 1.4483 0.0000
0.1379 1.4828 0.0000
0.1379 1.5172 0.0000
0.1379 1.5517 0.0000
0.1379 1.5862 0.0000
0.1379 1.6207 0.0000
0.1379 1.6552 0.0000
0.1379 1.6897 0.0000
0.1379 1.7241 0.0000
0.1379 1.7586 0.0000
0.1379 1.7931 0.0000
0.1379 1.8276 0.0000
0.1379 1.8621 0.0000
0.1379 1.8966 0.0000
0.1379 1.9310 0.0000
0.1379 1.9655 0.0000
0.1379 2.0000 0.0000
0.2069 1.0000 0.0000
0.2069 1.0345 0.0000
0.2069 1.0690 0.0000
0.2069 1.1034 0.0000
0.2069 1.1379 0.0000
0.2069 1.1724 0.0000
0.2069 1.2069 0.0000
0.2069 1.2414 0.0000
0.2069 1.2759 0.0000
0.2069 1.3103 0.0000
0.2069 1.3448 0.0000
0.2069 1.3793 0.0000
0.2069 1.4138 0.0000
0.2069 1.4483 0.0000
0.2069 1.4828 0.0000
0.2069 1.5172 0.0000
0.2069 1.5517 0.0000
0.2069 1.5862 0.0000
0.2069 1.6207 0.0000
0.2069 1.6552 0.0000
0.2069 1.6897 0.0000
0.2069 1.7241 0.0000
0.2069 1.7586 0.0000
0.2069 1.7931 0.0000
0.2069 1.8276 0.0000
0.2069 1.8621 0.0000
0.2069 1.8966 0.0000
0.2069 1.9310 0.0000
0.2069 1.9655 0.0000
0.2069 2.0000 0.0000
0.2759 1.0000 0.0000
0.2759 1.0345 0.0000
0.2759 1.0690 0.0000
0.2759 1.1034 0.0000
0.2759 1.1379 0.0000
0.2759 1.1724 0.0000
0.2759 1.2069 0.0000
0.2759 1.2414 0.0000
0.2759 1.2759 0.0000
0.2759 1.3103 0.0000
0.2759 1.3448 0.0000
0.2759 1.3793 0.0000
0.2759 1.4138 0.0000
0.2759 1.4483 0.0000
0.2759 1.4828 0.0000
0.2759 1.5172 0.0000
0.2759 1.5517 0.0000
0.2759 1.5862 0.0000
0.2759 1.6207 0.0000
0.2759 1.6552 0.0000
0.2759 1.6897 0.0000
0.2759 1.7241 0.0000
0.2759 1.7586 0.0000
0.2759 1.7931 0.0000
0.2759 1.8276 0.0000
0.2759 1.8621 0.0000
0.2759 1.8966 0.0000
0.2759 1.9310 0.0000
0.2759 1.9655 0.0000
0.2759 2.0000 0.0000
0.3448 1.0000 0.0000
0.3448 1.0345 0.0000
0.3448 1.0690 0.0000
0.3448 1.1034 0.0000
0.3448 1.1379 0.0000
0.3448 1.1724 0.0000
0.3448 1.2069 0.0000
0.3448 1.2414 0.0000
0.3448 1.2759 0.0000
0.3448 1.3103 0.0000
0.3448 1.3448 0.0000
0.3448 1.3793 0.0000
0.3448 1.4138 0.0000
0.3448 1.4483 0.0000
0.3448 1.4828 0.0000
0.3448 1.5172 0.0000
0.3448 1.5517 0.0000
0.3448 1.5862 0.0000
0.3448 1.6207 0.0000
0.3448 1.6552 0.0000
0.3448 1.6897 0.0000
0.3448 1.7241 0.0000
0.3448 1.7586 0.0000
0.3448 1.7931 0.0000
0.3448 1.8276 0.0000
0.3448 1.8621 0.0000
0.3448 1.8966 0.0000
0.3448 1.9310 0.0000
0.3448 1.9655 0.0000
0.3448 2.0000 0.0000
0.4138 1.0000 0.0000
0.4138 1.0345 0.0000
0.4138 1.0690 0.0000
0.4138 1.1034 0.0000
0.4138 1.1379 0.0000
0.4138 1.1724 0.0000
0.4138 1.2069 0.0000
0.4138 1.2414 0.0000
0.4138 1.2759 0.0000
0.4138 1.3103 0.0000
0.4138 1.3448 0.0000
0.4138 1.3793 0.0000
0.4138 1.4138 0.0000
0.4138 1.4483 0.0000
0.4138 1.4828 0.0000
0.4138 1.5172 0.0000
0.4138 1.5517 0.0000
0.4138 1.5862 0.0000
0.4138 1.6207 0.0000
0.4138 1.6552 0.0000
0.4138 1.6897 0.0000
0.4138 1.7241 0.0000
0.4138 1.7586 0.0000
0.4138 1.7931 0.0000
0.4138 1.8276 0.0000
0.4138 1.8621 0.0000
0.4138 1.8966 0.0000
0.4138 1.9310 0.0000
0.4138 1.9655 0.0000
0.4138 2.0000 0.0000
0.4828 1.0000 0.0000
0.4828 1.0345 0.0000
0.4828 1.0690 0.0000
0.4828 1.1034 0.0000
0.4828 1.1379 0.0000
0.4828 1.1724 0.0000
0.4828 1.2069 0.0000
0.4828 1.2414 0.0000
0.4828 1.2759 0.0000
0.4828 1.3103 0.0000
0.4828 1.3448 0.0000
0.4828 1.3793 0.0000
0.4828 1.4138 0.0000
0.4828 1.4483 0.0000
0.4828 1.4828 0.0000
0.4828 1.5172 0.0000
0.4828 1.5517 0.0000
0.4828 1.5862 0.0000
0.4828 1.6207 0.0000
0.4828 1.6552 0.0000
0.4828 1.6897 0.0000
0.4828 1.7241 0.0000
0.4828 1.7586 0.0000
0.4828 1.7931 0.0000
0.4828 1.8276 0.0000
0.4828 1.8621 0.0000
0.4828 1.8966 0.0000
0.4828 1.9310 0.0000
0.4828 1.9655 0.0000
0.4828 2.0000 0.0000
0.5517 1.0000 0.0000
0.5517 1.0345 0.0000
0.5517 1.0690 0.0000
0.5517 1.1034 0.0000
0.5517 1.1379 0.0000
0.5517 1.1724 0.0000
0.5517 1.2069 0.0000
0.5517 1.2414 0.0000
0.5517 1.2759 0.0000
0.5517 1.3103 0.0000
0.5517 1.3448 0.0000
0.5517 1.3793 0.0000
0.5517 1.4138 0.0000
0.5517 1.4483 0.0000
0.5517 1.4828 0.0000
0.5517 1.5172 0.0000
0.5517 1.5517 0.0000
0.5517 1.5862 0.0000
0.5517 1.6207 0.0000
0.5517 1.6552 0.0000
0.5517 1.6897 0.0000
0.5517 1.7241 0.0000
0.5517 1.7586 0.0000
0.5517 1.7931 0.0000
0.5517 1.8276 0.0000
0.5517 1.8621 0.0000
0.5517 1.8966 0.0000
0.5517 1.9310 0.0000
0.5517 1.9655 0.0000
0.5517 2.0000 0.0000
0.6207 1.0000 0.0000
0.6207 1.0345 0.0000
0.6207 1.0690 0.0000
0.6207 1.1034 0.0000
0.6207 1.1379 0.0000
0.6207 1.1724 0.0000
0.6207 1.2069 0.0000
0.6207 1.2414 0.0000
0.6207 1.2759 0.0000
0.6207 1.3103 0.0000
0.6207 1.3448 0.0000
0.6207 1.3793 0.0000
0.6207 1.4138 0.0000
0.6207 1.4483 0.0000
0.6207 1.4828 0.0000
0.6207 1.5172 0.0000
0.6207 1.5517 0.0000
0.6207 1.5862 0.0000
0.6207 1.6207 0.0000
0.6207 1.6552 0.0000
0.6207 1.6897 0.0000
0.6207 1.7241 0.0000
0.6207 1.7586 0.0000
0.6207 1.7931 0.0000
0.6207 1.8276 0.0000
0.6207 1.8621 0.0000
0.6207 1.8966 0.0000
0.6207 1.9310 0.0000
0.6207 1.9655 0.0000
0.6207 2.0000 0.0000
0.6897 1.0000 0.0000
0.6897 1.0345 0.0000
0.6897 1.0690 0.0000
0.6897 1.1034 0.0000
0.6897 1.1379 0.0000
0.6897 1.1724 0.0000
0.6897 1.2069 0.0000
0.6897 1.2414 0.0000
0.6897 1.2759 0.0000
0.6897 1.3103 0.0000
0.6897 1.3448 0.0000
0.6897 1.3793 0.0000
0.6897 1.4138 0.0000
0.6897 1.4483 0.0000
0.6897 1.4828 0.0000
0.6897 1.5172 0.0000
0.6897 1.5517 0.0000
0.6897 1.5862 0.0000
0.6897 1.6207 0.0000
0.6897 1.6552 0.0000
0.6897 1.6897 0.0000
0.6897 1.7241 0.0000
0.6897 1.7586 0.0000
0.6897 1.7931 0.0000
0.6897 1.8276 0.0000
0.6897 1.8621 0.0000
0.6897 1.8966 0.0000
0.6897 1.9310 0.0000
0.6897 1.9655 0.0000
0.6897 2.0000 0.0000
0.7586 1.0000 0.0000
0.7586 1.0345 0.0000
0.7586 1.0690 0.0000
0.7586 1.1034 0.0000
0.7586 1.1379 0.0000
0.7586 1.1724 0.0000
0.7586 1.2069 0.0000
0.7586 1.2414 0.0000
0.7586 1.2759 0.0000
0.7586 1.3103 0.0000
0.7586 1.3448 0.0000
0.7586 1.3793 0.0000
0.7586 1.4138 0.0000
0.7586 1.4483 0.0000
0.7586 1.4828 0.0000
0.7586 1.5172 0.0000
0.7586 1.5517 0.0000
0.7586 1.5862 0.0000
0.7586 1.6207 0.0000
0.7586 1.6552 0.0000
0.7586 1.6897 0.0000
0.7586 1.7241 0.0000
0.7586 1.7586 0.0000
0.7586 1.7931 0.0000
0.7586 1.8276 0.0000
0.7586 1.8621 0.0000
0.7586 1.8966 0.0000
0.7586 1.9310 0.0000
0.7586 1.9655 0.0000
0.7586 2.0000 0.0000
0.8276 1.0000 0.0000
0.8276 1.0345 0.0000
0.8276 1.0690 0.0000
0.8276 1.1034 0.0000
0.8276 1.1379 0.0000
0.8276 1.1724 0.0000
0.8276 1.2069 0.0000
0.8276 1.2414 0.0000
0.8276 1.2759 0.0000
0.8276 1.3103 0.0000
0.8276 1.3448 0.0000
0.8276 1.3793 0.0000
0.8276 1.4138 0.0000
0.8276 1.4483 0.0000
0.8276 1.4828 0.0000
0.8276 1.5172 0.0000
0.8276 1.5517 0.0000
0.8276 1.5862 0.0000
0.8276 1.6207 0.0000
0.8276 1.6552 0.0000
0.8276 1.6897 0.0000
0.8276 1.7241 0.0000
0.8276 1.7586 0.0000
0.8276 1.7931 0.0000
0.8276 1.8276 0.0000
0.8276 1.8621 0.0000
0.8276 1.8966 0.0000
0.8276 1.9310 0.0000
0.8276 1.9655 0.0000
0.8276 2.0000 0.0000
0.8966 1.0000 0.0000
0.8966 1.0345 0.0000
0.8966 1.0690 0.0000
0.8966 1.1034 0.0000
0.8966 1.1379 0.0000
0.8966 1.1724 0.0000
0.8966 1.2069 0.0000
0.8966 1.2414 0.0000
0.8966 1.2759 0.0000
0.8966 1.3103 0.0000
0.8966 1.3448 0.0000
0.8966 1.3793 0.0000
0.8966 1.4138 0.0000
0.8966 1.4483 0.0000
0.8966 1.4828 0.0000
0.8966 1.5172 0.0000
0.8966 1.5517 0.0000
0.8966 1.5862 0.0000
0.8966 1.6207 0.0000
0.8966 1.6552 0.0000
0.8966 1.6897 0.0000
0.8966 1.7241 0.0000
0.8966 1.7586 0.0000
0.8966 1.7931 0.0000
0.8966 1.8276 0.0000
0.8966 1.8621 0.0000
0.8966 1.8966 0.0000
0.8966 1.9310 0.0000
0.8966 1.9655 0.0000
0.8966 2.0000 0.0000
0.9655 1.0000 0.0000
0.9655 1.0345 0.0000
0.9655 1.0690 0.0000
0.9655 1.1034 0.0000
0.9655 1.1379 0.0000
0.9655 1.1724 0.0000
0.9655 1.2069 0.0000
0.9655 1.2414 0.0000
0.9655 1.2759 0.0000
0.9655 1.3103 0.0000
0.9655 1.3448 0.0000
0.9655 1.3793 0.0000
0.9655 1.4138 0.0000
0.9655 1.4483 0.0000
0.9655 1.4828 0.0000
0.9655 1.5172 0.0000
0.9655 1.5517 0.0000
0.9655 1.5862 0.0000
0.9655 1.6207 0.0000
0.9655 1.6552 0.0000
0.9655 1.6897 0.0000
0.9655 1.7241 0.0000
0.9655 1.7586 0.0000
0.9655 1.7931 0.0000
0.9655 1.8276 0.0000
0.9655 1.8621 0.0000
0.9655 1.8966 0.0000
0.9655 1.9310 0.0000
0.9655 1.9655 0.0000
0.9655 2.0000 0.0000
1.0345 1.0000 0.0000
1.0345 1.0345 0.0000
1.0345 1.0690 0.0000
1.0345 1.1034 0.0000
1.0345 1.1379 0.0000
1.0345 1.1724 0.0000
1.0345 1.2069 0.0000
1.0345 1.2414 0.0000
1.0345 1.2759 0.0000
1.0345 1.3103 0.0000
1.0345 1.3448 0.0000
[...]
         <PointData>
            <DataArray Name="fValues" NumberOfComponents="3" format="ascii" type="Float64">
 1.65624e-17 -4.25814e-17        00000 
-2.71085e-18  4.70991e-17        00000 
 7.04460e-19  3.76905e-18        00000 
-1.11839e-19 -6.08630e-19        00000 
 1.75716e-20  1.30749e-19        00000 
-2.78172e-21 -2.43155e-20        00000 
 4.44463e-22  3.92560e-21        00000 
-7.15798e-23 -6.40517e-22        00000 
 1.16044e-23  1.04789e-22        00000 
-1.89165e-24 -1.71925e-23        00000 
 3.09776e-25  2.82886e-24        00000 
-5.09252e-26 -4.66732e-25        00000 
 8.39938e-27  7.71990e-26        00000 
-1.38929e-27 -1.27979e-26        00000 
 2.30359e-28  2.12597e-27        00000 
-3.82785e-29 -3.53812e-28        00000 
 6.37282e-30  5.89807e-29        00000 
-1.06278e-30 -9.84690e-30        00000 
 1.77506e-31  1.64619e-30        00000 
-2.96875e-32 -2.75549e-31        00000 
 4.97130e-33  4.61752e-32        00000 
-8.33398e-34 -7.74584e-33        00000 
 1.39855e-34  1.30059e-33        00000 
-2.34915e-35 -2.18571e-34        00000 
 3.94927e-36  3.67618e-35        00000 
-6.64458e-37 -6.18767e-36        00000 
 1.11879e-37  1.04224e-36        00000 
-1.88649e-38 -1.75802e-37        00000 
 3.26840e-39  3.04683e-38        00000 
-1.07219e-39 -9.99771e-39        00000 
-3.82301e-03  7.46316e-01        00000 
 8.93444e-05 -3.25229e-01        00000 
-6.33860e-19 -5.55964e-18        00000 
 9.78132e-20  8.94091e-19        00000 
-1.55364e-20 -1.40668e-19        00000 
 2.49576e-21  2.21160e-20        00000 
-4.03845e-22 -3.64474e-21        00000 
 6.57282e-23  5.97009e-22        00000 
-1.07486e-23 -9.80826e-23        00000 
 1.76477e-24  1.61620e-23        00000 
-2.90740e-25 -2.67030e-24        00000 
 4.80396e-26  4.42247e-25        00000 
-7.95799e-27 -7.34009e-26        00000 
 1.32124e-27  1.22060e-26        00000 
-2.19796e-28 -2.03328e-27        00000 
 3.66288e-29  3.39233e-28        00000 
-6.11376e-30 -5.66781e-29        00000 
 1.02190e-30  9.48179e-30        00000 
-1.71028e-31 -1.58809e-30        00000 
 2.86568e-32  2.66272e-31        00000 
-4.80673e-33 -4.46894e-32        00000 
 8.07035e-34  7.50718e-33        00000 
-1.35619e-34 -1.26216e-33        00000 
 2.28091e-35  2.12366e-34        00000 
-3.83905e-36 -3.57578e-35        00000 
 6.46615e-37  6.02485e-36        00000 
-1.08984e-37 -1.01579e-36        00000 
 1.83940e-38  1.71493e-37        00000 
-3.18972e-39 -2.97473e-38        00000 
 1.04718e-39  9.76833e-39        00000 
-1.54486e-02  1.62454e-01        00000 
-1.33769e-18 -6.37125e-19        00000 
 3.61576e-19  5.48591e-18        00000 
-6.17684e-20 -7.01540e-19        00000 
 1.05391e-20  1.08776e-19        00000 
-1.78796e-21 -1.75791e-20        00000 
 3.01849e-22  2.88063e-21        00000 
-5.07967e-23 -4.79267e-22        00000 
 8.53291e-24  8.00168e-23        00000 
-1.43210e-24 -1.33843e-23        00000 
 2.40282e-25  2.24149e-24        00000 
-4.03181e-26 -3.75738e-25        00000 
 6.76722e-27  6.30351e-26        00000 
-1.13635e-27 -1.05828e-26        00000 
 1.90914e-28  1.77796e-27        00000 
-3.20928e-29 -2.98905e-28        00000 
 5.39794e-30  5.02832e-29        00000 
-9.08451e-31 -8.46411e-30        00000 
 1.52976e-31  1.42560e-30        00000 
-2.57744e-32 -2.40246e-31        00000 
 4.34497e-33  4.05091e-32        00000 
-7.32844e-34 -6.83395e-33        00000 
 1.23667e-34  1.15347e-33        00000 
-2.08786e-35 -1.94779e-34        00000 
 3.52652e-36  3.29060e-35        00000 
-5.95912e-37 -5.56150e-36        00000 
 1.00741e-37  9.40362e-37        00000 
-1.70507e-38 -1.59185e-37        00000 
 2.96487e-39  2.76848e-38        00000 
-9.75606e-40 -9.11117e-39        00000 
-2.91816e-19  1.31558e-18        00000 
 7.23594e-20  6.19429e-19        00000 
-8.48384e-20 -3.38861e-19        00000 
 2.50841e-20  2.84437e-19        00000 
-5.25648e-21 -5.74999e-20        00000 
 1.00433e-21  1.04997e-20        00000 
-1.83935e-22 -1.85744e-21        00000 
 3.28839e-23  3.23879e-22        00000 
-5.79033e-24 -5.61355e-23        00000 
 1.00929e-24  9.68327e-24        00000 
-1.74695e-25 -1.66422e-24        00000 
 3.00868e-26  2.85213e-25        00000 
-5.16298e-27 -4.87732e-26        00000 
 8.83633e-28  8.32652e-27        00000 
-1.50934e-28 -1.41966e-27        00000 
 2.57433e-29  2.41809e-28        00000 
-4.38593e-30 -4.11559e-29        00000 
 7.46624e-31  7.00072e-30        00000 
-1.27021e-31 -1.19033e-30        00000 
 2.15998e-32  2.02327e-31        00000 
-3.67182e-33 -3.43830e-32        00000 
 6.24038e-34  5.84208e-33        00000 
-1.06041e-34 -9.92543e-34        00000 
 1.80174e-35  1.68620e-34        00000 
-3.06119e-36 -2.86460e-35        00000 
 5.20094e-37  4.86661e-36        00000 
-8.83670e-38 -8.26827e-37        00000 
 1.50265e-38  1.40595e-37        00000 
-2.62482e-39 -2.45588e-38        00000 
 8.67035e-40  8.11230e-39        00000 
 2.94074e-20  3.66258e-20        00000 
-2.65242e-20 -4.59518e-20        00000 
 1.22348e-20  7.14228e-20        00000 
-6.20740e-21 -4.18943e-20        00000 
 1.86397e-21  1.85288e-20        00000 
-4.34536e-22 -4.50172e-21        00000 
 9.05057e-23  9.30334e-22        00000 
-1.77355e-23 -1.79311e-22        00000 
 3.34803e-24  3.33094e-23        00000 
-6.16571e-25 -6.05539e-24        00000 
 1.11600e-25  1.08513e-24        00000 
-1.99479e-26 -1.92481e-25        00000 
 3.53236e-27  3.38842e-26        00000 
-6.21055e-28 -5.93036e-27        00000 
 1.08589e-28  1.03321e-27        00000 
-1.89034e-29 -1.79360e-28        00000 
 3.27928e-30  3.10452e-29        00000 
-5.67273e-31 -5.36082e-30        00000 
 9.79062e-32  9.23889e-31        00000 
-1.68659e-32 -1.58967e-31        00000 
 2.90091e-33  2.73157e-32        00000 
-4.98308e-34 -4.68846e-33        00000 
 8.55051e-35  8.03965e-34        00000 
-1.46586e-35 -1.37752e-34        00000 
 2.51110e-36  2.35868e-35        00000 
-4.29887e-37 -4.03637e-36        00000 
 7.35562e-38  6.90421e-37        00000 
-1.25902e-38 -1.18143e-37        00000 
 2.21333e-39  2.07641e-38        00000 
-7.35050e-40 -6.89449e-39        00000 
-4.66051e-21 -7.32234e-21        00000 
 3.97821e-21  8.55326e-21        00000 
-2.47453e-21 -9.57141e-21        00000 
 1.19433e-21  7.31479e-21        00000 
-4.83360e-22 -3.70292e-21        00000 
 1.44878e-22  1.35722e-21        00000 
-3.58525e-23 -3.55864e-22        00000 
 7.94801e-24  7.98658e-23        00000 
-1.64637e-24 -1.64947e-23        00000 
 3.26071e-25  3.24188e-24        00000 
-6.25902e-26 -6.17129e-25        00000 
 1.17444e-26  1.14917e-25        00000 
-2.16647e-27 -2.10593e-26        00000 
 3.94450e-28  3.81308e-27        00000 
-7.10846e-29 -6.83993e-28        00000 
 1.27059e-29  1.21791e-28        00000 
-2.25613e-30 -2.15569e-29        00000 
 3.98449e-31  3.79698e-30        00000 
-7.00549e-32 -6.66094e-31        00000 
 1.22711e-32  1.16457e-31        00000 
-2.14271e-33 -2.03028e-32        00000 
 3.73154e-34  3.53099e-33        00000 
-6.48376e-35 -6.12825e-34        00000 
 1.12440e-35  1.06170e-34        00000 
-1.94664e-36 -1.83653e-35        00000 
 3.36526e-37  3.17259e-36        00000 
-5.81049e-38 -5.47434e-37        00000 
 1.00297e-38  9.44417e-38        00000 
-1.77772e-39 -1.67310e-38        00000 
 5.94471e-40  5.59261e-39        00000 
 7.23351e-22  1.37633e-21        00000 
-6.35731e-22 -1.45228e-21        00000 
 4.34314e-22  1.47071e-21        00000 
-2.36096e-22 -1.17806e-21        00000 
 1.05449e-22  6.98431e-22        00000 
-3.87906e-23 -3.09188e-22        00000 
 1.15855e-23  1.05264e-22        00000 
-2.97319e-24 -2.86062e-23        00000 
 6.89698e-25  6.78301e-24        00000 
-1.49382e-25 -1.47800e-24        00000 
 3.08271e-26  3.04703e-25        00000 
-6.14095e-27 -6.04664e-26        00000 
 1.19127e-27  1.16740e-26        00000 
-2.26412e-28 -2.20810e-27        00000 
 4.23445e-29  4.11112e-28        00000 
-7.81809e-30 -7.55963e-29        00000 
 1.42843e-30  1.37627e-29        00000 
-2.58752e-31 -2.48520e-30        00000 
 4.65371e-32  4.45749e-31        00000 
-8.31966e-33 -7.94995e-32        00000 
 1.47980e-33  1.41112e-32        00000 
-2.62070e-34 -2.49457e-33        00000 
 4.62393e-35  4.39447e-34        00000 
-8.13217e-36 -7.71799e-35        00000 
 1.42622e-36  1.35195e-35        00000 
-2.49518e-37 -2.36273e-36        00000 
 4.35610e-38  4.12101e-37        00000 
-7.59699e-39 -7.18103e-38        00000 
 1.36011e-39  1.28465e-38        00000 
-4.58669e-40 -4.32955e-39        00000 
-1.14216e-22 -2.43043e-22        00000 
 1.02520e-22  2.45423e-22        00000 
-7.44200e-23 -2.35574e-22        00000 
 4.41913e-23  1.91729e-22        00000 
-2.18160e-23 -1.24332e-22        00000 
 9.05653e-24  6.33405e-23        00000 
-3.16809e-24 -2.56184e-23        00000 
 9.43832e-25  8.41789e-24        00000 
-2.48110e-25 -2.33319e-24        00000 
 5.95321e-26  5.74667e-25        00000 
-1.33650e-26 -1.30520e-25        00000 
 2.85590e-27  2.80000e-26        00000 
-5.87820e-28 -5.76296e-27        00000 
 1.17526e-28  1.14993e-27        00000 
-2.29647e-29 -2.24054e-28        00000 
 4.40543e-30  4.28455e-29        00000 
-8.32528e-31 -8.07125e-30        00000 
 1.55394e-31  1.50199e-30        00000 
-2.87068e-32 -2.76698e-31        00000 
 5.25727e-33  5.05447e-32        00000 
-9.55714e-34 -9.16735e-33        00000 
 1.72643e-34  1.65260e-33        00000 
-3.10172e-35 -2.96357e-34        00000 
 5.54630e-36  5.29048e-35        00000 
-9.87669e-37 -9.40716e-36        00000 
 1.75246e-37  1.66693e-36        00000 
-3.09965e-38 -2.94485e-37        00000 
 5.47187e-39  5.19304e-38        00000 
-9.91322e-40 -9.39858e-39        00000 
 3.37641e-40  3.19851e-39        00000 
 1.82629e-23  4.17996e-23        00000 
-1.66407e-23 -4.13399e-23        00000 
 1.26158e-23  3.85394e-23        00000 
-8.00821e-24 -3.15843e-23        00000 
 4.29593e-24  2.16499e-23        00000 
-1.96543e-24 -1.21604e-23        00000 
 7.71784e-25  5.59256e-24        00000 
-2.61811e-25 -2.12987e-24        00000 
 7.78813e-26  6.85845e-25        00000 
-2.08254e-26 -1.92480e-25        00000 
 5.12789e-27  4.87250e-26        00000 
-1.18523e-27 -1.14321e-26        00000 
 2.60862e-28  2.53490e-27        00000 
-5.52529e-29 -5.38527e-28        00000 
 1.13511e-29  1.10684e-28        00000 
-2.27521e-30 -2.21632e-29        00000 
 4.46941e-31  4.34607e-30        00000 
-8.63454e-32 -8.37833e-31        00000 
 1.64502e-32  1.59259e-31        00000 
-3.09736e-33 -2.99186e-32        00000 
 5.77375e-34  5.56491e-33        00000 
-1.06706e-34 -1.02634e-33        00000 
 1.95746e-35  1.87915e-34        00000 
-3.56772e-36 -3.41891e-35        00000 
 6.46597e-37  6.18618e-36        00000 
-1.16606e-37 -1.11393e-36        00000 
 2.09370e-38  1.99738e-37        00000 
-3.74818e-39 -3.57127e-38        00000 
 6.88391e-40  6.55115e-39        00000 
-2.37159e-40 -2.25474e-39        00000 
-2.94705e-24 -7.10018e-24        00000 
 2.71556e-24  6.94889e-24        00000 
-2.12736e-24 -6.37767e-24        00000 
 1.42223e-24  5.25174e-24        00000 
-8.16097e-25 -3.73637e-24        00000 
 4.04571e-25  2.24978e-24        00000 
-1.74331e-25 -1.13946e-24        00000 
 6.56828e-26  4.87341e-25        00000 
-2.18244e-26 -1.78048e-25        00000 
 6.48660e-27  5.65896e-26        00000 
-1.75683e-27 -1.60197e-26        00000 
 4.41490e-28  4.13954e-27        00000 
-1.04515e-28 -9.96721e-28        00000 
 2.35894e-29  2.27193e-28        00000 
-5.12337e-30 -4.96081e-29        00000 
 1.07846e-30  1.04683e-29        00000 
-2.21246e-31 -2.14904e-30        00000 
 4.44280e-32  4.31363e-31        00000 
-8.76281e-33 -8.49884e-32        00000 
 1.70228e-33  1.64860e-32        00000 
-3.26426e-34 -3.15613e-33        00000 
 6.19009e-35  5.97475e-34        00000 
-1.16256e-35 -1.12019e-34        00000 
 2.16514e-36  2.08273e-35        00000 
-4.00271e-37 -3.84421e-36        00000 
 7.35204e-38  7.05019e-37        00000 
-1.34271e-38 -1.28575e-37        00000 
 2.44212e-39  2.33540e-38        00000 
-4.55513e-40 -4.35040e-39        00000 
 1.58968e-40  1.51659e-39        00000 
 4.78883e-25  1.19857e-24        00000 
-4.45132e-25 -1.16673e-24        00000 
 3.57789e-25  1.06236e-24        00000 
-2.49283e-25 -8.78947e-25        00000 
 1.51120e-25  6.42414e-25        00000 
-8.00814e-26 -4.07212e-25        00000 
 3.72786e-26  2.22018e-25        00000 
-1.53223e-26 -1.04084e-25        00000 
 5.59523e-27  4.22026e-26        00000 
-1.83150e-27 -1.49639e-26        00000 
 5.44102e-28  4.71244e-27        00000 
-1.48841e-28 -1.34259e-27        00000 
 3.80229e-29  3.52511e-28        00000 
-9.18264e-30 -8.66799e-29        00000 
 2.11772e-30  2.02221e-29        00000 
-4.70184e-31 -4.52183e-30        00000 
 1.01152e-31  9.76821e-31        00000 
-2.11947e-32 -2.05114e-31        00000 
 4.34334e-33  4.20670e-32        00000 
-8.73406e-34 -8.45869e-33        00000 
 1.72817e-34  1.67262e-33        00000 
-3.37211e-35 -3.26049e-34        00000 
 6.50080e-36  6.27809e-35        00000 
-1.24008e-36 -1.19603e-35        00000 
 2.34376e-37  2.25743e-36        00000 
-4.39371e-38 -4.22610e-37        00000 
 8.17755e-39  7.85508e-38        00000 
-1.51380e-39 -1.45222e-38        00000 
 2.87274e-40  2.75228e-39        00000 
-1.01705e-40 -9.73325e-40        00000 
-7.82448e-26 -2.01690e-25        00000 
 7.32407e-26  1.95805e-25        00000 
-6.01014e-26 -1.77674e-25        00000 
 4.33070e-26  1.47753e-25        00000 
-2.74727e-26 -1.10268e-25        00000 
 1.53943e-26  7.27069e-26        00000 
-7.64890e-27 -4.19895e-26        00000 
 3.38402e-27  2.11848e-26        00000 
-1.33959e-27 -9.35941e-27        00000 
 4.77463e-28  3.64450e-27        00000 
-1.54527e-28 -1.26357e-27        00000 
 4.58956e-29  3.95199e-28        00000 
-1.26560e-29 -1.13151e-28        00000 
 3.27708e-30  3.00898e-29        00000 
-8.04856e-31 -7.52821e-30        00000 
 1.89106e-31  1.79129e-30        00000 
-4.28080e-32 -4.08930e-31        00000 
 9.39084e-33  9.01984e-32        00000 
-2.00589e-33 -1.93313e-32        00000 
 4.18815e-34  4.04387e-33        00000 
-8.57517e-35 -8.28690e-34        00000 
 1.72631e-35  1.66853e-34        00000 
-3.42456e-36 -3.30883e-35        00000 
 6.70666e-37  6.47573e-36        00000 
-1.29867e-37 -1.25286e-36        00000 
 2.48973e-38  2.39949e-37        00000 
-4.73124e-39 -4.55485e-38        00000 
 8.92992e-40  8.58743e-39        00000 
-1.72716e-40 -1.65895e-39        00000 
 6.21191e-41  5.96047e-40        00000 
 1.28415e-26  3.38870e-26        00000 
-1.20895e-26 -3.28592e-26        00000 
 1.00914e-26  2.97921e-26        00000 
-7.47733e-27 -2.49113e-26        00000 
 4.92715e-27  1.89108e-26        00000 
-2.89446e-27 -1.28657e-26        00000 
 1.52033e-27  7.77989e-27        00000 
-7.16414e-28 -4.16611e-27        00000 
 3.04040e-28  1.97613e-27        00000 
-1.16761e-28 -8.33280e-28        00000 
 4.08237e-29  3.14417e-28        00000 
-1.30953e-29 -1.07132e-28        00000 
 3.88893e-30  3.33283e-29        00000 
-1.07950e-30 -9.58000e-30        00000 
 2.82700e-31  2.57418e-30        00000 
-7.04364e-32 -6.53450e-31        00000 
 1.68197e-32  1.58136e-31        00000 
-3.87337e-33 -3.67609e-32        00000 
 8.64724e-34  8.26038e-33        00000 
-1.87964e-34 -1.80344e-33        00000 
 3.99266e-35  3.84165e-34        00000 
-8.31302e-36 -8.01222e-35        00000 
 1.70088e-36  1.64078e-35        00000 
-3.42720e-37 -3.30708e-36        00000 
 6.81317e-38  6.57355e-37        00000 
-1.33837e-38 -1.29075e-37        00000 
 2.60145e-39  2.50732e-38        00000 
-5.01486e-40 -4.82968e-39        00000 
 9.90255e-41  9.52820e-40        00000 
-3.62312e-41 -3.48322e-40        00000 
-2.11533e-27 -5.68991e-27        00000 
 2.00105e-27  5.51556e-27        00000 
-1.69443e-27 -5.00445e-27        00000 
 1.28538e-27  4.20851e-27        00000 
-8.74749e-28 -3.24141e-27        00000 
 5.35028e-28  2.26250e-27        00000 
-2.94782e-28 -1.42050e-27        00000 
 1.46696e-28  7.98943e-28        00000 
-6.61426e-29 -4.02143e-28        00000 
 2.71210e-29  1.81463e-28        00000 
-1.01600e-29 -7.37113e-29        00000 
 3.49731e-30  2.71238e-29        00000 
-1.11384e-30 -9.11483e-30        00000 
 3.30764e-31  2.82347e-30        00000 
-9.23242e-32 -8.14198e-31        00000 
 2.44113e-32  2.20676e-31        00000 
-6.15813e-33 -5.67121e-32        00000 
 1.49154e-33  1.39266e-32        00000 
-3.48762e-34 -3.28950e-33        00000 
 7.90989e-35  7.51541e-34        00000 
-1.74698e-35 -1.66855e-34        00000 
 3.77009e-36  3.61394e-35        00000 
-7.97272e-37 -7.66122e-36        00000 
 1.65620e-37  1.59396e-36        00000 
-3.38668e-38 -3.26230e-37        00000 
 6.82912e-39  6.58086e-38        00000 
-1.36010e-39 -1.31068e-38        00000 
 2.68222e-40  2.58413e-39        00000 
-5.41641e-41 -5.21579e-40        00000 
 2.01865e-41  1.94284e-40        00000 
 3.49537e-28  9.55273e-28        00000 
-3.32008e-28 -9.26173e-28        00000 
 2.84583e-28  8.41745e-28        00000 
-2.20265e-28 -7.11965e-28        00000 
 1.54103e-28  5.55350e-28        00000 
-9.75925e-29 -3.96073e-28        00000 
 5.60455e-29  2.56580e-28        00000 
-2.92489e-29 -1.50357e-28        00000 
 1.39064e-29  7.95693e-29        00000 
-6.04154e-30 -3.80469e-29        00000 
 2.40700e-30  1.64789e-29        00000 
-8.83309e-31 -6.49281e-30        00000 
 3.00165e-31  2.34091e-30        00000 
-9.50349e-32 -7.77828e-31        00000 
 2.82216e-32  2.40100e-31        00000 
-7.91455e-33 -6.94222e-32        00000 
 2.11004e-33  1.89536e-32        00000 
-5.38071e-34 -4.92269e-33        00000 
 1.31967e-34  1.22436e-33        00000 
-3.12809e-35 -2.93312e-34        00000 
 7.19632e-36  6.80170e-35        00000 
-1.61267e-36 -1.53326e-35        00000 
 3.53136e-37  3.37202e-36        00000 
-7.57660e-38 -7.25717e-37        00000 
 1.59643e-38  1.53242e-37        00000 
-3.31007e-39 -3.18189e-38        00000 
 6.76565e-40  6.50934e-39        00000 
-1.36708e-40 -1.31588e-39        00000 
 2.82771e-41  2.72212e-40        00000 
-1.07482e-41 -1.03458e-40        00000 
-5.79114e-29 -1.60410e-28        00000 
 5.52013e-29  1.55599e-28        00000 
-4.78163e-29 -1.41725e-28        00000 
 3.76577e-29  1.20561e-28        00000 
-2.69856e-29 -9.51097e-29        00000 
 1.76154e-29  6.90978e-29        00000 
-1.04894e-29 -4.59668e-29        00000 
 5.70753e-30  2.78911e-29        00000 
-2.84365e-30 -1.54045e-29        00000 
 1.30040e-30  7.74258e-30        00000 
-5.47405e-31 -3.54632e-30        00000 
 2.12850e-31  1.48448e-30        00000 
-7.67679e-32 -5.70302e-31        00000 
 2.58069e-32  2.02171e-31        00000 
-8.13031e-33 -6.65504e-32        00000 
 2.41446e-33  2.04825e-32        00000 
-6.79876e-34 -5.93566e-33        00000 
 1.82563e-34  1.63070e-33        00000 
-4.69985e-35 -4.27430e-34        00000 
 1.16558e-35  1.07508e-34        00000 
-2.79684e-36 -2.60807e-35        00000 
 6.51797e-37  6.12957e-36        00000 
-1.48021e-37 -1.40103e-36        00000 
 3.28522e-38  3.12473e-37        00000 
-7.14381e-39 -6.81974e-38        00000 
 1.52538e-39  1.46010e-38        00000 
-3.20454e-40 -3.07330e-39        00000 
 6.64415e-41  6.38053e-40        00000 
-1.40983e-41 -1.35508e-40        00000 
 5.47172e-42  5.26168e-41        00000 
 9.61694e-30  2.69462e-29        00000 
-9.19504e-30 -2.61551e-29        00000 
 8.03821e-30  2.38820e-29        00000 
-6.42715e-30 -2.04295e-29        00000 
 4.70335e-30  1.62823e-29        00000 
-3.15289e-30 -1.20218e-29        00000 
 1.93829e-30  8.18260e-30        00000 
-1.09431e-30 -5.11575e-30        00000 
 5.68329e-31  2.93149e-30        00000 
-2.72051e-31 -1.53856e-30        00000 
 1.20313e-31  7.40049e-31        00000 
-4.92940e-32 -3.26840e-31        00000 
 1.87732e-32  1.32938e-31        00000 
-6.67165e-33 -4.99987e-32        00000 
 2.22228e-33  1.74745e-32        00000 
-6.97173e-34 -5.70700e-33        00000 
 2.07049e-34  1.75210e-33        00000 