<?xml version="1.0" encoding="utf-8"?>
<VTKFile byte_order="LittleEndian" type="UnstructuredGrid" version="0.1">
   <UnstructuredGrid>
      <Piece NumberOfCells="3364" NumberOfPoints="1741">
         <Points>
            <DataArray Name="Points" NumberOfComponents="3" format="ascii" type="Float32">
0.0000 1.0000 0.0000
0.0000 1.0345 0.0000
0.0000 1.0690 0.0000
0.0000 1.1034 0.0000
0.0000 1.1379 0.0000
0.0000 1.1724 0.0000
0.0000 1.2069 0.0000
0.0000 1.2414 0.0000
0.0000 1.2759 0.0000
0.0000 1.3103 0.0000
0.0000 1.3448 0.0000
0.0000 1.3793 0.0000
0.0000 1.4138 0.0000
0.0000 1.4483 0.0000
0.0000 1.4828 0.0000
0.0000 1.5172 0.0000
0.0000 1.5517 0.0000
0.0000 1.5862 0.0000
0.0000 1.6207 0.0000
0.0000 1.6552 0.0000
0.0000 1.6897 0.0000
0.0000 1.7241 0.0000
0.0000 1.7586 0.0000
0.0000 1.7931 0.0000
0.0000 1.8276 0.0000
0.0000 1.8621 0.0000
0.0000 1.8966 0.0000
0.0000 1.9310 0.0000
0.0000 1.9655 0.0000
0.0000 2.0000 0.0000
0.0690 1.0000 0.0000
0.0690 1.0345 0.0000
0.0690 1.0690 0.0000
0.0690 1.1034 0.0000
0.0690 1.1379 0.0000
0.0690 1.1724 0.0000
0.0690 1.2069 0.0000
0.0690 1.2414 0.0000
0.0690 1.2759 0.0000
0.0690 1.3103 0.0000
0.0690 1.3448 0.0000
0.0690 1.3793 0.0000
0.0690 1.4138 0.0000
0.0690 1.4483 0.0000
0.0690 1.4828 0.0000
0.0690 1.5172 0.0000
0.0690 1.5517 0.0000
0.0690 1.5862 0.0000
0.0690 1.6207 0.0000
0.0690 1.6552 0.0000
0.0690 1.6897 0.0000
0.0690 1.7241 0.0000
0.0690 1.7586 0.0000
0.0690 1.7931 0.0000
0.0690 1.8276 0.0000
0.0690 1.8621 0.0000
0.0690 1.8966 0.0000
0.0690 1.9310 0.0000
0.0690 1.9655 0.0000
0.0690 2.0000 0.0000
0.1379 1.0000 0.0000
0.1379 1.0345 0.0000
0.1379 1.0690 0.0000
0.1379 1.1034 0.0000
0.1379 1.1379 0.0000
0.1379 1.1724 0.0000
0.1379 1.2069 0.0000
0.1379 1.2414 0.0000
0.1379 1.2759 0.0000
0.1379 1.3103 0.0000
0.1379 1.3448 0.0000
0.1379 1.3793 0.0000
0.1379 1.4138 0.0000
0.1379 1.4483 0.0000
0.1379 1.4828 0.0000
0.1379 1.5172 0.0000
0.1379 1.5517 0.0000
0.1379 1.5862 0.0000
0.1379 1.6207 0.0000
0.1379 1.6552 0.0000
0.1379 1.6897 0.0000
0.1379 1.7241 0.0000
0.1379 1.7586 0.0000
0.1379 1.7931 0.0000
0.1379 1.8276 0.0000
0.1379 1.8621 0.0000
0.1379 1.8966 0.0000
0.1379 1.9310 0.0000
0.1379 1.9655 0.0000
0.1379 2.0000 0.0000
0.2069 1.0000 0.0000
0.2069 1.0345 0.0000
0.2069 1.0690 0.0000
0.2069 1.1034 0.0000
0.2069 1.1379 0.0000
0.2069 1.1724 0.0000
0.2069 1.2069 0.0000
0.2069 1.2414 0.0000
0.2069 1.2759 0.0000
0.2069 1.3103 0.0000
0.2069 1.3448 0.0000
0.2069 1.3793 0.0000
0.2069 1.4138 0.0000
0.2069 1.4483 0.0000
0.2069 1.4828 0.0000
0.2069 1.5172 0.0000
0.2069 1.5517 0.0000
0.2069 1.5862 0.0000
0.2069 1.6207 0.0000
0.2069 1.6552 0.0000
0.2069 1.6897 0.0000
0.2069 1.7241 0.0000
0.2069 1.7586 0.0000
0.2069 1.7931 0.0000
0.2069 1.8276 0.0000
0.2069 1.8621 0.0000
0.2069 1.8966 0.0000
0.2069 1.9310 0.0000
0.2069 1.9655 0.0000
0.2069 2.0000 0.0000
0.2759 1.0000 0.0000
0.2759 1.0345 0.0000
0.2759 1.0690 0.0000
0.2759 1.1034 0.0000
0.2759 1.1379 0.0000
0.2759 1.1724 0.0000
0.2759 1.2069 0.0000
0.2759 1.2414 0.0000
0.2759 1.2759 0.0000
0.2759 1.3103 0.0000
0.2759 1.3448 0.0000
0.2759 1.3793 0.0000
0.2759 1.4138 0.0000
0.2759 1.4483 0.0000
0.2759 1.4828 0.0000
0.2759 1.5172 0.0000
0.2759 1.5517 0.0000
0.2759 1.5862 0.0000
0.2759 1.6207 0.0000
0.2759 1.6552 0.0000
0.2759 1.6897 0.0000
0.2759 1.7241 0.0000
0.2759 1.7586 0.0000
0.2759 1.7931 0.0000
0.2759 1.8276 0.0000
0.2759 1.8621 0.0000
0.2759 1.8966 0.0000
0.2759 1.9310 0.0000
0.2759 1.9655 0.0000
0.2759 2.0000 0.0000
0.3448 1.0000 0.0000
0.3448 1.0345 0.0000
0.3448 1.0690 0.0000
0.3448 1.1034 0.0000
0.3448 1.1379 0.0000
0.3448 1.1724 0.0000
0.3448 1.2069 0.0000
0.3448 1.2414 0.0000
0.3448 1.2759 0.0000
0.3448 1.3103 0.0000
0.3448 1.3448 0.0000
0.3448 1.3793 0.0000
0.3448 1.4138 0.0000
0.3448 1.4483 0.0000
0.3448 1.4828 0.0000
0.3448 1.5172 0.0000
0.3448 1.5517 0.0000
0.3448 1.5862 0.0000
0.3448 1.6207 0.0000
0.3448 1.6552 0.0000
0.3448 1.6897 0.0000
0.3448 1.7241 0.0000
0.3448 1.7586 0.0000
0.3448 1.7931 0.0000
0.3448 1.8276 0.0000
0.3448 1.8621 0.0000
0.3448 1.8966 0.0000
0.3448 1.9310 0.0000
0.3448 1.9655 0.0000
0.3448 2.0000 0.0000
0.4138 1.0000 0.0000
0.4138 1.0345 0.0000
0.4138 1.0690 0.0000
0.4138 1.1034 0.0000
0.4138 1.1379 0.0000
0.4138 1.1724 0.0000
0.4138 1.2069 0.0000
0.4138 1.2414 0.0000
0.4138 1.2759 0.0000
0.4138 1.3103 0.0000
0.4138 1.3448 0.0000
0.4138 1.3793 0.0000
0.4138 1.4138 0.0000
0.4138 1.4483 0.0000
0.4138 1.4828 0.0000
0.4138 1.5172 0.0000
0.4138 1.5517 0.0000
0.4138 1.5862 0.0000
0.4138 1.6207 0.0000
0.4138 1.6552 0.0000
0.4138 1.6897 0.0000
0.4138 1.7241 0.0000
0.4138 1.7586 0.0000
0.4138 1.7931 0.0000
0.4138 1.8276 0.0000
0.4138 1.8621 0.0000
0.4138 1.8966 0.0000
0.4138 1.9310 0.0000
0.4138 1.9655 0.0000
0.4138 2.0000 0.0000
0.4828 1.0000 0.0000
0.4828 1.0345 0.0000
0.4828 1.0690 0.0000
0.4828 1.1034 0.0000
0.4828 1.1379 0.0000
0.4828 1.1724 0.0000
0.4828 1.2069 0.0000
0.4828 1.2414 0.0000
0.4828 1.2759 0.0000
0.4828 1.3103 0.0000
0.4828 1.3448 0.0000
0.4828 1.3793 0.0000
0.4828 1.4138 0.0000
0.4828 1.4483 0.0000
0.4828 1.4828 0.0000
0.4828 1.5172 0.0000
0.4828 1.5517 0.0000
0.4828 1.5862 0.0000
0.4828 1.6207 0.0000
0.4828 1.6552 0.0000
0.4828 1.6897 0.0000
0.4828 1.7241 0.0000
0.4828 1.7586 0.0000
0.4828 1.7931 0.0000
0.4828 1.8276 0.0000
0.4828 1.8621 0.0000
0.4828 1.8966 0.0000
0.4828 1.9310 0.0000
0.4828 1.9655 0.0000
0.4828 2.0000 0.0000
0.5517 1.0000 0.0000
0.5517 1.0345 0.0000
0.5517 1.0690 0.0000
0.5517 1.1034 0.0000
0.5517 1.1379 0.0000
0.5517 1.1724 0.0000
0.5517 1.2069 0.0000
0.5517 1.2414 0.0000
0.5517 1.2759 0.0000
0.5517 1.3103 0.0000
0.5517 1.3448 0.0000
0.5517 1.3793 0.0000
0.5517 1.4138 0.0000
0.5517 1.4483 0.0000
0.5517 1.4828 0.0000
0.5517 1.5172 0.0000
0.5517 1.5517 0.0000
0.5517 1.5862 0.0000
0.5517 1.6207 0.0000
0.5517 1.6552 0.0000
0.5517 1.6897 0.0000
0.5517 1.7241 0.0000
0.5517 1.7586 0.0000
0.5517 1.7931 0.0000
0.5517 1.8276 0.0000
0.5517 1.8621 0.0000
0.5517 1.8966 0.0000
0.5517 1.9310 0.0000
0.5517 1.9655 0.0000
0.5517 2.0000 0.0000
0.6207 1.0000 0.0000
0.6207 1.0345 0.0000
0.6207 1.0690 0.0000
0.6207 1.1034 0.0000
0.6207 1.1379 0.0000
0.6207 1.1724 0.0000
0.6207 1.2069 0.0000
0.6207 1.2414 0.0000
0.6207 1.2759 0.0000
0.6207 1.3103 0.0000
0.6207 1.3448 0.0000
0.6207 1.3793 0.0000
0.6207 1.4138 0.0000
0.6207 1.4483 0.0000
0.6207 1.4828 0.0000
0.6207 1.5172 0.0000
0.6207 1.5517 0.0000
0.6207 1.5862 0.0000
0.6207 1.6207 0.0000
0.6207 1.6552 0.0000
0.6207 1.6897 0.0000
0.6207 1.7241 0.0000
0.6207 1.7586 0.0000
0.6207 1.7931 0.0000
0.6207 1.8276 0.0000
0.6207 1.8621 0.0000
0.6207 1.8966 0.0000
0.6207 1.9310 0.0000
0.6207 1.9655 0.0000
0.6207 2.0000 0.0000
0.6897 1.0000 0.0000
0.6897 1.0345 0.0000
0.6897 1.0690 0.0000
0.6897 1.1034 0.0000
0.6897 1.1379 0.0000
0.6897 1.1724 0.0000
0.6897 1.2069 0.0000
0.6897 1.2414 0.0000
0.6897 1.2759 0.0000
0.6897 1.3103 0.0000
0.6897 1.3448 0.0000
0.6897 1.3793 0.0000
0.6897 1.4138 0.0000
0.6897 1.4483 0.0000
0.6897 1.4828 0.0000
0.6897 1.5172 0.0000
0.6897 1.5517 0.0000
0.6897 1.5862 0.0000
0.6897 1.6207 0.0000
0.6897 1.6552 0.0000
0.6897 1.6897 0.0000
0.6897 1.7241 0.0000
0.6897 1.7586 0.0000
0.6897 1.7931 0.0000
0.6897 1.8276 0.0000
0.6897 1.8621 0.0000
0.6897 1.8966 0.0000
0.6897 1.9310 0.0000
0.6897 1.9655 0.0000
0.6897 2.0000 0.0000
0.7586 1.0000 0.0000
0.7586 1.0345 0.0000
0.7586 1.0690 0.0000
0.7586 1.1034 0.0000
0.7586 1.1379 0.0000
0.7586 1.1724 0.0000
0.7586 1.2069 0.0000
0.7586 1.2414 0.0000
0.7586 1.2759 0.0000
0.7586 1.3103 0.0000
0.7586 1.3448 0.0000
0.7586 1.3793 0.0000
0.7586 1.4138 0.0000
0.7586 1.4483 0.0000
0.7586 1.4828 0.0000
0.7586 1.5172 0.0000
0.7586 1.5517 0.0000
0.7586 1.5862 0.0000
0.7586 1.6207 0.0000
0.7586 1.6552 0.0000
0.7586 1.6897 0.0000
0.7586 1.7241 0.0000
0.7586 1.7586 0.0000
0.7586 1.7931 0.0000
0.7586 1.8276 0.0000
0.7586 1.8621 0.0000
0.7586 1.8966 0.0000
0.7586 1.9310 0.0000
0.7586 1.9655 0.0000
0.7586 2.0000 0.0000
0.8276 1.0000 0.0000
0.8276 1.0345 0.0000
0.8276 1.0690 0.0000
0.8276 1.1034 0.0000
0.8276 1.1379 0.0000
0.8276 1.1724 0.0000
0.8276 1.2069 0.0000
0.8276 1.2414 0.0000
0.8276 1.2759 0.0000
0.8276 1.3103 0.0000
0.8276 1.3448 0.0000
0.8276 1.3793 0.0000
0.8276 1.4138 0.0000
0.8276 1.4483 0.0000
0.8276 1.4828 0.0000
0.8276 1.5172 0.0000
0.8276 1.5517 0.0000
0.8276 1.5862 0.0000
0.8276 1.6207 0.0000
0.8276 1.6552 0.0000
0.8276 1.6897 0.0000
0.8276 1.7241 0.0000
0.8276 1.7586 0.0000
0.8276 1.7931 0.0000
0.8276 1.8276 0.0000
0.8276 1.8621 0.0000
0.8276 1.8966 0.0000
0.8276 1.9310 0.0000
0.8276 1.9655 0.0000
0.8276 2.0000 0.0000
0.8966 1.0000 0.0000
0.8966 1.0345 0.0000
0.8966 1.0690 0.0000
0.8966 1.1034 0.0000
0.8966 1.1379 0.0000
0.8966 1.1724 0.0000
0.8966 1.2069 0.0000
0.8966 1.2414 0.0000
0.8966 1.2759 0.0000
0.8966 1.3103 0.0000
0.8966 1.3448 0.0000
0.8966 1.3793 0.0000
0.8966 1.4138 0.0000
0.8966 1.4483 0.0000
0.8966 1.4828 0.0000
0.8966 1.5172 0.0000
0.8966 1.5517 0.0000
0.8966 1.5862 0.0000
0.8966 1.6207 0.0000
0.8966 1.6552 0.0000
0.8966 1.6897 0.0000
0.8966 1.7241 0.0000
0.8966 1.7586 0.0000
0.8966 1.7931 0.0000
0.8966 1.8276 0.0000
0.8966 1.8621 0.0000
0.8966 1.8966 0.0000
0.8966 1.9310 0.0000
0.8966 1.9655 0.0000
0.8966 2.0000 0.0000
0.9655 1.0000 0.0000
0.9655 1.0345 0.0000
0.9655 1.0690 0.0000
0.9655 1.1034 0.0000
0.9655 1.1379 0.0000
0.9655 1.1724 0.0000
0.9655 1.2069 0.0000
0.9655 1.2414 0.0000
0.9655 1.2759 0.0000
0.9655 1.3103 0.0000
0.9655 1.3448 0.0000
0.9655 1.3793 0.0000
0.9655 1.4138 0.0000
0.9655 1.4483 0.0000
0.9655 1.4828 0.0000
0.9655 1.5172 0.0000
0.9655 1.5517 0.0000
0.9655 1.5862 0.0000
0.9655 1.6207 0.0000
0.9655 1.6552 0.0000
0.9655 1.6897 0.0000
0.9655 1.7241 0.0000
0.9655 1.7586 0.0000
0.9655 1.7931 0.0000
0.9655 1.8276 0.0000
0.9655 1.8621 0.0000
0.9655 1.8966 0.0000
0.9655 1.9310 0.0000
0.9655 1.9655 0.0000
0.9655 2.0000 0.0000
1.0345 1.0000 0.0000
1.0345 1.0345 0.0000
1.0345 1.0690 0.0000
1.0345 1.1034 0.0000
1.0345 1.1379 0.0000
1.0345 1.1724 0.0000
1.0345 1.2069 0.0000
1.0345 1.2414 0.0000
1.0345 1.2759 0.0000
1.0345 1.3103 0.0000
1.0345 1.3448 0.0000
[...]
         <PointData>
            <DataArray Name="fValues" NumberOfComponents="3" format="ascii" type="Float64">
 2.56727e-20 -7.74174e-20        00000 
 1.37986e-19  6.89929e-20        00000 
-6.82254e-20 -7.39109e-20        00000 
 1.64297e-20  1.07507e-19        00000 
-1.36451e-19 -1.42136e-19        00000 
 1.18922e-19  1.39523e-19        00000 
-4.54836e-20 -5.68545e-20        00000 
-1.66440e-19 -2.17872e-20        00000 
 1.13709e-20  1.13709e-20        00000 
 3.52633e-20 -1.43887e-20        00000 
 1.70564e-20  5.68545e-21        00000 
 9.71496e-20 -1.57154e-20        00000 
 5.68545e-20 -9.09672e-20        00000 
 2.48557e-20 -2.08773e-20        00000 
 1.13709e-19 -1.02338e-19        00000 
 2.00014e-20  2.60732e-20        00000 
 8.52818e-21 -1.08024e-19        00000 
 3.77610e-20 -4.63727e-20        00000 
 8.52818e-21  4.54836e-20        00000 
-1.24116e-20 -3.53596e-20        00000 
 2.41632e-20  6.82254e-20        00000 
-2.69490e-21 -6.70972e-20        00000 
-2.84273e-21  3.97982e-20        00000 
-1.28580e-20 -1.17865e-20        00000 
 4.26409e-21  5.11691e-20        00000 
 1.23010e-21 -1.53384e-19        00000 
-1.06602e-20  6.25400e-20        00000 
 9.79570e-21 -2.89845e-20        00000 
 1.79194e-21  6.45099e-21        00000 
 7.07316e-21 -1.66550e-20        00000 
 1.40208e-03  1.30412e-03        00000 
 1.01297e-03  1.02588e-03        00000 
 8.62642e-04  8.43638e-04        00000 
 7.91168e-04  7.06869e-04        00000 
 7.59106e-04  5.85832e-04        00000 
 7.47200e-04  4.65322e-04        00000 
 7.43048e-04  3.38775e-04        00000 
 7.38014e-04  2.05527e-04        00000 
 7.26160e-04  6.83814e-05        00000 
 7.04034e-04 -6.74565e-05        00000 
 6.70305e-04 -1.96289e-04        00000 
 6.25454e-04 -3.12338e-04        00000 
 5.71404e-04 -4.11177e-04        00000 
 5.10931e-04 -4.89660e-04        00000 
 4.47329e-04 -5.46625e-04        00000 
 3.83782e-04 -5.82483e-04        00000 
 3.23142e-04 -5.99199e-04        00000 
 2.67544e-04 -5.99738e-04        00000 
 2.18372e-04 -5.87660e-04        00000 
 1.76218e-04 -5.66638e-04        00000 
 1.41022e-04 -5.40084e-04        00000 
 1.12268e-04 -5.10893e-04        00000 
 8.92212e-05 -4.81301e-04        00000 
 7.11941e-05 -4.52888e-04        00000 
 5.78619e-05 -4.26683e-04        00000 
 4.97045e-05 -4.03430e-04        00000 
 4.88182e-05 -3.84094e-04        00000 
 6.08134e-05 -3.70918e-04        00000 
 1.00517e-04 -3.69774e-04        00000 
 2.24815e-04 -3.93986e-04        00000 
 2.36412e-03  2.08994e-03        00000 
 2.03104e-03  1.89536e-03        00000 
 1.80645e-03  1.68249e-03        00000 
 1.69817e-03  1.46986e-03        00000 
 1.66336e-03  1.24863e-03        00000 
 1.66695e-03  1.01040e-03        00000 
 1.68150e-03  7.53538e-04        00000 
 1.68590e-03  4.81867e-04        00000 
 1.66614e-03  2.05015e-04        00000 
 1.61428e-03 -6.61733e-05        00000 
 1.52842e-03 -3.18706e-04        00000 
 1.41161e-03 -5.42482e-04        00000 
 1.27040e-03 -7.28518e-04        00000 
 1.11395e-03 -8.72643e-04        00000 
 9.51794e-04 -9.73404e-04        00000 
 7.93307e-04 -1.03350e-03        00000 
 6.45910e-04 -1.05788e-03        00000 
 5.14987e-04 -1.05344e-03        00000 
 4.03337e-04 -1.02765e-03        00000 
 3.11562e-04 -9.87795e-04        00000 
 2.38510e-04 -9.40324e-04        00000 
 1.81932e-04 -8.90488e-04        00000 
 1.39161e-04 -8.42284e-04        00000 
 1.07742e-04 -7.98565e-04        00000 
 8.60358e-05 -7.61273e-04        00000 
 7.39287e-05 -7.31717e-04        00000 
 7.38948e-05 -7.10835e-04        00000 
 9.28062e-05 -6.99175e-04        00000 
 1.44910e-04 -6.95420e-04        00000 
 2.40222e-04 -6.88062e-04        00000 
 3.14568e-03  2.85092e-03        00000 
 2.83287e-03  2.69109e-03        00000 
 2.66884e-03  2.50584e-03        00000 
 2.62934e-03  2.27058e-03        00000 
 2.67639e-03  1.97773e-03        00000 
 2.76297e-03  1.62822e-03        00000 
 2.84407e-03  1.22914e-03        00000 
 2.88598e-03  7.98932e-04        00000 
 2.86442e-03  3.56249e-04        00000 
 2.76901e-03 -7.11990e-05        00000 
 2.60009e-03 -4.64199e-04        00000 
 2.36763e-03 -7.99741e-04        00000 
 2.08980e-03 -1.06835e-03        00000 
 1.78674e-03 -1.26182e-03        00000 
 1.48107e-03 -1.38394e-03        00000 
 1.19084e-03 -1.44143e-03        00000 
 9.30902e-04 -1.44687e-03        00000 
 7.09346e-04 -1.41377e-03        00000 
 5.29154e-04 -1.35558e-03        00000 
 3.88671e-04 -1.28400e-03        00000 
 2.83237e-04 -1.20822e-03        00000 
 2.06826e-04 -1.13492e-03        00000 
 1.53282e-04 -1.06867e-03        00000 
 1.17151e-04 -1.01229e-03        00000 
 9.42406e-05 -9.67285e-04        00000 
 8.20919e-05 -9.33931e-04        00000 
 8.04044e-05 -9.11241e-04        00000 
 9.11774e-05 -8.96381e-04        00000 
 1.16916e-04 -8.83544e-04        00000 
 1.60987e-04 -8.65429e-04        00000 
 3.65956e-03  3.66080e-03        00000 
 3.38595e-03  3.57641e-03        00000 
 3.36611e-03  3.43100e-03        00000 
 3.52891e-03  3.18457e-03        00000 
 3.79467e-03  2.81929e-03        00000 
 4.07945e-03  2.33458e-03        00000 
 4.31640e-03  1.75617e-03        00000 
 4.44354e-03  1.10787e-03        00000 
 4.43056e-03  4.47592e-04        00000 
 4.26164e-03 -1.94683e-04        00000 
 3.94748e-03 -7.56398e-04        00000 
 3.51878e-03 -1.22227e-03        00000 
 3.01274e-03 -1.55698e-03        00000 
 2.48117e-03 -1.77012e-03        00000 
 1.96246e-03 -1.86469e-03        00000 
 1.49557e-03 -1.86768e-03        00000 
 1.09928e-03 -1.80384e-03        00000 
 7.83011e-04 -1.69995e-03        00000 
 5.43560e-04 -1.57802e-03        00000 
 3.70604e-04 -1.45358e-03        00000 
 2.51319e-04 -1.33647e-03        00000 
 1.73123e-04 -1.23240e-03        00000 
 1.24897e-04 -1.14437e-03        00000 
 9.73521e-05 -1.07352e-03        00000 
 8.30005e-05 -1.01970e-03        00000 
 7.59836e-05 -9.81545e-04        00000 
 7.18570e-05 -9.56268e-04        00000 
 6.71758e-05 -9.39384e-04        00000 
 5.94405e-05 -9.24665e-04        00000 
 4.66745e-05 -9.03839e-04        00000 
 3.64863e-03  4.49703e-03        00000 
 3.51833e-03  4.55015e-03        00000 
 3.80489e-03  4.49168e-03        00000 
 4.36578e-03  4.25941e-03        00000 
 5.05276e-03  3.81874e-03        00000 
 5.74087e-03  3.17168e-03        00000 
 6.27587e-03  2.32023e-03        00000 
 6.58628e-03  1.37124e-03        00000 
 6.58351e-03  3.44368e-04        00000 
 6.27204e-03 -5.81440e-04        00000 
 5.68283e-03 -1.40959e-03        00000 
 4.87969e-03 -1.98954e-03        00000 
 3.98260e-03 -2.37163e-03        00000 
 3.06580e-03 -2.50917e-03        00000 
 2.24312e-03 -2.48214e-03        00000 
 1.54967e-03 -2.32895e-03        00000 
 1.01922e-03 -2.11434e-03        00000 
 6.39682e-04 -1.88472e-03        00000 
 3.82658e-04 -1.66655e-03        00000 
 2.18134e-04 -1.47226e-03        00000 
 1.20383e-04 -1.30620e-03        00000 
 6.91277e-05 -1.16864e-03        00000 
 4.88340e-05 -1.05814e-03        00000 
 4.74294e-05 -9.72661e-04        00000 
 5.50507e-05 -9.09952e-04        00000 
 6.30855e-05 -8.67318e-04        00000 
 6.34169e-05 -8.41241e-04        00000 
 4.83003e-05 -8.26708e-04        00000 
 1.04061e-05 -8.16911e-04        00000 
-5.67987e-05 -8.02979e-04        00000 
 2.74793e-03  5.09494e-03        00000 
 2.95759e-03  5.37055e-03        00000 
 3.74841e-03  5.51292e-03        00000 
 4.98425e-03  5.44312e-03        00000 
 6.46662e-03  5.03471e-03        00000 
 7.88619e-03  4.20135e-03        00000 
 9.10914e-03  3.04597e-03        00000 
 9.74243e-03  1.46903e-03        00000 
 9.79778e-03 -2.64395e-05        00000 
 9.16261e-03 -1.62041e-03        00000 
 7.95908e-03 -2.67500e-03        00000 
 6.44311e-03 -3.49228e-03        00000 
 4.74450e-03 -3.68511e-03        00000 
 3.24589e-03 -3.59810e-03        00000 
 1.96998e-03 -3.20474e-03        00000 
 1.08758e-03 -2.72700e-03        00000 
 5.25789e-04 -2.27246e-03        00000 
 1.91159e-04 -1.88131e-03        00000 
 6.86170e-06 -1.56021e-03        00000 
-8.12068e-05 -1.30265e-03        00000 
-1.09014e-04 -1.09838e-03        00000 
-9.98232e-05 -9.37481e-04        00000 
-6.87517e-05 -8.11945e-04        00000 
-2.63986e-05 -7.16115e-04        00000 
 1.82306e-05 -6.46395e-04        00000 
 5.56516e-05 -6.00314e-04        00000 
 7.52419e-05 -5.75122e-04        00000 
 6.43552e-05 -5.67135e-04        00000 
 9.46322e-06 -5.69521e-04        00000 
-1.02174e-04 -5.72624e-04        00000 
 7.35442e-04  4.87404e-03        00000 
 1.43296e-03  5.40765e-03        00000 
 2.69375e-03  5.92930e-03        00000 
 4.69295e-03  6.41200e-03        00000 
 7.53731e-03  6.59127e-03        00000 
 1.08403e-02  5.93783e-03        00000 
 1.32697e-02  4.02383e-03        00000 
 1.51230e-02  1.92529e-03        00000 
 1.51022e-02 -1.41397e-03        00000 
 1.36945e-02 -3.41838e-03        00000 
 1.11330e-02 -5.70892e-03        00000 
 7.70414e-03 -5.94786e-03        00000 
 4.75060e-03 -5.95100e-03        00000 
 2.01345e-03 -4.80781e-03        00000 
 5.65889e-04 -3.67923e-03        00000 
-1.50084e-04 -2.76688e-03        00000 
-4.59692e-04 -2.07976e-03        00000 
-5.56371e-04 -1.57304e-03        00000 
-5.44835e-04 -1.20031e-03        00000 
-4.81516e-04 -9.23953e-04        00000 
-3.95937e-04 -7.15924e-04        00000 
-3.02497e-04 -5.56216e-04        00000 
-2.07271e-04 -4.31298e-04        00000 
-1.12474e-04 -3.33014e-04        00000 
-2.02273e-05 -2.57957e-04        00000 
 6.32774e-05 -2.06770e-04        00000 
 1.24277e-04 -1.81654e-04        00000 
 1.44995e-04 -1.81145e-04        00000 
 1.01229e-04 -2.02828e-04        00000 
-3.39263e-05 -2.34783e-04        00000 
-1.89809e-03  3.29817e-03        00000 
-9.97442e-04  3.93229e-03        00000 
 7.14326e-05  4.84474e-03        00000 
 2.07739e-03  6.17587e-03        00000 
 5.93817e-03  7.84869e-03        00000 
 1.26470e-02  9.23834e-03        00000 
 2.16515e-02  8.23419e-03        00000 
 2.46337e-02  1.48640e-03        00000 
 2.60098e-02 -1.94708e-03        00000 
 2.20829e-02 -9.97733e-03        00000 
 1.46823e-02 -1.01862e-02        00000 
 7.85376e-03 -1.20391e-02        00000 
 3.58528e-05 -7.67630e-03        00000 
-1.77776e-03 -4.93796e-03        00000 
-2.17714e-03 -3.20458e-03        00000 
-2.03956e-03 -2.11475e-03        00000 
-1.74547e-03 -1.40592e-03        00000 
-1.42570e-03 -9.31308e-04        00000 
-1.13064e-03 -6.04407e-04        00000 
-8.76447e-04 -3.72334e-04        00000 
-6.63960e-04 -2.01611e-04        00000 
-4.86779e-04 -7.05394e-05        00000 
-3.35052e-04  3.50957e-05        00000 
-1.97350e-04  1.24204e-04        00000 
-6.22411e-05  2.00786e-04        00000 
 7.81910e-05  2.62346e-04        00000 
 2.17547e-04  2.96791e-04        00000 
 3.16649e-04  2.86736e-04        00000 
 3.36534e-04  2.41554e-04        00000 
 2.29861e-04  1.62656e-04        00000 
-3.72410e-03  1.20539e-03        00000 
-3.64681e-03  1.59228e-03        00000 
-3.74214e-03  2.30667e-03        00000 
-3.26326e-03  3.54530e-03        00000 
-1.05907e-03  5.88325e-03        00000 
 5.53470e-03  1.00881e-02        00000 
 2.27223e-02  1.63754e-02        00000 
 5.80519e-02  1.80273e-02        00000 
 5.29913e-02 -1.52459e-02        00000 
 4.00012e-02 -1.67267e-02        00000 
 1.84040e-02 -3.27854e-02        00000 
-1.32475e-02 -1.06922e-02        00000 
-9.17745e-03 -5.52809e-03        00000 
-7.06971e-03 -3.04753e-03        00000 
-5.24730e-03 -1.77166e-03        00000 
-3.91303e-03 -9.88813e-04        00000 
-2.90664e-03 -4.80699e-04        00000 
-2.14884e-03 -1.38561e-04        00000 
-1.58043e-03  9.88822e-05        00000 
-1.15589e-03  2.68511e-04        00000 
-8.38747e-04  3.92677e-04        00000 
-5.99293e-04  4.85391e-04        00000 
-4.12225e-04  5.56231e-04        00000 
-2.54214e-04  6.12821e-04        00000 
-1.01195e-04  6.62300e-04        00000 
 7.49677e-05  7.11165e-04        00000 
 3.08222e-04  7.59063e-04        00000 
 6.06680e-04  7.71679e-04        00000 
 8.06694e-04  6.55362e-04        00000 
 7.98542e-04  4.95163e-04        00000 
-4.29126e-03  2.18860e-03        00000 
-5.59326e-03  2.18955e-03        00000 
-6.93136e-03  1.89378e-03        00000 
-8.75017e-03  1.59149e-03        00000 
-1.03424e-02  1.30052e-03        00000 
-1.01725e-02  1.39014e-03        00000 
-3.18263e-03  4.08831e-03        00000 
 3.90540e-02  1.93881e-02        00000 
 2.40097e-01  4.82253e-02        00000 
 9.99520e-02 -1.14341e-01        00000 
-1.05199e-01 -4.06835e-03        00000 
-2.65249e-02 -6.79668e-03        00000 
-1.78853e-02 -4.07906e-03        00000 
-1.12092e-02 -2.25949e-03        00000 
-7.60381e-03 -9.51363e-04        00000 
-5.24271e-03 -1.66132e-04        00000 
-3.66299e-03  3.13116e-04        00000 
-2.57583e-03  6.26809e-04        00000 
-1.81565e-03  8.47315e-04        00000 
-1.27729e-03  1.00742e-03        00000 
-8.91584e-04  1.12130e-03        00000 
-6.10392e-04  1.19430e-03        00000 
-3.97416e-04  1.22710e-03        00000 
-2.21982e-04  1.21759e-03        00000 
-5.40557e-05  1.16238e-03        00000 
 1.41330e-04  1.06038e-03        00000 
 4.14777e-04  9.26935e-04        00000 
 8.68229e-04  8.35278e-04        00000 
 1.60887e-03  8.86800e-04        00000 
 1.77590e-03  6.79436e-04        00000 
-7.24717e-03  6.34132e-03        00000 
-7.42243e-03  7.83822e-03        00000 
-1.04439e-02  9.85901e-03        00000 
-1.53975e-02  1.24917e-02        00000 
-2.25092e-02  1.67396e-02        00000 
-3.26071e-02  2.35428e-02        00000 
-4.60761e-02  3.08615e-02        00000 
-6.15717e-02  2.01635e-02        00000 
 3.90699e-02 -4.05396e-02        00000 
-4.05949e-03  3.88536e-02        00000 
-9.51126e-02 -5.87030e-02        00000 
-1.53239e-02 -1.69108e-02        00000 
-1.19768e-02 -4.44904e-03        00000 
-6.24463e-03 -1.37116e-03        00000 
-3.83194e-03 -5.96712e-04        00000 
-2.45224e-03 -3.59427e-04        00000 
-1.63861e-03 -2.48787e-04        00000 
-1.11683e-03 -1.76058e-04        00000 
-7.67823e-04 -1.21942e-04        00000 
-5.27775e-04 -8.11706e-05        00000 
-3.59315e-04 -5.11569e-05        00000 
-2.38102e-04 -3.03573e-05        00000 
-1.46488e-04 -1.82223e-05        00000 
-6.95987e-05 -1.56405e-05        00000 
 7.93238e-06 -2.65192e-05        00000 
 1.05491e-04 -6.18074e-05        00000 
 2.46983e-04 -1.40942e-04        00000 
 4.55274e-04 -2.41723e-04        00000 
 6.74179e-04 -1.11436e-04        00000 
 1.29843e-03  5.90156e-04        00000 
-4.73945e-03  2.95848e-03        00000 
-4.00930e-03  1.72497e-03        00000 
-4.86329e-03  2.39711e-03        00000 
-7.50291e-03  3.53949e-03        00000 
-1.22532e-02  5.91898e-03        00000 
-2.15843e-02  1.21507e-02        00000 
-4.05595e-02  2.82306e-02        00000 
-7.75412e-02  5.21542e-02        00000 
-5.41056e-02  8.54854e-03        00000 
-5.23720e-02 -7.44034e-02        00000 
-4.53183e-02 -4.22977e-02        00000 
 6.71838e-03  3.75566e-03        00000 
 2.46094e-03  3.34194e-03        00000 
 1.92152e-03  1.32393e-03        00000 
 1.00665e-03  4.21353e-04        00000 
 5.94872e-04  1.43665e-04        00000 
 3.75283e-04  5.06594e-05        00000 
 2.51084e-04  2.12048e-06        00000 
 1.72236e-04 -3.47869e-05        00000 
 1.18742e-04 -6.51087e-05        00000 
 8.07713e-05 -8.87620e-05        00000 
 5.25695e-05 -1.05084e-04        00000 
 3.00222e-05 -1.13166e-04        00000 
 9.56057e-06 -1.11306e-04        00000 
-1.23000e-05 -9.61975e-05        00000 
-3.73539e-05 -6.38092e-05        00000 
-5.90665e-05 -2.06934e-05        00000 
-4.51514e-05 -1.45345e-05        00000 
-1.09847e-04 -8.50176e-05        00000 
-3.84649e-04 -3.06140e-04        00000 
 1.97952e-03 -2.49668e-03        00000 
 1.16005e-03 -2.37867e-03        00000 
 1.28371e-03 -3.10352e-03        00000 
 2.25328e-03 -4.41248e-03        00000 
 4.18329e-03 -7.21039e-03        00000 
 7.70567e-03 -1.32106e-02        00000 
 1.25820e-02 -2.27378e-02        00000 
 8.44982e-03 -2.35375e-02        00000 
-2.72625e-03  1.59588e-03        00000 
 3.90174e-03  2.96779e-02        00000 
 1.43419e-02  2.77401e-02        00000 
 7.19541e-03  8.33942e-03        00000 
-5.97164e-06 -2.72962e-04        00000 
-4.63662e-04 -7.56935e-04        00000 
-4.03188e-04 -3.33800e-04        00000 
-2.22811e-04 -8.63891e-05        00000 
-1.27343e-04  1.96110e-06        00000 
-7.87402e-05  3.64054e-05        00000 
-5.24486e-05  5.79212e-05        00000 
-3.59458e-05  7.58773e-05        00000 
-2.42374e-05  9.05934e-05        00000 
-1.50140e-05  1.00829e-04        00000 
-6.86552e-06  1.05220e-04        00000 
 1.25780e-06  1.02218e-04        00000 
 9.56956e-06  9.04459e-05        00000 
 1.52432e-05  7.17760e-05        00000 
 8.10342e-06  5.90181e-05        00000 
-1.40914e-05  7.25408e-05        00000 
 5.22625e-06  1.09371e-04        00000 
 1.54100e-04  1.71595e-04        00000 
-1.22572e-03  1.99201e-03        00000 
-4.99754e-04  2.21586e-03        00000 
-6.09663e-04  2.85277e-03        00000 
-1.21967e-03  4.09952e-03        00000 
-2.29552e-03  6.53298e-03        00000 
-3.57359e-03  1.04836e-02        00000 
-2.90264e-03  1.38036e-02        00000 
 2.06343e-03  1.05838e-02        00000 
 6.85292e-03 -1.75266e-03        00000 
 2.63587e-03 -1.35810e-02        00000 
-4.58761e-03 -1.53581e-02        00000 
-4.87369e-03 -8.36492e-03        00000 
-1.89169e-03 -2.29757e-03        00000 
-2.15334e-04 -1.37089e-04        00000 
 1.06515e-04  1.28348e-04        00000 
 1.13717e-04  5.22718e-05        00000 
 6.99638e-05 -1.12440e-05        00000 
 4.16052e-05 -3.97358e-05        00000 
 2.63474e-05 -5.46462e-05        00000 
 1.76103e-05 -6.58745e-05        00000 
 1.16269e-05 -7.51164e-05        00000 
 6.73694e-06 -8.15227e-05        00000 
 2.15317e-06 -8.38570e-05        00000 
-2.36901e-06 -8.11099e-05        00000 
-6.01380e-06 -7.34402e-05        00000 
-5.68800e-06 -6.45333e-05        00000 
 2.85122e-06 -6.31072e-05        00000 
 1.63412e-05 -7.60809e-05        00000 
 4.29462e-06 -9.37010e-05        00000 
-8.22349e-05 -1.08631e-04        00000 
 9.67068e-04 -1.66639e-03        00000 
 3.59674e-04 -1.97234e-03        00000 
 4.65406e-04 -2.55958e-03        00000 
 9.04024e-04 -3.64629e-03        00000 
 1.46880e-03 -5.44860e-03        00000 
 1.60879e-03 -7.59309e-03        00000 
 2.43142e-04 -8.36014e-03        00000 
-2.76611e-03 -5.38537e-03        00000 
-4.64327e-03  1.15585e-03        00000 
-2.47934e-03  7.14860e-03        00000 
 1.32440e-03  8.92967e-03        00000 
 2.66319e-03  6.36393e-03        00000 
 1.72940e-03  2.89732e-03        00000 
 6.11807e-04  8.50865e-04        00000 
 9.69249e-05  1.51301e-04        00000 
-3.10066e-05  2.11464e-05        00000 
-4.03183e-05  2.37967e-05        00000 
-2.80857e-05  3.81852e-05        00000 
-1.81893e-05  4.78024e-05        00000 
-1.19861e-05  5.48120e-05        00000 
-7.76276e-06  6.04720e-05        00000 
-4.32840e-06  6.43269e-05        00000 
-1.16903e-06  6.54813e-05        00000 
 1.64002e-06  6.34407e-05        00000 
 3.16920e-06  5.90165e-05        00000 
 1.57562e-06  5.53402e-05        00000 
-4.31085e-06  5.71792e-05        00000 
-1.08258e-05  6.59882e-05        00000 
-1.45995e-06  7.36440e-05        00000 
 5.31593e-05  7.52923e-05        00000 
-8.35557e-04  1.43046e-03        00000 
-3.13128e-04  1.73136e-03        00000 
-3.90626e-04  2.25059e-03        00000 
-6.74727e-04  3.10928e-03        00000 
-8.98357e-04  4.29828e-03        00000 
-6.68497e-04  5.34971e-03        00000 
 4.15269e-04  5.23314e-03        00000 
 2.02407e-03  3.05239e-03        00000 
 2.77914e-03 -7.09533e-04        00000 
 1.68294e-03 -4.12174e-03        00000 
-2.71794e-04 -5.47483e-03        00000 
-1.35100e-03 -4.53564e-03        00000 
-1.21509e-03 -2.64458e-03        00000 
-6.37739e-04 -1.13757e-03        00000 
-2.16897e-04 -3.79127e-04        00000 
-3.77562e-05 -1.14239e-04        00000 
 1.12211e-05 -4.95971e-05        00000 