<?xml version="1.0" encoding="utf-8"?>
<VTKFile byte_order="LittleEndian" type="UnstructuredGrid" version="0.1">
   <UnstructuredGrid>
      <Piece NumberOfCells="3364" NumberOfPoints="1741">
         <Points>
            <DataArray Name="Points" NumberOfComponents="3" format="ascii" type="Float32">
0.0000 1.0000 0.0000
0.0000 1.0345 0.0000
0.0000 1.0690 0.0000
0.0000 1.1034 0.0000
0.0000 1.1379 0.0000
0.0000 1.1724 0.0000
0.0000 1.2069 0.0000
0.0000 1.2414 0.0000
0.0000 1.2759 0.0000
0.0000 1.3103 0.0000
0.0000 1.3448 0.0000
0.0000 1.3793 0.0000
0.0000 1.4138 0.0000
0.0000 1.4483 0.0000
0.0000 1.4828 0.0000
0.0000 1.5172 0.0000
0.0000 1.5517 0.0000
0.0000 1.5862 0.0000
0.0000 1.6207 0.0000
0.0000 1.6552 0.0000
0.0000 1.6897 0.0000
0.0000 1.7241 0.0000
0.0000 1.7586 0.0000
0.0000 1.7931 0.0000
0.0000 1.8276 0.0000
0.0000 1.8621 0.0000
0.0000 1.8966 0.0000
0.0000 1.9310 0.0000
0.0000 1.9655 0.0000
0.0000 2.0000 0.0000
0.0690 1.0000 0.0000
0.0690 1.0345 0.0000
0.0690 1.0690 0.0000
0.0690 1.1034 0.0000
0.0690 1.1379 0.0000
0.0690 1.1724 0.0000
0.0690 1.2069 0.0000
0.0690 1.2414 0.0000
0.0690 1.2759 0.0000
0.0690 1.3103 0.0000
0.0690 1.3448 0.0000
0.0690 1.3793 0.0000
0.0690 1.4138 0.0000
0.0690 1.4483 0.0000
0.0690 1.4828 0.0000
0.0690 1.5172 0.0000
0.0690 1.5517 0.0000
0.0690 1.5862 0.0000
0.0690 1.6207 0.0000
0.0690 1.6552 0.0000
0.0690 1.6897 0.0000
0.0690 1.7241 0.0000
0.0690 1.7586 0.0000
0.0690 1.7931 0.0000
0.0690 1.8276 0.0000
0.0690 1.8621 0.0000
0.0690 1.8966 0.0000
0.0690 1.9310 0.0000
0.0690 1.9655 0.0000
0.0690 2.0000 0.0000
0.1379 1.0000 0.0000
0.1379 1.0345 0.0000
0.1379 1.0690 0.0000
0.1379 1.1034 0.0000
0.1379 1.1379 0.0000
0.1379 1.1724 0.0000
0.1379 1.2069 0.0000
0.1379 1.2414 0.0000
0.1379 1.2759 0.0000
0.1379 1.3103 0.0000
0.1379 1.3448 0.0000
0.1379 1.3793 0.0000
0.1379 1.4138 0.0000
0.1379 1.4483 0.0000
0.1379 1.4828 0.0000
0.1379 1.5172 0.0000
0.1379 1.5517 0.0000
0.1379 1.5862 0.0000
0.1379 1.6207 0.0000
0.1379 1.6552 0.0000
0.1379 1.6897 0.0000
0.1379 1.7241 0.0000
0.1379 1.7586 0.0000
0.1379 1.7931 0.0000
0.1379 1.8276 0.0000
0.1379 1.8621 0.0000
0.1379 1.8966 0.0000
0.1379 1.9310 0.0000
0.1379 1.9655 0.0000
0.1379 2.0000 0.0000
0.2069 1.0000 0.0000
0.2069 1.0345 0.0000
0.2069 1.0690 0.0000
0.2069 1.1034 0.0000
0.2069 1.1379 0.0000
0.2069 1.1724 0.0000
0.2069 1.2069 0.0000
0.2069 1.2414 0.0000
0.2069 1.2759 0.0000
0.2069 1.3103 0.0000
0.2069 1.3448 0.0000
0.2069 1.3793 0.0000
0.2069 1.4138 0.0000
0.2069 1.4483 0.0000
0.2069 1.4828 0.0000
0.2069 1.5172 0.0000
0.2069 1.5517 0.0000
0.2069 1.5862 0.0000
0.2069 1.6207 0.0000
0.2069 1.6552 0.0000
0.2069 1.6897 0.0000
0.2069 1.7241 0.0000
0.2069 1.7586 0.0000
0.2069 1.7931 0.0000
0.2069 1.8276 0.0000
0.2069 1.8621 0.0000
0.2069 1.8966 0.0000
0.2069 1.9310 0.0000
0.2069 1.9655 0.0000
0.2069 2.0000 0.0000
0.2759 1.0000 0.0000
0.2759 1.0345 0.0000
0.2759 1.0690 0.0000
0.2759 1.1034 0.0000
0.2759 1.1379 0.0000
0.2759 1.1724 0.0000
0.2759 1.2069 0.0000
0.2759 1.2414 0.0000
0.2759 1.2759 0.0000
0.2759 1.3103 0.0000
0.2759 1.3448 0.0000
0.2759 1.3793 0.0000
0.2759 1.4138 0.0000
0.2759 1.4483 0.0000
0.2759 1.4828 0.0000
0.2759 1.5172 0.0000
0.2759 1.5517 0.0000
0.2759 1.5862 0.0000
0.2759 1.6207 0.0000
0.2759 1.6552 0.0000
0.2759 1.6897 0.0000
0.2759 1.7241 0.0000
0.2759 1.7586 0.0000
0.2759 1.7931 0.0000
0.2759 1.8276 0.0000
0.2759 1.8621 0.0000
0.2759 1.8966 0.0000
0.2759 1.9310 0.0000
0.2759 1.9655 0.0000
0.2759 2.0000 0.0000
0.3448 1.0000 0.0000
0.3448 1.0345 0.0000
0.3448 1.0690 0.0000
0.3448 1.1034 0.0000
0.3448 1.1379 0.0000
0.3448 1.1724 0.0000
0.3448 1.2069 0.0000
0.3448 1.2414 0.0000
0.3448 1.2759 0.0000
0.3448 1.3103 0.0000
0.3448 1.3448 0.0000
0.3448 1.3793 0.0000
0.3448 1.4138 0.0000
0.3448 1.4483 0.0000
0.3448 1.4828 0.0000
0.3448 1.5172 0.0000
0.3448 1.5517 0.0000
0.3448 1.5862 0.0000
0.3448 1.6207 0.0000
0.3448 1.6552 0.0000
0.3448 1.6897 0.0000
0.3448 1.7241 0.0000
0.3448 1.7586 0.0000
0.3448 1.7931 0.0000
0.3448 1.8276 0.0000
0.3448 1.8621 0.0000
0.3448 1.8966 0.0000
0.3448 1.9310 0.0000
0.3448 1.9655 0.0000
0.3448 2.0000 0.0000
0.4138 1.0000 0.0000
0.4138 1.0345 0.0000
0.4138 1.0690 0.0000
0.4138 1.1034 0.0000
0.4138 1.1379 0.0000
0.4138 1.1724 0.0000
0.4138 1.2069 0.0000
0.4138 1.2414 0.0000
0.4138 1.2759 0.0000
0.4138 1.3103 0.0000
0.4138 1.3448 0.0000
0.4138 1.3793 0.0000
0.4138 1.4138 0.0000
0.4138 1.4483 0.0000
0.4138 1.4828 0.0000
0.4138 1.5172 0.0000
0.4138 1.5517 0.0000
0.4138 1.5862 0.0000
0.4138 1.6207 0.0000
0.4138 1.6552 0.0000
0.4138 1.6897 0.0000
0.4138 1.7241 0.0000
0.4138 1.7586 0.0000
0.4138 1.7931 0.0000
0.4138 1.8276 0.0000
0.4138 1.8621 0.0000
0.4138 1.8966 0.0000
0.4138 1.9310 0.0000
0.4138 1.9655 0.0000
0.4138 2.0000 0.0000
0.4828 1.0000 0.0000
0.4828 1.0345 0.0000
0.4828 1.0690 0.0000
0.4828 1.1034 0.0000
0.4828 1.1379 0.0000
0.4828 1.1724 0.0000
0.4828 1.2069 0.0000
0.4828 1.2414 0.0000
0.4828 1.2759 0.0000
0.4828 1.3103 0.0000
0.4828 1.3448 0.0000
0.4828 1.3793 0.0000
0.4828 1.4138 0.0000
0.4828 1.4483 0.0000
0.4828 1.4828 0.0000
0.4828 1.5172 0.0000
0.4828 1.5517 0.0000
0.4828 1.5862 0.0000
0.4828 1.6207 0.0000
0.4828 1.6552 0.0000
0.4828 1.6897 0.0000
0.4828 1.7241 0.0000
0.4828 1.7586 0.0000
0.4828 1.7931 0.0000
0.4828 1.8276 0.0000
0.4828 1.8621 0.0000
0.4828 1.8966 0.0000
0.4828 1.9310 0.0000
0.4828 1.9655 0.0000
0.4828 2.0000 0.0000
0.5517 1.0000 0.0000
0.5517 1.0345 0.0000
0.5517 1.0690 0.0000
0.5517 1.1034 0.0000
0.5517 1.1379 0.0000
0.5517 1.1724 0.0000
0.5517 1.2069 0.0000
0.5517 1.2414 0.0000
0.5517 1.2759 0.0000
0.5517 1.3103 0.0000
0.5517 1.3448 0.0000
0.5517 1.3793 0.0000
0.5517 1.4138 0.0000
0.5517 1.4483 0.0000
0.5517 1.4828 0.0000
0.5517 1.5172 0.0000
0.5517 1.5517 0.0000
0.5517 1.5862 0.0000
0.5517 1.6207 0.0000
0.5517 1.6552 0.0000
0.5517 1.6897 0.0000
0.5517 1.7241 0.0000
0.5517 1.7586 0.0000
0.5517 1.7931 0.0000
0.5517 1.8276 0.0000
0.5517 1.8621 0.0000
0.5517 1.8966 0.0000
0.5517 1.9310 0.0000
0.5517 1.9655 0.0000
0.5517 2.0000 0.0000
0.6207 1.0000 0.0000
0.6207 1.0345 0.0000
0.6207 1.0690 0.0000
0.6207 1.1034 0.0000
0.6207 1.1379 0.0000
0.6207 1.1724 0.0000
0.6207 1.2069 0.0000
0.6207 1.2414 0.0000
0.6207 1.2759 0.0000
0.6207 1.3103 0.0000
0.6207 1.3448 0.0000
0.6207 1.3793 0.0000
0.6207 1.4138 0.0000
0.6207 1.4483 0.0000
0.6207 1.4828 0.0000
0.6207 1.5172 0.0000
0.6207 1.5517 0.0000
0.6207 1.5862 0.0000
0.6207 1.6207 0.0000
0.6207 1.6552 0.0000
0.6207 1.6897 0.0000
0.6207 1.7241 0.0000
0.6207 1.7586 0.0000
0.6207 1.7931 0.0000
0.6207 1.8276 0.0000
0.6207 1.8621 0.0000
0.6207 1.8966 0.0000
0.6207 1.9310 0.0000
0.6207 1.9655 0.0000
0.6207 2.0000 0.0000
0.6897 1.0000 0.0000
0.6897 1.0345 0.0000
0.6897 1.0690 0.0000
0.6897 1.1034 0.0000
0.6897 1.1379 0.0000
0.6897 1.1724 0.0000
0.6897 1.2069 0.0000
0.6897 1.2414 0.0000
0.6897 1.2759 0.0000
0.6897 1.3103 0.0000
0.6897 1.3448 0.0000
0.6897 1.3793 0.0000
0.6897 1.4138 0.0000
0.6897 1.4483 0.0000
0.6897 1.4828 0.0000
0.6897 1.5172 0.0000
0.6897 1.5517 0.0000
0.6897 1.5862 0.0000
0.6897 1.6207 0.0000
0.6897 1.6552 0.0000
0.6897 1.6897 0.0000
0.6897 1.7241 0.0000
0.6897 1.7586 0.0000
0.6897 1.7931 0.0000
0.6897 1.8276 0.0000
0.6897 1.8621 0.0000
0.6897 1.8966 0.0000
0.6897 1.9310 0.0000
0.6897 1.9655 0.0000
0.6897 2.0000 0.0000
0.7586 1.0000 0.0000
0.7586 1.0345 0.0000
0.7586 1.0690 0.0000
0.7586 1.1034 0.0000
0.7586 1.1379 0.0000
0.7586 1.1724 0.0000
0.7586 1.2069 0.0000
0.7586 1.2414 0.0000
0.7586 1.2759 0.0000
0.7586 1.3103 0.0000
0.7586 1.3448 0.0000
0.7586 1.3793 0.0000
0.7586 1.4138 0.0000
0.7586 1.4483 0.0000
0.7586 1.4828 0.0000
0.7586 1.5172 0.0000
0.7586 1.5517 0.0000
0.7586 1.5862 0.0000
0.7586 1.6207 0.0000
0.7586 1.6552 0.0000
0.7586 1.6897 0.0000
0.7586 1.7241 0.0000
0.7586 1.7586 0.0000
0.7586 1.7931 0.0000
0.7586 1.8276 0.0000
0.7586 1.8621 0.0000
0.7586 1.8966 0.0000
0.7586 1.9310 0.0000
0.7586 1.9655 0.0000
0.7586 2.0000 0.0000
0.8276 1.0000 0.0000
0.8276 1.0345 0.0000
0.8276 1.0690 0.0000
0.8276 1.1034 0.0000
0.8276 1.1379 0.0000
0.8276 1.1724 0.0000
0.8276 1.2069 0.0000
0.8276 1.2414 0.0000
0.8276 1.2759 0.0000
0.8276 1.3103 0.0000
0.8276 1.3448 0.0000
0.8276 1.3793 0.0000
0.8276 1.4138 0.0000
0.8276 1.4483 0.0000
0.8276 1.4828 0.0000
0.8276 1.5172 0.0000
0.8276 1.5517 0.0000
0.8276 1.5862 0.0000
0.8276 1.6207 0.0000
0.8276 1.6552 0.0000
0.8276 1.6897 0.0000
0.8276 1.7241 0.0000
0.8276 1.7586 0.0000
0.8276 1.7931 0.0000
0.8276 1.8276 0.0000
0.8276 1.8621 0.0000
0.8276 1.8966 0.0000
0.8276 1.9310 0.0000
0.8276 1.9655 0.0000
0.8276 2.0000 0.0000
0.8966 1.0000 0.0000
0.8966 1.0345 0.0000
0.8966 1.0690 0.0000
0.8966 1.1034 0.0000
0.8966 1.1379 0.0000
0.8966 1.1724 0.0000
0.8966 1.2069 0.0000
0.8966 1.2414 0.0000
0.8966 1.2759 0.0000
0.8966 1.3103 0.0000
0.8966 1.3448 0.0000
0.8966 1.3793 0.0000
0.8966 1.4138 0.0000
0.8966 1.4483 0.0000
0.8966 1.4828 0.0000
0.8966 1.5172 0.0000
0.8966 1.5517 0.0000
0.8966 1.5862 0.0000
0.8966 1.6207 0.0000
0.8966 1.6552 0.0000
0.8966 1.6897 0.0000
0.8966 1.7241 0.0000
0.8966 1.7586 0.0000
0.8966 1.7931 0.0000
0.8966 1.8276 0.0000
0.8966 1.8621 0.0000
0.8966 1.8966 0.0000
0.8966 1.9310 0.0000
0.8966 1.9655 0.0000
0.8966 2.0000 0.0000
0.9655 1.0000 0.0000
0.9655 1.0345 0.0000
0.9655 1.0690 0.0000
0.9655 1.1034 0.0000
0.9655 1.1379 0.0000
0.9655 1.1724 0.0000
0.9655 1.2069 0.0000
0.9655 1.2414 0.0000
0.9655 1.2759 0.0000
0.9655 1.3103 0.0000
0.9655 1.3448 0.0000
0.9655 1.3793 0.0000
0.9655 1.4138 0.0000
0.9655 1.4483 0.0000
0.9655 1.4828 0.0000
0.9655 1.5172 0.0000
0.9655 1.5517 0.0000
0.9655 1.5862 0.0000
0.9655 1.6207 0.0000
0.9655 1.6552 0.0000
0.9655 1.6897 0.0000
0.9655 1.7241 0.0000
0.9655 1.7586 0.0000
0.9655 1.7931 0.0000
0.9655 1.8276 0.0000
0.9655 1.8621 0.0000
0.9655 1.8966 0.0000
0.9655 1.9310 0.0000
0.9655 1.9655 0.0000
0.9655 2.0000 0.0000
1.0345 1.0000 0.0000
1.0345 1.0345 0.0000
1.0345 1.0690 0.0000
1.0345 1.1034 0.0000
1.0345 1.1379 0.0000
1.0345 1.1724 0.0000
1.0345 1.2069 0.0000
1.0345 1.2414 0.0000
1.0345 1.2759 0.0000
1.0345 1.3103 0.0000
1.0345 1.3448 0.0000
[...]
         <PointData>
            <DataArray Name="fValues" NumberOfComponents="3" format="ascii" type="Float64">
 4.01591e-30 -1.05069e-29        00000 
-1.60637e-29        00000        00000 
-1.58850e-29 -4.76549e-29        00000 
-4.52388e-29 -2.76755e-28        00000 
 8.47198e-29  6.77759e-28        00000 
-7.12084e-28 -1.92238e-27        00000 
 4.82903e-27  1.35552e-27        00000 
-4.35889e-27  1.66053e-27        00000 
 5.42207e-27 -2.71103e-26        00000 
 7.04296e-26  1.34973e-25        00000 
-5.66606e-25 -4.87986e-26        00000 
 1.26439e-24  3.21547e-25        00000 
-6.94025e-24 -5.46545e-24        00000 
 3.27016e-24  1.90931e-23        00000 
-8.32830e-24 -9.92455e-23        00000 
 2.54185e-23 -4.58340e-23        00000 
 3.55341e-22 -8.88352e-23        00000 
 1.21347e-21  6.53206e-22        00000 
 1.82112e-21 -2.66506e-22        00000 
 1.07150e-21  1.57154e-20        00000 
-7.10681e-21  5.11691e-20        00000 
-2.81589e-20 -6.32871e-20        00000 
-2.45896e-19 -7.39109e-19        00000 
-4.12529e-20 -8.50059e-20        00000 
-8.18705e-19 -9.09672e-19        00000 
-2.17505e-19 -5.44918e-18        00000 
-1.00064e-18  1.63741e-18        00000 
 9.61857e-19 -1.16797e-18        00000 
-1.59841e-19  1.31887e-18        00000 
-6.82070e-19  1.51636e-19        00000 
-2.05995e-14  6.36785e-14        00000 
-9.26012e-14  9.21917e-14        00000 
-2.69922e-13  6.44443e-14        00000 
-5.43650e-13 -4.92795e-13        00000 
-2.74864e-13 -3.12416e-12        00000 
 3.66890e-12 -1.13854e-11        00000 
 2.13380e-11 -2.90984e-11        00000 
 7.48896e-11 -4.26988e-11        00000 
 1.83829e-10  5.29075e-11        00000 
 2.41186e-10  6.70424e-10        00000 
-4.81989e-10  2.94939e-09        00000 
-4.71741e-09  8.88776e-09        00000 
-1.96522e-08  1.80129e-08        00000 
-5.66293e-08  8.55736e-09        00000 
-1.06670e-07 -1.29263e-07        00000 
-1.68720e-08 -7.56846e-07        00000 
 9.19403e-07 -2.66360e-06        00000 
 4.91615e-06 -6.27925e-06        00000 
 1.66956e-05 -5.81338e-06        00000 
 3.91468e-05  3.14526e-05        00000 
 4.00386e-05  2.03818e-04        00000 
-1.78287e-04  6.51298e-04        00000 
-1.28098e-03  1.15553e-03        00000 
-4.60291e-03  7.09826e-05        00000 
-9.76242e-03 -5.44621e-03        00000 
-9.49062e-03 -1.42933e-02        00000 
 4.03550e-03 -1.76695e-02        00000 
 1.27150e-02 -8.90249e-03        00000 
 6.80308e-03 -4.39129e-04        00000 
 2.51024e-03  2.23095e-03        00000 
 8.28505e-15 -1.12050e-13        00000 
 3.93863e-14 -1.69654e-13        00000 
 1.14390e-13 -1.69298e-13        00000 
 2.35367e-13  6.86041e-13        00000 
 1.39796e-13  5.10265e-12        00000 
-1.48734e-12  1.97091e-11        00000 
-8.92273e-12  5.31911e-11        00000 
-3.16998e-11  8.81180e-11        00000 
-7.84084e-11 -4.58437e-11        00000 
-1.03777e-10 -1.05837e-09        00000 
 2.00787e-10 -4.99508e-09        00000 
 1.97083e-09 -1.57080e-08        00000 
 8.08157e-09 -3.37757e-08        00000 
 2.27204e-08 -2.57879e-08        00000 
 4.18396e-08  1.86433e-07        00000 
 1.15897e-08  1.20578e-06        00000 
-2.98316e-07  4.43862e-06        00000 
-1.63123e-06  1.13088e-05        00000 
-6.12934e-06  1.54219e-05        00000 
-1.92282e-05 -2.97176e-05        00000 
-4.70164e-05 -2.94480e-04        00000 
-3.91282e-05 -1.16184e-03        00000 
 4.66530e-04 -2.84560e-03        00000 
 3.35576e-03 -3.14033e-03        00000 
 1.29295e-02  6.72261e-03        00000 
 1.96977e-02  3.32394e-02        00000 
-7.87566e-03  5.36187e-02        00000 
-2.36729e-02  1.45063e-02        00000 
-6.51544e-03 -3.72006e-03        00000 
 6.81570e-04 -6.46606e-03        00000 
 1.10955e-14  1.08951e-13        00000 
 4.86363e-14  1.65995e-13        00000 
 1.38142e-13  1.68499e-13        00000 
 2.74519e-13 -6.57234e-13        00000 
 1.21985e-13 -4.95072e-12        00000 
-1.93442e-12 -1.92042e-11        00000 
-1.10349e-11 -5.19918e-11        00000 
-3.84504e-11 -8.64390e-11        00000 
-9.40278e-11  4.40046e-11        00000 
-1.22929e-10  1.03289e-09        00000 
 2.50644e-10  4.86602e-09        00000 
 2.45634e-09  1.52058e-08        00000 
 1.03466e-08  3.22589e-08        00000 
 3.02040e-08  2.33056e-08        00000 
 5.69304e-08 -1.79038e-07        00000 
 1.29283e-10 -1.12291e-06        00000 
-5.63977e-07 -4.07044e-06        00000 
-2.90995e-06 -1.05171e-05        00000 
-9.15931e-06 -1.67717e-05        00000 
-1.66867e-05  1.05355e-05        00000 
 9.18886e-06  2.17928e-04        00000 
 1.96832e-04  1.08262e-03        00000 
 7.28250e-04  3.67004e-03        00000 
 6.73604e-04  8.27317e-03        00000 
-5.61051e-03  4.35251e-03        00000 
-3.42461e-02 -5.26488e-02        00000 
 1.33583e-02 -1.75071e-01        00000 
 3.58591e-02  1.29791e-02        00000 
-5.18423e-03  1.54989e-02        00000 
-1.32423e-03  7.16802e-03        00000 
-2.11217e-14 -5.67198e-14        00000 
-9.27665e-14 -8.97294e-14        00000 
-2.68232e-13 -8.85291e-14        00000 
-5.34667e-13  3.54078e-13        00000 
-2.44765e-13  2.64518e-12        00000 
 3.74105e-12  1.02350e-11        00000 
 2.14385e-11  2.76297e-11        00000 
 7.47615e-11  4.55439e-11        00000 
 1.82183e-10 -2.57232e-11        00000 
 2.33111e-10 -5.56954e-10        00000 
-5.11613e-10 -2.59803e-09        00000 
-4.79862e-09 -8.03217e-09        00000 
-1.97530e-08 -1.67151e-08        00000 
-5.60892e-08 -1.09013e-08        00000 
-1.02022e-07  9.61439e-08        00000 
 1.71429e-09  5.77805e-07        00000 
 9.53541e-07  2.04498e-06        00000 
 4.82477e-06  5.27947e-06        00000 
 1.57198e-05  9.38075e-06        00000 
 3.56125e-05  3.31945e-06        00000 
 3.75535e-05 -7.11747e-05        00000 
-1.34320e-04 -4.91557e-04        00000 
-1.01536e-03 -2.45785e-03        00000 
-3.91940e-03 -9.75691e-03        00000 
-9.82537e-03 -2.42845e-02        00000 
-1.91428e-02  3.39691e-02        00000 
 7.96892e-03  7.75293e-01        00000 
 3.34810e-04 -2.39549e-01        00000 
-5.50831e-05 -4.37067e-03        00000 
 3.76757e-05  6.30451e-04        00000 
 1.29135e-16 -4.91128e-15        00000 
-1.13471e-15  4.86914e-14        00000 
-3.24144e-15  2.44808e-13        00000 
-6.35189e-15  7.54115e-13        00000 
-2.39843e-15  1.55640e-12        00000 
 4.70491e-14  9.10451e-13        00000 
 2.63262e-13 -9.90189e-12        00000 
 9.07687e-13 -5.92064e-11        00000 
 2.18410e-12 -2.10327e-10        00000 
 2.68809e-12 -5.21942e-10        00000 
-6.67878e-12 -7.01646e-10        00000 
-5.93232e-11  1.28872e-09        00000 
-2.40901e-10  1.30954e-08        00000 
-6.76606e-10  5.46372e-08        00000 
-1.20625e-09  1.56405e-07        00000 
 1.46096e-10  2.91223e-07        00000 
 1.19183e-08  5.11050e-08        00000 
 5.91636e-08 -2.36084e-06        00000 
 1.90650e-07 -1.24056e-05        00000 
 4.25593e-07 -4.23581e-05        00000 
 4.21884e-07 -1.09137e-04        00000 
-1.73952e-06 -1.94081e-04        00000 
-1.25404e-05 -7.58437e-08        00000 
-4.73977e-05  2.30429e-03        00000 
-1.17102e-04  1.55312e-02        00000 
-2.19351e-04  7.10791e-02        00000 
 8.87262e-05  2.10003e-01        00000 
-2.72052e-18 -1.00171e-17        00000 
 1.06201e-19  2.87413e-18        00000 
-3.00695e-20 -7.07427e-19        00000 
 4.99542e-31 -4.97985e-31        00000 
-1.18462e-30 -3.55855e-31        00000 
 3.56673e-30  7.75357e-30        00000 
-1.32688e-29 -4.76174e-29        00000 
 2.70893e-29  2.02315e-28        00000 
-8.38302e-29 -5.55225e-28        00000 
 3.04051e-28  1.37483e-27        00000 
-1.02300e-27 -2.55040e-27        00000 
 2.88838e-27  6.86984e-27        00000 
-1.19106e-26 -4.13072e-26        00000 
 3.06489e-26 -3.12338e-28        00000 
-1.04362e-26  1.49822e-25        00000 
-2.23912e-25 -2.12882e-25        00000 
 8.09217e-25 -2.18719e-24        00000 
-1.94391e-24  5.29366e-24        00000 
 1.04303e-23 -2.48767e-23        00000 
-4.58839e-23  1.03185e-22        00000 
 5.81079e-23 -4.48447e-22        00000 
-1.41253e-22  1.34515e-21        00000 
 4.65020e-22 -5.18978e-21        00000 
-1.16693e-21  1.35603e-20        00000 
-3.56049e-23 -1.05753e-22        00000 
-6.74094e-22 -1.72422e-20        00000 
 1.10512e-20  3.08232e-20        00000 
-1.12569e-19  7.18197e-20        00000 
 8.69115e-20  6.06459e-20        00000 
 3.06250e-20 -1.66031e-18        00000 
 7.86351e-20  2.49513e-19        00000 
-1.12367e-19 -7.21909e-19        00000 
 2.00703e-20  2.67278e-19        00000 
-1.72739e-31 -8.70693e-32        00000 
 3.10387e-31  5.86200e-31        00000 
-1.00503e-30 -2.36477e-30        00000 
 2.47469e-30  1.49625e-29        00000 
-3.49133e-30 -4.46150e-29        00000 
 2.56533e-29  1.23005e-28        00000 
-8.68096e-29 -2.73060e-28        00000 
 2.68971e-28  6.26756e-28        00000 
-9.02026e-28 -1.59346e-27        00000 
 2.31090e-27  2.95247e-27        00000 
-2.22686e-27  3.98126e-27        00000 
-1.15436e-26 -6.66291e-27        00000 
 6.72321e-26 -1.35524e-25        00000 
-2.11172e-25  5.53985e-25        00000 
 8.22712e-25 -2.20294e-24        00000 
-3.23633e-24  8.90910e-24        00000 
 8.98267e-24 -3.44544e-23        00000 
-1.47556e-23  1.20070e-22        00000 
 3.78376e-23 -3.92649e-22        00000 
-9.44970e-23  1.03981e-21        00000 
 1.29655e-22 -1.30749e-21        00000 
-1.59727e-22 -3.11819e-22        00000 
 9.51520e-22  2.71398e-21        00000 
-6.01069e-21 -3.07288e-21        00000 
 1.33436e-20  4.06661e-20        00000 
-1.10736e-20  3.82156e-19        00000 
 5.60416e-21  8.09989e-20        00000 
-1.01838e-20 -2.22685e-19        00000 
 1.33968e-20  9.45135e-20        00000 
-1.16732e-20 -8.67475e-20        00000 
 4.14855e-32  4.53162e-32        00000 
-7.19255e-32 -1.43384e-31        00000 
 2.03051e-31  1.12361e-30        00000 
-5.18199e-31 -3.90114e-30        00000 
 1.86541e-30  1.07607e-29        00000 
-5.81396e-30 -2.08455e-29        00000 
 2.53976e-29  6.87305e-29        00000 
-6.98755e-29 -1.32570e-28        00000 
 1.49945e-28  1.36789e-28        00000 
-3.82755e-28  5.88070e-28        00000 
 1.73318e-28 -6.87961e-28        00000 
 3.55658e-27 -7.04911e-27        00000 
-1.38783e-26  4.97808e-26        00000 
 4.95469e-26 -2.34868e-25        00000 
-2.33709e-25  8.59978e-25        00000 
 4.96671e-25 -3.15004e-24        00000 
-1.09097e-24  1.07479e-23        00000 
 3.99805e-24 -3.49643e-23        00000 
-7.07675e-24  8.18447e-23        00000 
 1.71615e-23 -1.47221e-22        00000 
-3.13080e-23  5.31072e-23        00000 
 6.43796e-23  5.99335e-22        00000 
-3.80121e-22 -1.30200e-21        00000 
 1.11330e-21  8.16764e-22        00000 
-1.75719e-21  1.07241e-20        00000 
 1.73757e-21 -2.45645e-20        00000 
-1.44715e-21  1.63737e-21        00000 
 1.70515e-21  1.06175e-20        00000 
-2.05930e-21 -2.00351e-20        00000 
 2.13456e-21  1.62151e-20        00000 
-1.14658e-32 -2.76754e-32        00000 
 1.93930e-32  8.07741e-32        00000 
-5.16240e-32 -3.06825e-31        00000 
 1.63480e-31  8.88555e-31        00000 
-5.46274e-31 -1.83252e-30        00000 
 1.93078e-30  5.50662e-30        00000 
-5.85642e-30 -1.23168e-29        00000 
 1.40789e-29  1.77701e-29        00000 
-2.93336e-29  4.65760e-30        00000 
 2.26367e-29 -7.48546e-30        00000 
 2.01591e-28 -5.48403e-28        00000 
-1.15144e-27  4.00706e-27        00000 
 4.42518e-27 -1.90914e-26        00000 
-1.68048e-26  7.42008e-26        00000 
 4.73840e-26 -2.66465e-25        00000 
-1.13178e-25  9.00632e-25        00000 
 3.10903e-25 -2.80787e-24        00000 
-7.41142e-25  7.20249e-24        00000 
 1.61777e-24 -1.41438e-23        00000 
-3.42061e-24  1.49235e-23        00000 
 7.78080e-24  1.89880e-23        00000 
-2.72462e-23 -9.75442e-23        00000 
 8.69787e-23  1.15753e-22        00000 
-1.85563e-22  4.17991e-22        00000 
 2.68023e-22 -1.73702e-21        00000 
-2.95900e-22  5.46700e-21        00000 
 2.88481e-22 -7.76446e-21        00000 
-2.96223e-22 -5.15939e-22        00000 
 3.38942e-22  2.66269e-21        00000 
-3.56341e-22 -3.01718e-21        00000 
 3.11252e-33  1.20787e-32        00000 
-5.21132e-33 -2.51286e-32        00000 
 1.49011e-32  7.46463e-32        00000 
-4.84854e-32 -1.86281e-31        00000 
 1.64916e-31  4.67051e-31        00000 
-4.83463e-31 -1.10865e-30        00000 
 1.23369e-30  2.02030e-30        00000 
-2.52482e-30 -2.29153e-30        00000 
 2.45188e-30  4.98216e-30        00000 
 1.22505e-29 -4.93332e-29        00000 
-8.83814e-29  3.26580e-28        00000 
 3.70743e-28 -1.56854e-27        00000 
-1.33883e-27  6.26333e-27        00000 
 4.08403e-27 -2.25688e-26        00000 
-1.07294e-26  7.56125e-26        00000 
 2.76087e-26 -2.32700e-25        00000 
-6.84329e-26  6.20054e-25        00000 
 1.57385e-25 -1.33191e-24        00000 
-3.47599e-25  1.96137e-24        00000 
 8.08386e-25 -6.43795e-25        00000 
-2.30777e-24 -5.09674e-24        00000 
 6.94778e-24  1.09744e-23        00000 
-1.69825e-23  1.28566e-23        00000 
 3.09487e-23 -1.23386e-22        00000 
-4.29562e-23  4.13031e-22        00000 
 4.88077e-23 -8.33629e-22        00000 
-5.02314e-23  8.25673e-22        00000 
 5.26073e-23 -2.87598e-22        00000 
-5.72971e-23 -2.08931e-22        00000 
 5.97212e-23  4.56041e-22        00000 
-8.41408e-34 -3.77237e-33        00000 
 1.45242e-33  6.62220e-33        00000 
-4.26780e-33 -1.70857e-32        00000 
 1.37289e-32  4.35033e-32        00000 
-4.13732e-32 -1.11936e-31        00000 
 1.05981e-31  2.10623e-31        00000 
-2.22166e-31 -3.71643e-31        00000 
 2.53845e-31  9.03896e-31        00000 
 7.53700e-31 -4.77929e-30        00000 
-6.66066e-30  2.74105e-29        00000 
 3.00961e-29 -1.29831e-28        00000 
-1.09852e-28  5.25032e-28        00000 
 3.46940e-28 -1.90547e-27        00000 
-9.67204e-28  6.37194e-27        00000 
 2.51620e-27 -1.95669e-26        00000 
-6.28879e-27  5.33446e-26        00000 
 1.49815e-26 -1.22422e-25        00000 
-3.42724e-26  2.15565e-25        00000 
 8.02251e-26 -2.20436e-25        00000 
-2.09230e-25 -1.03135e-25        00000 
 5.85582e-25  7.19931e-25        00000 
-1.49640e-24  9.24238e-26        00000 
 3.12698e-24 -7.56041e-24        00000 
-5.20130e-24  3.10079e-23        00000 
 7.03052e-24 -7.62154e-23        00000 
-8.12644e-24  1.19627e-22        00000 
 8.65311e-24 -1.13247e-22        00000 
-9.13296e-24  5.02785e-23        00000 
 9.70359e-24  2.09809e-23        00000 
-9.98251e-24 -5.09693e-23        00000 
 2.66692e-34  1.02644e-33        00000 
-2.84349e-34 -1.33502e-33        00000 
 1.17760e-33  3.02665e-33        00000 
-2.99742e-33 -1.00586e-32        00000 
 9.16521e-33  2.26468e-32        00000 
-2.03188e-32 -4.86432e-32        00000 
 2.50497e-32  1.05709e-31        00000 
 4.50658e-32 -4.76116e-31        00000 
-4.99412e-31  2.36375e-30        00000 
 2.40851e-30 -1.08546e-29        00000 
-9.05192e-30  4.39715e-29        00000 
 2.93959e-29 -1.60554e-28        00000 
-8.52386e-29  5.38246e-28        00000 
 2.27902e-28 -1.65812e-27        00000 
-5.78054e-28  4.60157e-27        00000 
 1.40616e-27 -1.10853e-26        00000 
-3.32061e-27  2.18301e-26        00000 
 7.80164e-27 -3.11919e-26        00000 
-1.94877e-26  2.06616e-26        00000 
 5.15505e-26  2.36107e-26        00000 
-1.32101e-25 -1.44521e-26        00000 
 2.97568e-25 -4.39993e-25        00000 
-5.61033e-25  2.23037e-24        00000 
 8.78857e-25 -6.46498e-24        00000 
-1.16653e-24  1.28487e-23        00000 
 1.36194e-24 -1.77491e-23        00000 
-1.47964e-24  1.63235e-23        00000 
 1.56951e-24 -8.14507e-24        00000 
-1.64781e-24 -1.28686e-24        00000 
 1.68189e-24  5.35021e-24        00000 
-5.66071e-35 -2.25756e-34        00000 
 1.00107e-34  3.30885e-34        00000 
-2.72808e-34 -8.35241e-34        00000 
 7.48940e-34  2.14749e-33        00000 
-1.74174e-33 -5.05703e-33        00000 
 2.53569e-33  1.27727e-32        00000 
 2.32548e-33 -4.63913e-32        00000 
-3.73700e-32  2.08465e-31        00000 
 1.91526e-31 -9.17734e-31        00000 
-7.44368e-31  3.69221e-30        00000 
 2.48431e-30 -1.35253e-29        00000 
-7.42758e-30  4.55365e-29        00000 
 2.04250e-29 -1.41128e-28        00000 
-5.28719e-29  3.97847e-28        00000 
 1.30945e-28 -9.94678e-28        00000 
-3.14223e-28  2.11964e-27        00000 
 7.40570e-28 -3.61268e-27        00000 
-1.83359e-27  4.25311e-27        00000 
 4.67042e-27 -2.28290e-27        00000 
-1.18229e-26  1.24187e-27        00000 
 2.76556e-26 -2.74804e-26        00000 
-5.66494e-26  1.56947e-25        00000 
 9.93144e-26 -5.21259e-25        00000 
-1.49120e-25  1.21989e-24        00000 
 1.95210e-25 -2.10845e-24        00000 
-2.29195e-25  2.68860e-24        00000 
 2.51993e-25 -2.42675e-24        00000 
-2.68305e-25  1.32878e-24        00000 
 2.80083e-25 -8.10113e-26        00000 
-2.84700e-25 -4.59947e-25        00000 
 1.55805e-35  5.40659e-35        00000 
-2.56647e-35 -8.32828e-35        00000 
 6.42640e-35  1.99016e-34        00000 
-1.49373e-34 -5.01770e-34        00000 
 2.40567e-34  1.35179e-33        00000 
 7.77019e-35 -4.55552e-33        00000 
-2.77105e-33  1.86345e-32        00000 
 1.51775e-32 -7.84800e-32        00000 
-6.10360e-32  3.11489e-31        00000 
 2.09289e-31 -1.14096e-30        00000 
-6.42665e-31  3.85780e-30        00000 
 1.81389e-30 -1.20432e-29        00000 
-4.80066e-30  3.44452e-29        00000 
 1.21124e-29 -8.87106e-29        00000 
-2.95507e-29  2.00188e-28        00000 
 7.08756e-29 -3.80358e-28        00000 
-1.72919e-28  5.72134e-28        00000 
 4.30177e-28 -6.18494e-28        00000 
-1.07369e-27  6.11353e-28        00000 
 2.55389e-27 -2.18552e-27        00000 
-5.51697e-27  1.12755e-26        00000 
 1.05051e-26 -4.08581e-26        00000 
-1.74466e-26  1.08135e-25        00000 
 2.53763e-26 -2.18728e-25        00000 
-3.28210e-26  3.42915e-25        00000 
 3.86701e-26 -4.13564e-25        00000 
-4.28268e-26  3.69794e-25        00000 
 4.57328e-26 -2.19939e-25        00000 
-4.76229e-26  5.37776e-26        00000 
 4.83095e-26  1.79862e-26        00000 
-3.97735e-36 -1.33262e-35        00000 
 6.10563e-36  2.03901e-35        00000 
-1.31055e-35 -4.88800e-35        00000 
 2.23374e-35  1.35345e-34        00000 
-2.56593e-36 -4.41133e-34        00000 
-2.03040e-34  1.68369e-33        00000 
 1.19882e-33 -6.77967e-33        00000 
-4.99303e-33  2.64318e-32        00000 
 1.75784e-32 -9.64937e-32        00000 
-5.53127e-32  3.27349e-31        00000 
 1.59902e-31 -1.02950e-30        00000 
-4.32597e-31  2.98443e-30        00000 
 1.11255e-30 -7.87831e-30        00000 
-2.75866e-30  1.85778e-29        00000 
 6.70056e-30 -3.80955e-29        00000 
-1.62988e-29  6.55183e-29        00000 
 4.03201e-29 -8.96057e-29        00000 
-9.86238e-29  1.14662e-28        00000 
 2.35995e-28 -2.30136e-28        00000 
-5.27204e-28  8.74125e-28        00000 
 1.06549e-27 -3.19564e-27        00000 
-1.91559e-27  9.21105e-27        00000 
 3.05053e-27 -2.09561e-26        00000 
-4.32634e-27  3.81284e-26        00000 
 5.53338e-27 -5.55801e-26        00000 
-6.53495e-27  6.44451e-26        00000 
 7.27099e-27 -5.75113e-26        00000 
-7.78249e-27  3.68716e-26        00000 
 8.09782e-27 -1.45673e-26        00000 
-8.20713e-27  5.00621e-27        00000 
 9.34855e-37  3.30195e-36        00000 
-1.29163e-36 -5.13649e-36        00000 
 2.10013e-36  1.32885e-35        00000 
-1.00937e-36 -4.23724e-35        00000 
-1.35907e-35  1.57258e-34        00000 
 9.33822e-35 -5.95890e-34        00000 
-4.06368e-34  2.25528e-33        00000 
 1.47141e-33 -8.18856e-33        00000 
-4.73941e-33  2.78275e-32        00000 
 1.40178e-32 -8.81075e-32        00000 
-3.87422e-32  2.58559e-31        00000 
 1.01427e-31 -6.97371e-31        00000 
-2.55105e-31  1.70576e-30        00000 
 6.29719e-31 -3.71508e-30        00000 
-1.52569e-30  7.04011e-30        00000 
 3.73019e-30 -1.12421e-29        00000 
-9.11808e-30  1.65471e-29        00000 