<?xml version="1.0" encoding="utf-8"?>
<VTKFile byte_order="LittleEndian" type="UnstructuredGrid" version="0.1">
   <UnstructuredGrid>
      <Piece NumberOfCells="3364" NumberOfPoints="1741">
         <Points>
            <DataArray Name="Points" NumberOfComponents="3" format="ascii" type="Float32">
0.0000 1.0000 0.0000
0.0000 1.0345 0.0000
0.0000 1.0690 0.0000
0.0000 1.1034 0.0000
0.0000 1.1379 0.0000
0.0000 1.1724 0.0000
0.0000 1.2069 0.0000
0.0000 1.2414 0.0000
0.0000 1.2759 0.0000
0.0000 1.3103 0.0000
0.0000 1.3448 0.0000
0.0000 1.3793 0.0000
0.0000 1.4138 0.0000
0.0000 1.4483 0.0000
0.0000 1.4828 0.0000
0.0000 1.5172 0.0000
0.0000 1.5517 0.0000
0.0000 1.5862 0.0000
0.0000 1.6207 0.0000
0.0000 1.6552 0.0000
0.0000 1.6897 0.0000
0.0000 1.7241 0.0000
0.0000 1.7586 0.0000
0.0000 1.7931 0.0000
0.0000 1.8276 0.0000
0.0000 1.8621 0.0000
0.0000 1.8966 0.0000
0.0000 1.9310 0.0000
0.0000 1.9655 0.0000
0.0000 2.0000 0.0000
0.0690 1.0000 0.0000
0.0690 1.0345 0.0000
0.0690 1.0690 0.0000
0.0690 1.1034 0.0000
0.0690 1.1379 0.0000
0.0690 1.1724 0.0000
0.0690 1.2069 0.0000
0.0690 1.2414 0.0000
0.0690 1.2759 0.0000
0.0690 1.3103 0.0000
0.0690 1.3448 0.0000
0.0690 1.3793 0.0000
0.0690 1.4138 0.0000
0.0690 1.4483 0.0000
0.0690 1.4828 0.0000
0.0690 1.5172 0.0000
0.0690 1.5517 0.0000
0.0690 1.5862 0.0000
0.0690 1.6207 0.0000
0.0690 1.6552 0.0000
0.0690 1.6897 0.0000
0.0690 1.7241 0.0000
0.0690 1.7586 0.0000
0.0690 1.7931 0.0000
0.0690 1.8276 0.0000
0.0690 1.8621 0.0000
0.0690 1.8966 0.0000
0.0690 1.9310 0.0000
0.0690 1.9655 0.0000
0.0690 2.0000 0.0000
0.1379 1.0000 0.0000
0.1379 1.0345 0.0000
0.1379 1.0690 0.0000
0.1379 1.1034 0.0000
0.1379 1.1379 0.0000
0.1379 1.1724 0.0000
0.1379 1.2069 0.0000
0.1379 1.2414 0.0000
0.1379 1.2759 0.0000
0.1379 1.3103 0.0000
0.1379 1.3448 0.0000
0.1379 1.3793 0.0000
0.1379 1.4138 0.0000
0.1379 1.4483 0.0000
0.1379 1.4828 0.0000
0.1379 1.5172 0.0000
0.1379 1.5517 0.0000
0.1379 1.5862 0.0000
0.1379 1.6207 0.0000
0.1379 1.6552 0.0000
0.1379 1.6897 0.0000
0.1379 1.7241 0.0000
0.1379 1.7586 0.0000
0.1379 1.7931 0.0000
0.1379 1.8276 0.0000
0.1379 1.8621 0.0000
0.1379 1.8966 0.0000
0.1379 1.9310 0.0000
0.1379 1.9655 0.0000
0.1379 2.0000 0.0000
0.2069 1.0000 0.0000
0.2069 1.0345 0.0000
0.2069 1.0690 0.0000
0.2069 1.1034 0.0000
0.2069 1.1379 0.0000
0.2069 1.1724 0.0000
0.2069 1.2069 0.0000
0.2069 1.2414 0.0000
0.2069 1.2759 0.0000
0.2069 1.3103 0.0000
0.2069 1.3448 0.0000
0.2069 1.3793 0.0000
0.2069 1.4138 0.0000
0.2069 1.4483 0.0000
0.2069 1.4828 0.0000
0.2069 1.5172 0.0000
0.2069 1.5517 0.0000
0.2069 1.5862 0.0000
0.2069 1.6207 0.0000
0.2069 1.6552 0.0000
0.2069 1.6897 0.0000
0.2069 1.7241 0.0000
0.2069 1.7586 0.0000
0.2069 1.7931 0.0000
0.2069 1.8276 0.0000
0.2069 1.8621 0.0000
0.2069 1.8966 0.0000
0.2069 1.9310 0.0000
0.2069 1.9655 0.0000
0.2069 2.0000 0.0000
0.2759 1.0000 0.0000
0.2759 1.0345 0.0000
0.2759 1.0690 0.0000
0.2759 1.1034 0.0000
0.2759 1.1379 0.0000
0.2759 1.1724 0.0000
0.2759 1.2069 0.0000
0.2759 1.2414 0.0000
0.2759 1.2759 0.0000
0.2759 1.3103 0.0000
0.2759 1.3448 0.0000
0.2759 1.3793 0.0000
0.2759 1.4138 0.0000
0.2759 1.4483 0.0000
0.2759 1.4828 0.0000
0.2759 1.5172 0.0000
0.2759 1.5517 0.0000
0.2759 1.5862 0.0000
0.2759 1.6207 0.0000
0.2759 1.6552 0.0000
0.2759 1.6897 0.0000
0.2759 1.7241 0.0000
0.2759 1.7586 0.0000
0.2759 1.7931 0.0000
0.2759 1.8276 0.0000
0.2759 1.8621 0.0000
0.2759 1.8966 0.0000
0.2759 1.9310 0.0000
0.2759 1.9655 0.0000
0.2759 2.0000 0.0000
0.3448 1.0000 0.0000
0.3448 1.0345 0.0000
0.3448 1.0690 0.0000
0.3448 1.1034 0.0000
0.3448 1.1379 0.0000
0.3448 1.1724 0.0000
0.3448 1.2069 0.0000
0.3448 1.2414 0.0000
0.3448 1.2759 0.0000
0.3448 1.3103 0.0000
0.3448 1.3448 0.0000
0.3448 1.3793 0.0000
0.3448 1.4138 0.0000
0.3448 1.4483 0.0000
0.3448 1.4828 0.0000
0.3448 1.5172 0.0000
0.3448 1.5517 0.0000
0.3448 1.5862 0.0000
0.3448 1.6207 0.0000
0.3448 1.6552 0.0000
0.3448 1.6897 0.0000
0.3448 1.7241 0.0000
0.3448 1.7586 0.0000
0.3448 1.7931 0.0000
0.3448 1.8276 0.0000
0.3448 1.8621 0.0000
0.3448 1.8966 0.0000
0.3448 1.9310 0.0000
0.3448 1.9655 0.0000
0.3448 2.0000 0.0000
0.4138 1.0000 0.0000
0.4138 1.0345 0.0000
0.4138 1.0690 0.0000
0.4138 1.1034 0.0000
0.4138 1.1379 0.0000
0.4138 1.1724 0.0000
0.4138 1.2069 0.0000
0.4138 1.2414 0.0000
0.4138 1.2759 0.0000
0.4138 1.3103 0.0000
0.4138 1.3448 0.0000
0.4138 1.3793 0.0000
0.4138 1.4138 0.0000
0.4138 1.4483 0.0000
0.4138 1.4828 0.0000
0.4138 1.5172 0.0000
0.4138 1.5517 0.0000
0.4138 1.5862 0.0000
0.4138 1.6207 0.0000
0.4138 1.6552 0.0000
0.4138 1.6897 0.0000
0.4138 1.7241 0.0000
0.4138 1.7586 0.0000
0.4138 1.7931 0.0000
0.4138 1.8276 0.0000
0.4138 1.8621 0.0000
0.4138 1.8966 0.0000
0.4138 1.9310 0.0000
0.4138 1.9655 0.0000
0.4138 2.0000 0.0000
0.4828 1.0000 0.0000
0.4828 1.0345 0.0000
0.4828 1.0690 0.0000
0.4828 1.1034 0.0000
0.4828 1.1379 0.0000
0.4828 1.1724 0.0000
0.4828 1.2069 0.0000
0.4828 1.2414 0.0000
0.4828 1.2759 0.0000
0.4828 1.3103 0.0000
0.4828 1.3448 0.0000
0.4828 1.3793 0.0000
0.4828 1.4138 0.0000
0.4828 1.4483 0.0000
0.4828 1.4828 0.0000
0.4828 1.5172 0.0000
0.4828 1.5517 0.0000
0.4828 1.5862 0.0000
0.4828 1.6207 0.0000
0.4828 1.6552 0.0000
0.4828 1.6897 0.0000
0.4828 1.7241 0.0000
0.4828 1.7586 0.0000
0.4828 1.7931 0.0000
0.4828 1.8276 0.0000
0.4828 1.8621 0.0000
0.4828 1.8966 0.0000
0.4828 1.9310 0.0000
0.4828 1.9655 0.0000
0.4828 2.0000 0.0000
0.5517 1.0000 0.0000
0.5517 1.0345 0.0000
0.5517 1.0690 0.0000
0.5517 1.1034 0.0000
0.5517 1.1379 0.0000
0.5517 1.1724 0.0000
0.5517 1.2069 0.0000
0.5517 1.2414 0.0000
0.5517 1.2759 0.0000
0.5517 1.3103 0.0000
0.5517 1.3448 0.0000
0.5517 1.3793 0.0000
0.5517 1.4138 0.0000
0.5517 1.4483 0.0000
0.5517 1.4828 0.0000
0.5517 1.5172 0.0000
0.5517 1.5517 0.0000
0.5517 1.5862 0.0000
0.5517 1.6207 0.0000
0.5517 1.6552 0.0000
0.5517 1.6897 0.0000
0.5517 1.7241 0.0000
0.5517 1.7586 0.0000
0.5517 1.7931 0.0000
0.5517 1.8276 0.0000
0.5517 1.8621 0.0000
0.5517 1.8966 0.0000
0.5517 1.9310 0.0000
0.5517 1.9655 0.0000
0.5517 2.0000 0.0000
0.6207 1.0000 0.0000
0.6207 1.0345 0.0000
0.6207 1.0690 0.0000
0.6207 1.1034 0.0000
0.6207 1.1379 0.0000
0.6207 1.1724 0.0000
0.6207 1.2069 0.0000
0.6207 1.2414 0.0000
0.6207 1.2759 0.0000
0.6207 1.3103 0.0000
0.6207 1.3448 0.0000
0.6207 1.3793 0.0000
0.6207 1.4138 0.0000
0.6207 1.4483 0.0000
0.6207 1.4828 0.0000
0.6207 1.5172 0.0000
0.6207 1.5517 0.0000
0.6207 1.5862 0.0000
0.6207 1.6207 0.0000
0.6207 1.6552 0.0000
0.6207 1.6897 0.0000
0.6207 1.7241 0.0000
0.6207 1.7586 0.0000
0.6207 1.7931 0.0000
0.6207 1.8276 0.0000
0.6207 1.8621 0.0000
0.6207 1.8966 0.0000
0.6207 1.9310 0.0000
0.6207 1.9655 0.0000
0.6207 2.0000 0.0000
0.6897 1.0000 0.0000
0.6897 1.0345 0.0000
0.6897 1.0690 0.0000
0.6897 1.1034 0.0000
0.6897 1.1379 0.0000
0.6897 1.1724 0.0000
0.6897 1.2069 0.0000
0.6897 1.2414 0.0000
0.6897 1.2759 0.0000
0.6897 1.3103 0.0000
0.6897 1.3448 0.0000
0.6897 1.3793 0.0000
0.6897 1.4138 0.0000
0.6897 1.4483 0.0000
0.6897 1.4828 0.0000
0.6897 1.5172 0.0000
0.6897 1.5517 0.0000
0.6897 1.5862 0.0000
0.6897 1.6207 0.0000
0.6897 1.6552 0.0000
0.6897 1.6897 0.0000
0.6897 1.7241 0.0000
0.6897 1.7586 0.0000
0.6897 1.7931 0.0000
0.6897 1.8276 0.0000
0.6897 1.8621 0.0000
0.6897 1.8966 0.0000
0.6897 1.9310 0.0000
0.6897 1.9655 0.0000
0.6897 2.0000 0.0000
0.7586 1.0000 0.0000
0.7586 1.0345 0.0000
0.7586 1.0690 0.0000
0.7586 1.1034 0.0000
0.7586 1.1379 0.0000
0.7586 1.1724 0.0000
0.7586 1.2069 0.0000
0.7586 1.2414 0.0000
0.7586 1.2759 0.0000
0.7586 1.3103 0.0000
0.7586 1.3448 0.0000
0.7586 1.3793 0.0000
0.7586 1.4138 0.0000
0.7586 1.4483 0.0000
0.7586 1.4828 0.0000
0.7586 1.5172 0.0000
0.7586 1.5517 0.0000
0.7586 1.5862 0.0000
0.7586 1.6207 0.0000
0.7586 1.6552 0.0000
0.7586 1.6897 0.0000
0.7586 1.7241 0.0000
0.7586 1.7586 0.0000
0.7586 1.7931 0.0000
0.7586 1.8276 0.0000
0.7586 1.8621 0.0000
0.7586 1.8966 0.0000
0.7586 1.9310 0.0000
0.7586 1.9655 0.0000
0.7586 2.0000 0.0000
0.8276 1.0000 0.0000
0.8276 1.0345 0.0000
0.8276 1.0690 0.0000
0.8276 1.1034 0.0000
0.8276 1.1379 0.0000
0.8276 1.1724 0.0000
0.8276 1.2069 0.0000
0.8276 1.2414 0.0000
0.8276 1.2759 0.0000
0.8276 1.3103 0.0000
0.8276 1.3448 0.0000
0.8276 1.3793 0.0000
0.8276 1.4138 0.0000
0.8276 1.4483 0.0000
0.8276 1.4828 0.0000
0.8276 1.5172 0.0000
0.8276 1.5517 0.0000
0.8276 1.5862 0.0000
0.8276 1.6207 0.0000
0.8276 1.6552 0.0000
0.8276 1.6897 0.0000
0.8276 1.7241 0.0000
0.8276 1.7586 0.0000
0.8276 1.7931 0.0000
0.8276 1.8276 0.0000
0.8276 1.8621 0.0000
0.8276 1.8966 0.0000
0.8276 1.9310 0.0000
0.8276 1.9655 0.0000
0.8276 2.0000 0.0000
0.8966 1.0000 0.0000
0.8966 1.0345 0.0000
0.8966 1.0690 0.0000
0.8966 1.1034 0.0000
0.8966 1.1379 0.0000
0.8966 1.1724 0.0000
0.8966 1.2069 0.0000
0.8966 1.2414 0.0000
0.8966 1.2759 0.0000
0.8966 1.3103 0.0000
0.8966 1.3448 0.0000
0.8966 1.3793 0.0000
0.8966 1.4138 0.0000
0.8966 1.4483 0.0000
0.8966 1.4828 0.0000
0.8966 1.5172 0.0000
0.8966 1.5517 0.0000
0.8966 1.5862 0.0000
0.8966 1.6207 0.0000
0.8966 1.6552 0.0000
0.8966 1.6897 0.0000
0.8966 1.7241 0.0000
0.8966 1.7586 0.0000
0.8966 1.7931 0.0000
0.8966 1.8276 0.0000
0.8966 1.8621 0.0000
0.8966 1.8966 0.0000
0.8966 1.9310 0.0000
0.8966 1.9655 0.0000
0.8966 2.0000 0.0000
0.9655 1.0000 0.0000
0.9655 1.0345 0.0000
0.9655 1.0690 0.0000
0.9655 1.1034 0.0000
0.9655 1.1379 0.0000
0.9655 1.1724 0.0000
0.9655 1.2069 0.0000
0.9655 1.2414 0.0000
0.9655 1.2759 0.0000
0.9655 1.3103 0.0000
0.9655 1.3448 0.0000
0.9655 1.3793 0.0000
0.9655 1.4138 0.0000
0.9655 1.4483 0.0000
0.9655 1.4828 0.0000
0.9655 1.5172 0.0000
0.9655 1.5517 0.0000
0.9655 1.5862 0.0000
0.9655 1.6207 0.0000
0.9655 1.6552 0.0000
0.9655 1.6897 0.0000
0.9655 1.7241 0.0000
0.9655 1.7586 0.0000
0.9655 1.7931 0.0000
0.9655 1.8276 0.0000
0.9655 1.8621 0.0000
0.9655 1.8966 0.0000
0.9655 1.9310 0.0000
0.9655 1.9655 0.0000
0.9655 2.0000 0.0000
1.0345 1.0000 0.0000
1.0345 1.0345 0.0000
1.0345 1.0690 0.0000
1.0345 1.1034 0.0000
1.0345 1.1379 0.0000
1.0345 1.1724 0.0000
1.0345 1.2069 0.0000
1.0345 1.2414 0.0000
1.0345 1.2759 0.0000
1.0345 1.3103 0.0000
1.0345 1.3448 0.0000
[...]
         <PointData>
            <DataArray Name="fValues" NumberOfComponents="3" format="ascii" type="Float64">
       00000 -2.36664e-20        00000 
       00000  3.44964e-20        00000 
 7.81750e-21  2.84273e-21        00000 
 1.89745e-21 -3.03592e-20        00000 
-4.61943e-21 -5.40118e-20        00000 
 8.55864e-21  1.13792e-19        00000 
-4.26409e-21  1.42136e-20        00000 
-4.46460e-21 -1.96442e-20        00000 
 4.97477e-21 -2.27418e-20        00000 
 8.51951e-21  5.63115e-20        00000 
-3.55341e-21 -6.82254e-20        00000 
 3.92884e-21        00000        00000 
 5.68545e-21  3.97982e-20        00000 
 3.07984e-20 -1.40926e-20        00000 
-4.26409e-21  1.19394e-19        00000 
 1.61618e-20 -1.28580e-20        00000 
-2.27418e-20 -1.36451e-19        00000 
 1.03124e-19  2.28685e-20        00000 
-9.09672e-20  4.54836e-20        00000 
 2.71447e-20 -1.08579e-19        00000 
-1.70564e-20  2.27418e-20        00000 
 7.95449e-20  1.11679e-20        00000 
 2.27418e-20 -1.25080e-19        00000 
-1.66440e-19  8.00056e-20        00000 
 1.36451e-19  6.82254e-20        00000 
-1.04877e-19  5.77790e-20        00000 
-2.16047e-19  2.27418e-20        00000 
 1.41702e-19  3.43521e-20        00000 
-2.23634e-19 -1.47835e-21        00000 
 4.16924e-19 -4.47573e-20        00000 
 1.87430e-04  2.99925e-04        00000 
 9.04870e-05  2.76735e-04        00000 
 5.61524e-05  2.73838e-04        00000 
 4.18219e-05  2.81269e-04        00000 
 3.62799e-05  2.94779e-04        00000 
 3.50724e-05  3.13068e-04        00000 
 3.62955e-05  3.36085e-04        00000 
 3.92360e-05  3.64292e-04        00000 
 4.38393e-05  3.98318e-04        00000 
 5.04783e-05  4.38770e-04        00000 
 5.98464e-05  4.86109e-04        00000 
 7.29025e-05  5.40541e-04        00000 
 9.08338e-05  6.01903e-04        00000 
 1.15016e-04  6.69542e-04        00000 
 1.46957e-04  7.42197e-04        00000 
 1.88210e-04  8.17872e-04        00000 
 2.40261e-04  8.93738e-04        00000 
 3.04368e-04  9.66062e-04        00000 
 3.81378e-04  1.03019e-03        00000 
 4.71496e-04  1.08062e-03        00000 
 5.74034e-04  1.11114e-03        00000 
 6.87154e-04  1.11508e-03        00000 
 8.07610e-04  1.08572e-03        00000 
 9.30565e-04  1.01676e-03        00000 
 1.04945e-03  9.02881e-04        00000 
 1.15600e-03  7.40299e-04        00000 
 1.24032e-03  5.27189e-04        00000 
 1.29144e-03  2.63945e-04        00000 
 1.29989e-03 -4.72121e-05        00000 
 1.29492e-03 -3.99693e-04        00000 
 2.23027e-04  5.29352e-04        00000 
 1.43174e-04  5.29693e-04        00000 
 9.40238e-05  5.28409e-04        00000 
 6.82776e-05  5.34358e-04        00000 
 5.48101e-05  5.48896e-04        00000 
 4.76529e-05  5.72275e-04        00000 
 4.38776e-05  6.04864e-04        00000 
 4.23623e-05  6.47282e-04        00000 
 4.31521e-05  7.00288e-04        00000 
 4.71442e-05  7.64645e-04        00000 
 5.59398e-05  8.40961e-04        00000 
 7.17790e-05  9.29531e-04        00000 
 9.75025e-05  1.03016e-03        00000 
 1.36502e-04  1.14194e-03        00000 
 1.92628e-04  1.26308e-03        00000 
 2.70016e-04  1.39062e-03        00000 
 3.72834e-04  1.52030e-03        00000 
 5.04912e-04  1.64640e-03        00000 
 6.69283e-04  1.76167e-03        00000 
 8.67616e-04  1.85749e-03        00000 
 1.09957e-03  1.92403e-03        00000 
 1.36208e-03  1.95077e-03        00000 
 1.64863e-03  1.92717e-03        00000 
 1.94856e-03  1.84361e-03        00000 
 2.24671e-03  1.69278e-03        00000 
 2.52301e-03  1.47098e-03        00000 
 2.75274e-03  1.18025e-03        00000 
 2.90629e-03  8.30113e-04        00000 
 2.94797e-03  4.41541e-04        00000 
 2.79971e-03  5.64520e-05        00000 
 1.90846e-04  6.83579e-04        00000 
 1.43528e-04  6.91410e-04        00000 
 1.08976e-04  6.96349e-04        00000 
 8.41976e-05  7.03485e-04        00000 
 6.62549e-05  7.17140e-04        00000 
 5.19863e-05  7.39832e-04        00000 
 3.94868e-05  7.73233e-04        00000 
 2.81447e-05  8.18690e-04        00000 
 1.84851e-05  8.77430e-04        00000 
 1.20577e-05  9.50596e-04        00000 
 1.14038e-05  1.03920e-03        00000 
 2.00783e-05  1.14401e-03        00000 
 4.26918e-05  1.26536e-03        00000 
 8.49260e-05  1.40291e-03        00000 
 1.53471e-04  1.55539e-03        00000 
 2.55827e-04  1.72019e-03        00000 
 3.99919e-04  1.89310e-03        00000 
 5.93495e-04  2.06792e-03        00000 
 8.43294e-04  2.23640e-03        00000 
 1.15405e-03  2.38817e-03        00000 
 1.52736e-03  2.51103e-03        00000 
 1.96036e-03  2.59142e-03        00000 
 2.44419e-03  2.61512e-03        00000 
 2.96269e-03  2.56861e-03        00000 
 3.49067e-03  2.44036e-03        00000 
 3.99369e-03  2.22382e-03        00000 
 4.42711e-03  1.91871e-03        00000 
 4.73731e-03  1.53519e-03        00000 
 4.86021e-03  1.09256e-03        00000 
 4.73455e-03  6.13026e-04        00000 
 1.33725e-04  7.46683e-04        00000 
 1.23091e-04  7.56465e-04        00000 
 1.10076e-04  7.61920e-04        00000 
 9.51477e-05  7.67994e-04        00000 
 7.81204e-05  7.78533e-04        00000 
 5.87553e-05  7.96643e-04        00000 
 3.69818e-05  8.24720e-04        00000 
 1.32974e-05  8.64703e-04        00000 
-1.10289e-05  9.18307e-04        00000 
-3.38102e-05  9.87176e-04        00000 
-5.17777e-05  1.07295e-03        00000 
-6.03759e-05  1.17723e-03        00000 
-5.35332e-05  1.30149e-03        00000 
-2.34511e-05  1.44685e-03        00000 
 3.95185e-05  1.61368e-03        00000 
 1.46809e-04  1.80119e-03        00000 
 3.11272e-04  2.00677e-03        00000 
 5.46387e-04  2.22538e-03        00000 
 8.64985e-04  2.44904e-03        00000 
 1.27754e-03  2.66650e-03        00000 
 1.79026e-03  2.86351e-03        00000 
 2.40337e-03  3.02336e-03        00000 
 3.10904e-03  3.12751e-03        00000 
 3.88802e-03  3.15609e-03        00000 
 4.70840e-03  3.09074e-03        00000 
 5.52019e-03  2.91396e-03        00000 
 6.25807e-03  2.61828e-03        00000 
 6.83970e-03  2.20194e-03        00000 
 7.17639e-03  1.68259e-03        00000 
 7.18236e-03  1.08811e-03        00000 
 8.14909e-05  7.21158e-04        00000 
 1.06286e-04  7.27125e-04        00000 
 1.16262e-04  7.28706e-04        00000 
 1.13821e-04  7.29915e-04        00000 
 1.00767e-04  7.34184e-04        00000 
 7.85855e-05  7.44311e-04        00000 
 4.86921e-05  7.62566e-04        00000 
 1.26119e-05  7.90845e-04        00000 
-2.77934e-05  8.30879e-04        00000 
-7.00639e-05  8.84464e-04        00000 
-1.10806e-04  9.53650e-04        00000 
-1.45272e-04  1.04086e-03        00000 
-1.66850e-04  1.14893e-03        00000 
-1.66506e-04  1.28094e-03        00000 
-1.32247e-04  1.43996e-03        00000 
-4.87225e-05  1.62841e-03        00000 
 1.02818e-04  1.84720e-03        00000 
 3.43937e-04  2.09454e-03        00000 
 6.97443e-04  2.36456e-03        00000 
 1.18460e-03  2.64607e-03        00000 
 1.82126e-03  2.92213e-03        00000 
 2.61419e-03  3.17121e-03        00000 
 3.55972e-03  3.36976e-03        00000 
 4.64389e-03  3.49307e-03        00000 
 5.83062e-03  3.51077e-03        00000 
 7.06772e-03  3.39956e-03        00000 
 8.26225e-03  3.12304e-03        00000 
 9.29910e-03  2.67820e-03        00000 
 1.00322e-02  2.05519e-03        00000 
 1.03097e-02  1.30770e-03        00000 
 5.77497e-05  6.16692e-04        00000 
 1.13452e-04  6.14553e-04        00000 
 1.44186e-04  6.08661e-04        00000 
 1.53479e-04  6.02422e-04        00000 
 1.44615e-04  5.98682e-04        00000 
 1.20611e-04  5.99563e-04        00000 
 8.41332e-05  6.06544e-04        00000 
 3.75032e-05  6.20652e-04        00000 
-1.72210e-05  6.42790e-04        00000 
-7.79633e-05  6.74074e-04        00000 
-1.42196e-04  7.16185e-04        00000 
-2.06319e-04  7.71675e-04        00000 
-2.64844e-04  8.44199e-04        00000 
-3.09393e-04  9.38612e-04        00000 
-3.27534e-04  1.06088e-03        00000 
-3.01514e-04  1.21764e-03        00000 
-2.07107e-04  1.41527e-03        00000 
-1.29639e-05  1.65823e-03        00000 
 3.18783e-04  1.94641e-03        00000 
 8.29513e-04  2.27175e-03        00000 
 1.55733e-03  2.61468e-03        00000 
 2.52612e-03  2.94289e-03        00000 
 3.73466e-03  3.21655e-03        00000 
 5.16128e-03  3.40346e-03        00000 
 6.79623e-03  3.48690e-03        00000 
 8.57236e-03  3.41216e-03        00000 
 1.04295e-02  3.17921e-03        00000 
 1.21850e-02  2.67665e-03        00000 
 1.36178e-02  1.95170e-03        00000 
 1.44482e-02  9.49792e-04        00000 
 8.06822e-05  4.46408e-04        00000 
 1.61326e-04  4.32673e-04        00000 
 2.07329e-04  4.16893e-04        00000 
 2.23532e-04  4.02680e-04        00000 
 2.15309e-04  3.92405e-04        00000 
 1.87826e-04  3.87210e-04        00000 
 1.45451e-04  3.87009e-04        00000 
 9.12967e-05  3.91053e-04        00000 
 2.72848e-05  3.98356e-04        00000 
-4.56571e-05  4.08235e-04        00000 
-1.27064e-04  4.20816e-04        00000 
-2.16128e-04  4.37478e-04        00000 
-3.10660e-04  4.61268e-04        00000 
-4.05751e-04  4.97294e-04        00000 
-4.92023e-04  5.53088e-04        00000 
-5.53344e-04  6.38768e-04        00000 
-5.63937e-04  7.66755e-04        00000 
-4.85040e-04  9.50511e-04        00000 
-2.61766e-04  1.20155e-03        00000 
 1.78117e-04  1.52368e-03        00000 
 9.19801e-04  1.90354e-03        00000 
 2.04470e-03  2.29794e-03        00000 
 3.59235e-03  2.62421e-03        00000 
 5.50394e-03  2.77496e-03        00000 
 7.63210e-03  2.70336e-03        00000 
 1.00721e-02  2.54049e-03        00000 
 1.26843e-02  2.11278e-03        00000 
 1.55134e-02  1.65102e-03        00000 
 1.81597e-02  6.59795e-04        00000 
 2.00496e-02 -5.25678e-04        00000 
 1.67821e-04  2.21918e-04        00000 
 2.65940e-04  1.92581e-04        00000 
 3.16288e-04  1.65418e-04        00000 
 3.27451e-04  1.45270e-04        00000 
 3.09567e-04  1.34547e-04        00000 
 2.72021e-04  1.32431e-04        00000 
 2.21683e-04  1.36644e-04        00000 
 1.62946e-04  1.43590e-04        00000 
 9.71336e-05  1.49448e-04        00000 
 2.30481e-05  1.50992e-04        00000 
-6.20667e-05  1.45971e-04        00000 
-1.61557e-04  1.33373e-04        00000 
-2.78362e-04  1.13755e-04        00000 
-4.13772e-04  8.97922e-05        00000 
-5.65656e-04  6.70885e-05        00000 
-7.25718e-04  5.52407e-05        00000 
-8.75260e-04  6.90089e-05        00000 
-9.78798e-04  1.29154e-04        00000 
-9.74936e-04  2.61930e-04        00000 
-7.64525e-04  4.95153e-04        00000 
-1.98319e-04  8.46941e-04        00000 
 9.27594e-04  1.30056e-03        00000 
 2.84402e-03  1.75657e-03        00000 
 5.68420e-03  1.96060e-03        00000 
 9.13910e-03  1.47096e-03        00000 
 1.21054e-02  4.20747e-05        00000 
 1.54976e-02 -9.74151e-04        00000 
 1.91063e-02 -2.60463e-03        00000 
 2.36397e-02 -3.24118e-03        00000 
 2.82483e-02 -5.50807e-03        00000 
 3.46672e-04 -4.76421e-05        00000 
 4.48983e-04 -9.90637e-05        00000 
 4.80040e-04 -1.39520e-04        00000 
 4.61228e-04 -1.60329e-04        00000 
 4.12661e-04 -1.61886e-04        00000 
 3.49870e-04 -1.45849e-04        00000 
 2.85592e-04 -1.19284e-04        00000 
 2.24384e-04 -8.98282e-05        00000 
 1.64700e-04 -6.35623e-05        00000 
 1.01617e-04 -4.50757e-05        00000 
 2.84096e-05 -3.80055e-05        00000 
-6.26511e-05 -4.54489e-05        00000 
-1.79837e-04 -7.00755e-05        00000 
-3.31467e-04 -1.13853e-04        00000 
-5.25002e-04 -1.77274e-04        00000 
-7.65205e-04 -2.57904e-04        00000 
-1.05052e-03 -3.48018e-04        00000 
-1.36625e-03 -4.31111e-04        00000 
-1.67217e-03 -4.77290e-04        00000 
-1.88090e-03 -4.38475e-04        00000 
-1.82180e-03 -2.46667e-04        00000 
-1.18432e-03  1.75534e-04        00000 
 5.60684e-04  8.68789e-04        00000 
 4.22919e-03  1.69520e-03        00000 
 1.07510e-02  1.95218e-03        00000 
 1.94786e-02 -4.69296e-04        00000 
 2.21018e-02 -8.59242e-03        00000 
 2.44964e-02 -1.20675e-02        00000 
 2.84143e-02 -1.73449e-02        00000 
 3.71600e-02 -1.60275e-02        00000 
 6.77162e-04 -3.38788e-04        00000 
 7.43672e-04 -4.26817e-04        00000 
 7.11312e-04 -4.83692e-04        00000 
 6.15709e-04 -5.06907e-04        00000 
 4.92465e-04 -4.84086e-04        00000 
 3.84556e-04 -4.34016e-04        00000 
 3.02503e-04 -3.72812e-04        00000 
 2.41515e-04 -3.08410e-04        00000 
 1.92514e-04 -2.44139e-04        00000 
 1.45457e-04 -1.81545e-04        00000 
 9.00240e-05 -1.21983e-04        00000 
 1.54302e-05 -6.74915e-05        00000 
-9.00623e-05 -2.13097e-05        00000 
-2.39730e-04  1.18642e-05        00000 
-4.48894e-04  2.58753e-05        00000 
-7.35075e-04  1.35784e-05        00000 
-1.11725e-03 -3.18095e-05        00000 
-1.61297e-03 -1.13665e-04        00000 
-2.23090e-03 -2.25829e-04        00000 
-2.95343e-03 -3.41155e-04        00000 
-3.69865e-03 -3.91622e-04        00000 
-4.24040e-03 -2.36766e-04        00000 
-4.04246e-03  3.79654e-04        00000 
-1.90036e-03  1.86983e-03        00000 
 4.90575e-03  4.72542e-03        00000 
 2.25347e-02  8.54463e-03        00000 
 5.80052e-02  5.45409e-03        00000 
 5.05884e-02 -3.64970e-02        00000 
 3.34250e-02 -4.78999e-02        00000 
 3.84510e-02 -6.59220e-02        00000 
 1.24362e-03 -5.60918e-04        00000 
 1.24355e-03 -7.23016e-04        00000 
 1.04021e-03 -8.50617e-04        00000 
 7.33212e-04 -8.37830e-04        00000 
 5.05389e-04 -7.80839e-04        00000 
 3.59595e-04 -7.18548e-04        00000 
 2.67739e-04 -6.52732e-04        00000 
 2.07474e-04 -5.77175e-04        00000 
 1.61872e-04 -4.85276e-04        00000 
 1.17099e-04 -3.71394e-04        00000 
 6.07395e-05 -2.30901e-04        00000 
-1.95196e-05 -6.01136e-05        00000 
-1.37148e-04  1.43680e-04        00000 
-3.08108e-04  3.81987e-04        00000 
-5.52407e-04  6.54637e-04        00000 
-8.96000e-04  9.59046e-04        00000 
-1.37311e-03  1.28924e-03        00000 
-2.02884e-03  1.63487e-03        00000 
-2.92149e-03  1.98079e-03        00000 
-4.12205e-03  2.30896e-03        00000 
-5.70451e-03  2.60631e-03        00000 
-7.70925e-03  2.88663e-03        00000 
-1.00386e-02  3.24234e-03        00000 
-1.22012e-02  3.96644e-03        00000 
-1.26342e-02  5.94260e-03        00000 
-5.94037e-03  1.22717e-02        00000 
 3.62212e-02  3.39553e-02        00000 
 2.35581e-01  7.28297e-02        00000 
 8.47079e-02 -8.94521e-02        00000 
-1.72800e-01  4.63964e-03        00000 
 2.13227e-03 -7.98666e-04        00000 
 2.02959e-03 -9.50408e-04        00000 
 1.28130e-03 -8.15434e-04        00000 
 8.13170e-04 -8.53371e-04        00000 
 5.42639e-04 -9.62362e-04        00000 
 3.73026e-04 -1.05317e-03        00000 
 2.60418e-04 -1.09787e-03        00000 
 1.77473e-04 -1.08773e-03        00000 
 1.04036e-04 -1.01773e-03        00000 
 2.34838e-05 -8.82309e-04        00000 
-7.94345e-05 -6.73850e-04        00000 
-2.20371e-04 -3.81835e-04        00000 
-4.17082e-04  7.95318e-06        00000 
-6.91322e-04  5.14299e-04        00000 
-1.07126e-03  1.16161e-03        00000 
-1.59484e-03  1.98130e-03        00000 
-2.31472e-03  3.01356e-03        00000 
-3.30592e-03  4.30991e-03        00000 
-4.67782e-03  5.93681e-03        00000 
-6.59358e-03  7.98168e-03        00000 
-9.30134e-03  1.05644e-02        00000 
-1.31822e-02  1.38620e-02        00000 
-1.88122e-02  1.81648e-02        00000 
-2.69917e-02  2.39585e-02        00000 
-3.86460e-02  3.16784e-02        00000 
-5.41513e-02  3.89149e-02        00000 
-7.12300e-02  2.82516e-02        00000 
 2.27774e-02 -2.60359e-02        00000 
 2.45208e-02  4.70875e-02        00000 
-1.61040e-01 -1.13828e-01        00000 
 1.50155e-03 -7.14182e-04        00000 
 8.00824e-04  7.91509e-05        00000 
 6.05941e-04  2.54256e-04        00000 
 4.01742e-04  1.56542e-04        00000 
 2.63361e-04  6.98134e-05        00000 
 1.74906e-04  2.51971e-05        00000 
 1.17253e-04  4.07929e-06        00000 
 7.47806e-05 -4.73461e-06        00000 
 3.67380e-05 -5.43175e-06        00000 
-5.06202e-06  7.40315e-07        00000 
-5.78350e-05  1.38464e-05        00000 
-1.28904e-04  3.48567e-05        00000 
-2.26573e-04  6.56658e-05        00000 
-3.61042e-04  1.09318e-04        00000 
-5.45554e-04  1.70426e-04        00000 
-7.98022e-04  2.55859e-04        00000 
-1.14350e-03  3.75841e-04        00000 
-1.61812e-03  5.45687e-04        00000 
-2.27584e-03  7.88615e-04        00000 
-3.20044e-03  1.14043e-03        00000 
-4.52936e-03  1.65844e-03        00000 
-6.50615e-03  2.44476e-03        00000 
-9.61218e-03  3.73487e-03        00000 
-1.49045e-02  6.25994e-03        00000 
-2.48655e-02  1.23891e-02        00000 
-4.42005e-02  2.74691e-02        00000 
-7.96929e-02  4.83917e-02        00000 
-5.98760e-02  3.64532e-03        00000 
-4.97476e-02 -8.45477e-02        00000 
-6.75764e-02 -8.04121e-02        00000 
-4.49363e-04  3.65513e-04        00000 
-1.28196e-04  1.11825e-04        00000 
-5.83013e-05  1.73732e-05        00000 
-8.45289e-05  8.15170e-06        00000 
-6.81605e-05  4.88568e-05        00000 
-4.65069e-05  8.39786e-05        00000 
-2.87632e-05  1.02997e-04        00000 
-1.46323e-05  1.08166e-04        00000 
-1.79537e-06  1.01523e-04        00000 
 1.18501e-05  8.33916e-05        00000 
 2.81612e-05  5.28620e-05        00000 
 4.90035e-05  8.01822e-06        00000 
 7.64953e-05 -5.41399e-05        00000 
 1.13255e-04 -1.37968e-04        00000 
 1.62713e-04 -2.49621e-04        00000 
 2.29552e-04 -3.97731e-04        00000 
 3.20415e-04 -5.94406e-04        00000 
 4.45074e-04 -8.56739e-04        00000 
 6.18607e-04 -1.20916e-03        00000 
 8.65966e-04 -1.68772e-03        00000 
 1.23305e-03 -2.35070e-03        00000 
 1.81582e-03 -3.31400e-03        00000 
 2.82980e-03 -4.86849e-03        00000 
 4.72856e-03 -7.77225e-03        00000 
 8.06014e-03 -1.34553e-02        00000 
 1.23173e-02 -2.18152e-02        00000 
 7.62351e-03 -2.07372e-02        00000 
-4.95068e-03  6.72930e-03        00000 
 3.26916e-03  3.73390e-02        00000 
 3.74414e-02  4.61964e-02        00000 
 1.81802e-04 -2.02852e-04        00000 
 3.66886e-06 -1.29306e-04        00000 
-1.97009e-05 -7.92424e-05        00000 
 8.39315e-06 -5.36317e-05        00000 
 2.04052e-05 -6.09654e-05        00000 
 1.71139e-05 -7.90123e-05        00000 
 1.01314e-05 -9.16442e-05        00000 
 3.18353e-06 -9.48189e-05        00000 
-3.40822e-06 -8.82987e-05        00000 
-1.02195e-05 -7.19057e-05        00000 
-1.79356e-05 -4.47293e-05        00000 
-2.72727e-05 -5.04085e-06        00000 
-3.90525e-05  4.98090e-05        00000 
-5.43081e-05  1.23622e-04        00000 
-7.44256e-05  2.21727e-04        00000 
-1.01357e-04  3.51542e-04        00000 
-1.37981e-04  5.23397e-04        00000 
-1.88787e-04  7.51795e-04        00000 
-2.61375e-04  1.05761e-03        00000 
-3.70131e-04  1.47297e-03        00000 
-5.45443e-04  2.05502e-03        00000 
-8.53258e-04  2.92413e-03        00000 
-1.41755e-03  4.34386e-03        00000 
-2.34995e-03  6.75947e-03        00000 
-3.32138e-03  1.02889e-02        00000 
-2.14905e-03  1.25804e-02        00000 
 3.60711e-03  7.62284e-03        00000 
 9.50096e-03 -7.02858e-03        00000 
 3.53002e-03 -2.06954e-02        00000 
-2.08936e-02 -2.63466e-02        00000 
-9.68955e-05  1.26778e-04        00000 
 7.04281e-06  1.07774e-04        00000 
 2.23879e-05  8.27246e-05        00000 
 6.13523e-06  6.13829e-05        00000 
-5.53475e-06  5.75978e-05        00000 
-7.77835e-06  6.44587e-05        00000 
-4.99036e-06  7.13900e-05        00000 
-7.70640e-07  7.28337e-05        00000 
 3.71030e-06  6.70112e-05        00000 
 8.40936e-06  5.31983e-05        00000 
 1.36364e-05  3.04796e-05        00000 
 1.98085e-05 -2.63786e-06        00000 
 2.74344e-05 -4.84003e-05        00000 
 3.71732e-05 -1.10018e-04        00000 
 4.99347e-05 -1.91982e-04        00000 
 6.70447e-05 -3.00542e-04        00000 
 9.05510e-05 -4.44418e-04        00000 