<?xml version="1.0" encoding="utf-8"?>
<VTKFile byte_order="LittleEndian" type="UnstructuredGrid" version="0.1">
   <UnstructuredGrid>
      <Piece NumberOfCells="3364" NumberOfPoints="1741">
         <Points>
            <DataArray Name="Points" NumberOfComponents="3" format="ascii" type="Float32">
0.0000 1.0000 0.0000
0.0000 1.0345 0.0000
0.0000 1.0690 0.0000
0.0000 1.1034 0.0000
0.0000 1.1379 0.0000
0.0000 1.1724 0.0000
0.0000 1.2069 0.0000
0.0000 1.2414 0.0000
0.0000 1.2759 0.0000
0.0000 1.3103 0.0000
0.0000 1.3448 0.0000
0.0000 1.3793 0.0000
0.0000 1.4138 0.0000
0.0000 1.4483 0.0000
0.0000 1.4828 0.0000
0.0000 1.5172 0.0000
0.0000 1.5517 0.0000
0.0000 1.5862 0.0000
0.0000 1.6207 0.0000
0.0000 1.6552 0.0000
0.0000 1.6897 0.0000
0.0000 1.7241 0.0000
0.0000 1.7586 0.0000
0.0000 1.7931 0.0000
0.0000 1.8276 0.0000
0.0000 1.8621 0.0000
0.0000 1.8966 0.0000
0.0000 1.9310 0.0000
0.0000 1.9655 0.0000
0.0000 2.0000 0.0000
0.0690 1.0000 0.0000
0.0690 1.0345 0.0000
0.0690 1.0690 0.0000
0.0690 1.1034 0.0000
0.0690 1.1379 0.0000
0.0690 1.1724 0.0000
0.0690 1.2069 0.0000
0.0690 1.2414 0.0000
0.0690 1.2759 0.0000
0.0690 1.3103 0.0000
0.0690 1.3448 0.0000
0.0690 1.3793 0.0000
0.0690 1.4138 0.0000
0.0690 1.4483 0.0000
0.0690 1.4828 0.0000
0.0690 1.5172 0.0000
0.0690 1.5517 0.0000
0.0690 1.5862 0.0000
0.0690 1.6207 0.0000
0.0690 1.6552 0.0000
0.0690 1.6897 0.0000
0.0690 1.7241 0.0000
0.0690 1.7586 0.0000
0.0690 1.7931 0.0000
0.0690 1.8276 0.0000
0.0690 1.8621 0.0000
0.0690 1.8966 0.0000
0.0690 1.9310 0.0000
0.0690 1.9655 0.0000
0.0690 2.0000 0.0000
0.1379 1.0000 0.0000
0.1379 1.0345 0.0000
0.1379 1.0690 0.0000
0.1379 1.1034 0.0000
0.1379 1.1379 0.0000
0.1379 1.1724 0.0000
0.1379 1.2069 0.0000
0.1379 1.2414 0.0000
0.1379 1.2759 0.0000
0.1379 1.3103 0.0000
0.1379 1.3448 0.0000
0.1379 1.3793 0.0000
0.1379 1.4138 0.0000
0.1379 1.4483 0.0000
0.1379 1.4828 0.0000
0.1379 1.5172 0.0000
0.1379 1.5517 0.0000
0.1379 1.5862 0.0000
0.1379 1.6207 0.0000
0.1379 1.6552 0.0000
0.1379 1.6897 0.0000
0.1379 1.7241 0.0000
0.1379 1.7586 0.0000
0.1379 1.7931 0.0000
0.1379 1.8276 0.0000
0.1379 1.8621 0.0000
0.1379 1.8966 0.0000
0.1379 1.9310 0.0000
0.1379 1.9655 0.0000
0.1379 2.0000 0.0000
0.2069 1.0000 0.0000
0.2069 1.0345 0.0000
0.2069 1.0690 0.0000
0.2069 1.1034 0.0000
0.2069 1.1379 0.0000
0.2069 1.1724 0.0000
0.2069 1.2069 0.0000
0.2069 1.2414 0.0000
0.2069 1.2759 0.0000
0.2069 1.3103 0.0000
0.2069 1.3448 0.0000
0.2069 1.3793 0.0000
0.2069 1.4138 0.0000
0.2069 1.4483 0.0000
0.2069 1.4828 0.0000
0.2069 1.5172 0.0000
0.2069 1.5517 0.0000
0.2069 1.5862 0.0000
0.2069 1.6207 0.0000
0.2069 1.6552 0.0000
0.2069 1.6897 0.0000
0.2069 1.7241 0.0000
0.2069 1.7586 0.0000
0.2069 1.7931 0.0000
0.2069 1.8276 0.0000
0.2069 1.8621 0.0000
0.2069 1.8966 0.0000
0.2069 1.9310 0.0000
0.2069 1.9655 0.0000
0.2069 2.0000 0.0000
0.2759 1.0000 0.0000
0.2759 1.0345 0.0000
0.2759 1.0690 0.0000
0.2759 1.1034 0.0000
0.2759 1.1379 0.0000
0.2759 1.1724 0.0000
0.2759 1.2069 0.0000
0.2759 1.2414 0.0000
0.2759 1.2759 0.0000
0.2759 1.3103 0.0000
0.2759 1.3448 0.0000
0.2759 1.3793 0.0000
0.2759 1.4138 0.0000
0.2759 1.4483 0.0000
0.2759 1.4828 0.0000
0.2759 1.5172 0.0000
0.2759 1.5517 0.0000
0.2759 1.5862 0.0000
0.2759 1.6207 0.0000
0.2759 1.6552 0.0000
0.2759 1.6897 0.0000
0.2759 1.7241 0.0000
0.2759 1.7586 0.0000
0.2759 1.7931 0.0000
0.2759 1.8276 0.0000
0.2759 1.8621 0.0000
0.2759 1.8966 0.0000
0.2759 1.9310 0.0000
0.2759 1.9655 0.0000
0.2759 2.0000 0.0000
0.3448 1.0000 0.0000
0.3448 1.0345 0.0000
0.3448 1.0690 0.0000
0.3448 1.1034 0.0000
0.3448 1.1379 0.0000
0.3448 1.1724 0.0000
0.3448 1.2069 0.0000
0.3448 1.2414 0.0000
0.3448 1.2759 0.0000
0.3448 1.3103 0.0000
0.3448 1.3448 0.0000
0.3448 1.3793 0.0000
0.3448 1.4138 0.0000
0.3448 1.4483 0.0000
0.3448 1.4828 0.0000
0.3448 1.5172 0.0000
0.3448 1.5517 0.0000
0.3448 1.5862 0.0000
0.3448 1.6207 0.0000
0.3448 1.6552 0.0000
0.3448 1.6897 0.0000
0.3448 1.7241 0.0000
0.3448 1.7586 0.0000
0.3448 1.7931 0.0000
0.3448 1.8276 0.0000
0.3448 1.8621 0.0000
0.3448 1.8966 0.0000
0.3448 1.9310 0.0000
0.3448 1.9655 0.0000
0.3448 2.0000 0.0000
0.4138 1.0000 0.0000
0.4138 1.0345 0.0000
0.4138 1.0690 0.0000
0.4138 1.1034 0.0000
0.4138 1.1379 0.0000
0.4138 1.1724 0.0000
0.4138 1.2069 0.0000
0.4138 1.2414 0.0000
0.4138 1.2759 0.0000
0.4138 1.3103 0.0000
0.4138 1.3448 0.0000
0.4138 1.3793 0.0000
0.4138 1.4138 0.0000
0.4138 1.4483 0.0000
0.4138 1.4828 0.0000
0.4138 1.5172 0.0000
0.4138 1.5517 0.0000
0.4138 1.5862 0.0000
0.4138 1.6207 0.0000
0.4138 1.6552 0.0000
0.4138 1.6897 0.0000
0.4138 1.7241 0.0000
0.4138 1.7586 0.0000
0.4138 1.7931 0.0000
0.4138 1.8276 0.0000
0.4138 1.8621 0.0000
0.4138 1.8966 0.0000
0.4138 1.9310 0.0000
0.4138 1.9655 0.0000
0.4138 2.0000 0.0000
0.4828 1.0000 0.0000
0.4828 1.0345 0.0000
0.4828 1.0690 0.0000
0.4828 1.1034 0.0000
0.4828 1.1379 0.0000
0.4828 1.1724 0.0000
0.4828 1.2069 0.0000
0.4828 1.2414 0.0000
0.4828 1.2759 0.0000
0.4828 1.3103 0.0000
0.4828 1.3448 0.0000
0.4828 1.3793 0.0000
0.4828 1.4138 0.0000
0.4828 1.4483 0.0000
0.4828 1.4828 0.0000
0.4828 1.5172 0.0000
0.4828 1.5517 0.0000
0.4828 1.5862 0.0000
0.4828 1.6207 0.0000
0.4828 1.6552 0.0000
0.4828 1.6897 0.0000
0.4828 1.7241 0.0000
0.4828 1.7586 0.0000
0.4828 1.7931 0.0000
0.4828 1.8276 0.0000
0.4828 1.8621 0.0000
0.4828 1.8966 0.0000
0.4828 1.9310 0.0000
0.4828 1.9655 0.0000
0.4828 2.0000 0.0000
0.5517 1.0000 0.0000
0.5517 1.0345 0.0000
0.5517 1.0690 0.0000
0.5517 1.1034 0.0000
0.5517 1.1379 0.0000
0.5517 1.1724 0.0000
0.5517 1.2069 0.0000
0.5517 1.2414 0.0000
0.5517 1.2759 0.0000
0.5517 1.3103 0.0000
0.5517 1.3448 0.0000
0.5517 1.3793 0.0000
0.5517 1.4138 0.0000
0.5517 1.4483 0.0000
0.5517 1.4828 0.0000
0.5517 1.5172 0.0000
0.5517 1.5517 0.0000
0.5517 1.5862 0.0000
0.5517 1.6207 0.0000
0.5517 1.6552 0.0000
0.5517 1.6897 0.0000
0.5517 1.7241 0.0000
0.5517 1.7586 0.0000
0.5517 1.7931 0.0000
0.5517 1.8276 0.0000
0.5517 1.8621 0.0000
0.5517 1.8966 0.0000
0.5517 1.9310 0.0000
0.5517 1.9655 0.0000
0.5517 2.0000 0.0000
0.6207 1.0000 0.0000
0.6207 1.0345 0.0000
0.6207 1.0690 0.0000
0.6207 1.1034 0.0000
0.6207 1.1379 0.0000
0.6207 1.1724 0.0000
0.6207 1.2069 0.0000
0.6207 1.2414 0.0000
0.6207 1.2759 0.0000
0.6207 1.3103 0.0000
0.6207 1.3448 0.0000
0.6207 1.3793 0.0000
0.6207 1.4138 0.0000
0.6207 1.4483 0.0000
0.6207 1.4828 0.0000
0.6207 1.5172 0.0000
0.6207 1.5517 0.0000
0.6207 1.5862 0.0000
0.6207 1.6207 0.0000
0.6207 1.6552 0.0000
0.6207 1.6897 0.0000
0.6207 1.7241 0.0000
0.6207 1.7586 0.0000
0.6207 1.7931 0.0000
0.6207 1.8276 0.0000
0.6207 1.8621 0.0000
0.6207 1.8966 0.0000
0.6207 1.9310 0.0000
0.6207 1.9655 0.0000
0.6207 2.0000 0.0000
0.6897 1.0000 0.0000
0.6897 1.0345 0.0000
0.6897 1.0690 0.0000
0.6897 1.1034 0.0000
0.6897 1.1379 0.0000
0.6897 1.1724 0.0000
0.6897 1.2069 0.0000
0.6897 1.2414 0.0000
0.6897 1.2759 0.0000
0.6897 1.3103 0.0000
0.6897 1.3448 0.0000
0.6897 1.3793 0.0000
0.6897 1.4138 0.0000
0.6897 1.4483 0.0000
0.6897 1.4828 0.0000
0.6897 1.5172 0.0000
0.6897 1.5517 0.0000
0.6897 1.5862 0.0000
0.6897 1.6207 0.0000
0.6897 1.6552 0.0000
0.6897 1.6897 0.0000
0.6897 1.7241 0.0000
0.6897 1.7586 0.0000
0.6897 1.7931 0.0000
0.6897 1.8276 0.0000
0.6897 1.8621 0.0000
0.6897 1.8966 0.0000
0.6897 1.9310 0.0000
0.6897 1.9655 0.0000
0.6897 2.0000 0.0000
0.7586 1.0000 0.0000
0.7586 1.0345 0.0000
0.7586 1.0690 0.0000
0.7586 1.1034 0.0000
0.7586 1.1379 0.0000
0.7586 1.1724 0.0000
0.7586 1.2069 0.0000
0.7586 1.2414 0.0000
0.7586 1.2759 0.0000
0.7586 1.3103 0.0000
0.7586 1.3448 0.0000
0.7586 1.3793 0.0000
0.7586 1.4138 0.0000
0.7586 1.4483 0.0000
0.7586 1.4828 0.0000
0.7586 1.5172 0.0000
0.7586 1.5517 0.0000
0.7586 1.5862 0.0000
0.7586 1.6207 0.0000
0.7586 1.6552 0.0000
0.7586 1.6897 0.0000
0.7586 1.7241 0.0000
0.7586 1.7586 0.0000
0.7586 1.7931 0.0000
0.7586 1.8276 0.0000
0.7586 1.8621 0.0000
0.7586 1.8966 0.0000
0.7586 1.9310 0.0000
0.7586 1.9655 0.0000
0.7586 2.0000 0.0000
0.8276 1.0000 0.0000
0.8276 1.0345 0.0000
0.8276 1.0690 0.0000
0.8276 1.1034 0.0000
0.8276 1.1379 0.0000
0.8276 1.1724 0.0000
0.8276 1.2069 0.0000
0.8276 1.2414 0.0000
0.8276 1.2759 0.0000
0.8276 1.3103 0.0000
0.8276 1.3448 0.0000
0.8276 1.3793 0.0000
0.8276 1.4138 0.0000
0.8276 1.4483 0.0000
0.8276 1.4828 0.0000
0.8276 1.5172 0.0000
0.8276 1.5517 0.0000
0.8276 1.5862 0.0000
0.8276 1.6207 0.0000
0.8276 1.6552 0.0000
0.8276 1.6897 0.0000
0.8276 1.7241 0.0000
0.8276 1.7586 0.0000
0.8276 1.7931 0.0000
0.8276 1.8276 0.0000
0.8276 1.8621 0.0000
0.8276 1.8966 0.0000
0.8276 1.9310 0.0000
0.8276 1.9655 0.0000
0.8276 2.0000 0.0000
0.8966 1.0000 0.0000
0.8966 1.0345 0.0000
0.8966 1.0690 0.0000
0.8966 1.1034 0.0000
0.8966 1.1379 0.0000
0.8966 1.1724 0.0000
0.8966 1.2069 0.0000
0.8966 1.2414 0.0000
0.8966 1.2759 0.0000
0.8966 1.3103 0.0000
0.8966 1.3448 0.0000
0.8966 1.3793 0.0000
0.8966 1.4138 0.0000
0.8966 1.4483 0.0000
0.8966 1.4828 0.0000
0.8966 1.5172 0.0000
0.8966 1.5517 0.0000
0.8966 1.5862 0.0000
0.8966 1.6207 0.0000
0.8966 1.6552 0.0000
0.8966 1.6897 0.0000
0.8966 1.7241 0.0000
0.8966 1.7586 0.0000
0.8966 1.7931 0.0000
0.8966 1.8276 0.0000
0.8966 1.8621 0.0000
0.8966 1.8966 0.0000
0.8966 1.9310 0.0000
0.8966 1.9655 0.0000
0.8966 2.0000 0.0000
0.9655 1.0000 0.0000
0.9655 1.0345 0.0000
0.9655 1.0690 0.0000
0.9655 1.1034 0.0000
0.9655 1.1379 0.0000
0.9655 1.1724 0.0000
0.9655 1.2069 0.0000
0.9655 1.2414 0.0000
0.9655 1.2759 0.0000
0.9655 1.3103 0.0000
0.9655 1.3448 0.0000
0.9655 1.3793 0.0000
0.9655 1.4138 0.0000
0.9655 1.4483 0.0000
0.9655 1.4828 0.0000
0.9655 1.5172 0.0000
0.9655 1.5517 0.0000
0.9655 1.5862 0.0000
0.9655 1.6207 0.0000
0.9655 1.6552 0.0000
0.9655 1.6897 0.0000
0.9655 1.7241 0.0000
0.9655 1.7586 0.0000
0.9655 1.7931 0.0000
0.9655 1.8276 0.0000
0.9655 1.8621 0.0000
0.9655 1.8966 0.0000
0.9655 1.9310 0.0000
0.9655 1.9655 0.0000
0.9655 2.0000 0.0000
1.0345 1.0000 0.0000
1.0345 1.0345 0.0000
1.0345 1.0690 0.0000
1.0345 1.1034 0.0000
1.0345 1.1379 0.0000
1.0345 1.1724 0.0000
1.0345 1.2069 0.0000
1.0345 1.2414 0.0000
1.0345 1.2759 0.0000
1.0345 1.3103 0.0000
1.0345 1.3448 0.0000
[...]
         <PointData>
            <DataArray Name="fValues" NumberOfComponents="3" format="ascii" type="Float64">
 1.21676e-20  2.79286e-20        00000 
 1.14988e-20  8.62411e-21        00000 
       00000 -1.42136e-21        00000 
-5.00035e-21 -7.85769e-21        00000 
 3.41127e-20  1.70564e-20        00000 
 4.58261e-20 -2.92393e-20        00000 
-1.70564e-20 -1.98991e-20        00000 
 5.00035e-21  5.00035e-21        00000 
-8.52818e-21  2.84273e-21        00000 
 4.08642e-20  2.19108e-20        00000 
-2.84273e-21  3.97982e-20        00000 
 1.66083e-20 -1.17865e-19        00000 
-3.12700e-20  2.84273e-20        00000 
-3.00563e-21 -7.37157e-20        00000 
-2.55845e-20 -1.13709e-20        00000 
-1.87513e-20 -4.10743e-20        00000 
 2.41632e-20  7.39109e-20        00000 
-3.88703e-21 -8.46549e-20        00000 
-1.42136e-21 -2.27418e-20        00000 
 1.32152e-20  6.14328e-20        00000 
 8.52818e-21 -1.42136e-20        00000 
 1.68002e-20  6.66398e-20        00000 
-4.97477e-21        00000        00000 
 5.58074e-21 -5.57182e-20        00000 
 5.68545e-21 -2.84273e-21        00000 
 8.42097e-21 -3.61539e-21        00000 
-7.81750e-21  4.26409e-20        00000 
 8.49855e-21 -5.88637e-20        00000 
 3.58389e-21  1.21852e-20        00000 
 2.16675e-20 -1.80886e-20        00000 
 4.13840e-04  2.10067e-04        00000 
 3.90646e-04  1.06422e-04        00000 
 3.88321e-04  1.81305e-05        00000 
 3.83673e-04 -5.79091e-05        00000 
 3.74611e-04 -1.23786e-04        00000 
 3.61436e-04 -1.80585e-04        00000 
 3.44916e-04 -2.28996e-04        00000 
 3.25873e-04 -2.69566e-04        00000 
 3.05073e-04 -3.02812e-04        00000 
 2.83194e-04 -3.29265e-04        00000 
 2.60821e-04 -3.49489e-04        00000 
 2.38447e-04 -3.64076e-04        00000 
 2.16477e-04 -3.73644e-04        00000 
 1.95233e-04 -3.78818e-04        00000 
 1.74962e-04 -3.80221e-04        00000 
 1.55846e-04 -3.78458e-04        00000 
 1.38010e-04 -3.74104e-04        00000 
 1.21534e-04 -3.67689e-04        00000 
 1.06464e-04 -3.59691e-04        00000 
 9.28358e-05 -3.50528e-04        00000 
 8.06906e-05 -3.40553e-04        00000 
 7.01109e-05 -3.30064e-04        00000 
 6.12667e-05 -3.19320e-04        00000 
 5.44921e-05 -3.08580e-04        00000 
 5.04184e-05 -2.98192e-04        00000 
 5.02302e-05 -2.88761e-04        00000 
 5.62119e-05 -2.81504e-04        00000 
 7.31111e-05 -2.79014e-04        00000 
 1.12363e-04 -2.87016e-04        00000 
 2.17425e-04 -3.17108e-04        00000 
 8.26366e-04  1.37334e-04        00000 
 8.60189e-04  3.38180e-05        00000 
 8.61065e-04 -7.66694e-05        00000 
 8.46989e-04 -1.82687e-04        00000 
 8.21095e-04 -2.80195e-04        00000 
 7.85932e-04 -3.67440e-04        00000 
 7.43779e-04 -4.43647e-04        00000 
 6.96668e-04 -5.08601e-04        00000 
 6.46381e-04 -5.62467e-04        00000 
 5.94450e-04 -6.05685e-04        00000 
 5.42174e-04 -6.38908e-04        00000 
 4.90630e-04 -6.62941e-04        00000 
 4.40681e-04 -6.78701e-04        00000 
 3.93003e-04 -6.87173e-04        00000 
 3.48095e-04 -6.89380e-04        00000 
 3.06303e-04 -6.86347e-04        00000 
 2.67836e-04 -6.79079e-04        00000 
 2.32800e-04 -6.68534e-04        00000 
 2.01221e-04 -6.55608e-04        00000 
 1.73085e-04 -6.41122e-04        00000 
 1.48391e-04 -6.25823e-04        00000 
 1.27214e-04 -6.10394e-04        00000 
 1.09807e-04 -5.95483e-04        00000 
 9.67414e-05 -5.81755e-04        00000 
 8.91451e-05 -5.69969e-04        00000 
 8.90909e-05 -5.61081e-04        00000 
 1.00289e-04 -5.56332e-04        00000 
 1.29330e-04 -5.57113e-04        00000 
 1.87707e-04 -5.63708e-04        00000 
 2.81866e-04 -5.68722e-04        00000 
 1.31915e-03 -3.33354e-08        00000 
 1.36971e-03 -1.21737e-04        00000 
 1.37851e-03 -2.42626e-04        00000 
 1.35571e-03 -3.60452e-04        00000 
 1.31054e-03 -4.71130e-04        00000 
 1.24904e-03 -5.71793e-04        00000 
 1.17585e-03 -6.60684e-04        00000 
 1.09479e-03 -7.36888e-04        00000 
 1.00904e-03 -8.00131e-04        00000 
 9.21254e-04 -8.50626e-04        00000 
 8.33645e-04 -8.88957e-04        00000 
 7.48002e-04 -9.15987e-04        00000 
 6.65748e-04 -9.32786e-04        00000 
 5.87969e-04 -9.40568e-04        00000 
 5.15452e-04 -9.40637e-04        00000 
 4.48714e-04 -9.34340e-04        00000 
 3.88039e-04 -9.23027e-04        00000 
 3.33519e-04 -9.08010e-04        00000 
 2.85101e-04 -8.90533e-04        00000 
 2.42647e-04 -8.71753e-04        00000 
 2.06005e-04 -8.52719e-04        00000 
 1.75102e-04 -8.34374e-04        00000 
 1.50069e-04 -8.17551e-04        00000 
 1.31390e-04 -8.02981e-04        00000 
 1.20113e-04 -7.91280e-04        00000 
 1.18109e-04 -7.82884e-04        00000 
 1.28339e-04 -7.77858e-04        00000 
 1.54875e-04 -7.75409e-04        00000 
 2.01380e-04 -7.73019e-04        00000 
 2.71571e-04 -7.67813e-04        00000 
 1.89979e-03 -1.52863e-04        00000 
 1.94633e-03 -2.92382e-04        00000 
 1.94475e-03 -4.27605e-04        00000 
 1.90400e-03 -5.55805e-04        00000 
 1.83261e-03 -6.74560e-04        00000 
 1.73844e-03 -7.81612e-04        00000 
 1.62812e-03 -8.75341e-04        00000 
 1.50724e-03 -9.54819e-04        00000 
 1.38046e-03 -1.01973e-03        00000 
 1.25167e-03 -1.07029e-03        00000 
 1.12408e-03 -1.10711e-03        00000 
 1.00028e-03 -1.13117e-03        00000 
 8.82301e-04 -1.14369e-03        00000 
 7.71707e-04 -1.14611e-03        00000 
 6.69599e-04 -1.14000e-03        00000 
 5.76672e-04 -1.12702e-03        00000 
 4.93258e-04 -1.10884e-03        00000 
 4.19379e-04 -1.08712e-03        00000 
 3.54810e-04 -1.06338e-03        00000 
 2.99151e-04 -1.03907e-03        00000 
 2.51921e-04 -1.01541e-03        00000 
 2.12659e-04 -9.93474e-04        00000 
 1.81039e-04 -9.74067e-04        00000 
 1.56998e-04 -9.57751e-04        00000 
 1.40853e-04 -9.44755e-04        00000 
 1.33393e-04 -9.34883e-04        00000 
 1.35853e-04 -9.27350e-04        00000 
 1.49664e-04 -9.20612e-04        00000 
 1.76422e-04 -9.12477e-04        00000 
 2.17486e-04 -8.99849e-04        00000 
 2.57382e-03 -2.87680e-04        00000 
 2.60108e-03 -4.47684e-04        00000 
 2.57299e-03 -5.99249e-04        00000 
 2.49908e-03 -7.39576e-04        00000 
 2.38895e-03 -8.66433e-04        00000 
 2.25160e-03 -9.78238e-04        00000 
 2.09514e-03 -1.07394e-03        00000 
 1.92661e-03 -1.15304e-03        00000 
 1.75197e-03 -1.21550e-03        00000 
 1.57622e-03 -1.26173e-03        00000 
 1.40353e-03 -1.29251e-03        00000 
 1.23727e-03 -1.30900e-03        00000 
 1.08015e-03 -1.31265e-03        00000 
 9.34235e-04 -1.30519e-03        00000 
 8.00965e-04 -1.28855e-03        00000 
 6.81211e-04 -1.26478e-03        00000 
 5.75302e-04 -1.23596e-03        00000 
 4.83088e-04 -1.20412e-03        00000 
 4.04014e-04 -1.17114e-03        00000 
 3.37217e-04 -1.13869e-03        00000 
 2.81639e-04 -1.10816e-03        00000 
 2.36135e-04 -1.08066e-03        00000 
 1.99592e-04 -1.05690e-03        00000 
 1.71026e-04 -1.03724e-03        00000 
 1.49654e-04 -1.02155e-03        00000 
 1.34928e-04 -1.00922e-03        00000 
 1.26505e-04 -9.99084e-04        00000 
 1.24224e-04 -9.89393e-04        00000 
 1.28004e-04 -9.77788e-04        00000 
 1.37797e-04 -9.61401e-04        00000 
 3.35396e-03 -3.78092e-04        00000 
 3.34607e-03 -5.61801e-04        00000 
 3.27383e-03 -7.32448e-04        00000 
 3.14946e-03 -8.86946e-04        00000 
 2.98475e-03 -1.02348e-03        00000 
 2.79050e-03 -1.14102e-03        00000 
 2.57619e-03 -1.23917e-03        00000 
 2.34995e-03 -1.31782e-03        00000 
 2.11872e-03 -1.37721e-03        00000 
 1.88838e-03 -1.41782e-03        00000 
 1.66395e-03 -1.44055e-03        00000 
 1.44965e-03 -1.44668e-03        00000 
 1.24897e-03 -1.43798e-03        00000 
 1.06458e-03 -1.41662e-03        00000 
 8.98376e-04 -1.38509e-03        00000 
 7.51387e-04 -1.34606e-03        00000 
 6.23852e-04 -1.30226e-03        00000 
 5.15262e-04 -1.25625e-03        00000 
 4.24482e-04 -1.21038e-03        00000 
 3.49889e-04 -1.16664e-03        00000 
 2.89532e-04 -1.12657e-03        00000 
 2.41271e-04 -1.09130e-03        00000 
 2.02915e-04 -1.06146e-03        00000 
 1.72315e-04 -1.03719e-03        00000 
 1.47433e-04 -1.01812e-03        00000 
 1.26383e-04 -1.00336e-03        00000 
 1.07443e-04 -9.91492e-04        00000 
 8.90446e-05 -9.80556e-04        00000 
 6.97741e-05 -9.68074e-04        00000 
 4.83607e-05 -9.51071e-04        00000 
 4.25963e-03 -3.91730e-04        00000 
 4.19570e-03 -6.03497e-04        00000 
 4.05779e-03 -7.96378e-04        00000 
 3.86288e-03 -9.68021e-04        00000 
 3.62606e-03 -1.11753e-03        00000 
 3.35991e-03 -1.24499e-03        00000 
 3.07477e-03 -1.35022e-03        00000 
 2.77922e-03 -1.43326e-03        00000 
 2.48055e-03 -1.49370e-03        00000 
 2.18538e-03 -1.53164e-03        00000 
 1.89969e-03 -1.54746e-03        00000 
 1.62897e-03 -1.54254e-03        00000 
 1.37790e-03 -1.51902e-03        00000 
 1.15025e-03 -1.47990e-03        00000 
 9.48531e-04 -1.42875e-03        00000 
 7.73971e-04 -1.36940e-03        00000 
 6.26487e-04 -1.30565e-03        00000 
 5.04840e-04 -1.24098e-03        00000 
 4.06857e-04 -1.17836e-03        00000 
 3.29689e-04 -1.12017e-03        00000 
 2.70069e-04 -1.06812e-03        00000 
 2.24516e-04 -1.02330e-03        00000 
 1.89501e-04 -9.86214e-04        00000 
 1.61540e-04 -9.56786e-04        00000 
 1.37265e-04 -9.34414e-04        00000 
 1.13453e-04 -9.17965e-04        00000 
 8.70449e-05 -9.05790e-04        00000 
 5.51575e-05 -8.95721e-04        00000 
 1.50982e-05 -8.85088e-04        00000 
-3.56141e-05 -8.70725e-04        00000 
 5.31570e-03 -2.79736e-04        00000 
 5.16486e-03 -5.24111e-04        00000 
 4.93406e-03 -7.42883e-04        00000 
 4.64731e-03 -9.36501e-04        00000 
 4.32218e-03 -1.10737e-03        00000 
 3.97137e-03 -1.25594e-03        00000 
 3.60362e-03 -1.38242e-03        00000 
 3.22609e-03 -1.48384e-03        00000 
 2.84583e-03 -1.55825e-03        00000 
 2.47026e-03 -1.60265e-03        00000 
 2.10775e-03 -1.61685e-03        00000 
 1.76626e-03 -1.60163e-03        00000 
 1.45337e-03 -1.56054e-03        00000 
 1.17467e-03 -1.49835e-03        00000 
 9.33809e-04 -1.42101e-03        00000 
 7.31931e-04 -1.33462e-03        00000 
 5.67991e-04 -1.24487e-03        00000 
 4.39137e-04 -1.15660e-03        00000 
 3.41250e-04 -1.07353e-03        00000 
 2.69490e-04 -9.98329e-04        00000 
 2.18714e-04 -9.32677e-04        00000 
 1.83748e-04 -8.77457e-04        00000 
 1.59528e-04 -8.32883e-04        00000 
 1.41156e-04 -7.98600e-04        00000 
 1.23914e-04 -7.73740e-04        00000 
 1.03254e-04 -7.56940e-04        00000 
 7.47967e-05 -7.46342e-04        00000 
 3.43431e-05 -7.39576e-04        00000 
-2.21038e-05 -7.33759e-04        00000 
-9.83038e-05 -7.25488e-04        00000 
 6.54592e-03  4.02470e-05        00000 
 6.26068e-03 -2.39486e-04        00000 
 5.90713e-03 -4.87280e-04        00000 
 5.51363e-03 -7.14859e-04        00000 
 5.09585e-03 -9.27431e-04        00000 
 4.65731e-03 -1.12897e-03        00000 
 4.19945e-03 -1.31018e-03        00000 
 3.72448e-03 -1.46522e-03        00000 
 3.23877e-03 -1.57992e-03        00000 
 2.75451e-03 -1.65006e-03        00000 
 2.28516e-03 -1.66992e-03        00000 
 1.84694e-03 -1.64375e-03        00000 
 1.45221e-03 -1.57726e-03        00000 
 1.11100e-03 -1.48100e-03        00000 
 8.27554e-04 -1.36585e-03        00000 
 6.01769e-04 -1.24228e-03        00000 
 4.29587e-04 -1.11895e-03        00000 
 3.04399e-04 -1.00216e-03        00000 
 2.18461e-04 -8.95972e-04        00000 
 1.63870e-04 -8.02721e-04        00000 
 1.33069e-04 -7.23475e-04        00000 
 1.19017e-04 -6.58465e-04        00000 
 1.15162e-04 -6.07360e-04        00000 
 1.15322e-04 -5.69415e-04        00000 
 1.13558e-04 -5.43510e-04        00000 
 1.04076e-04 -5.28129e-04        00000 
 8.11838e-05 -5.21299e-04        00000 
 3.93051e-05 -5.20521e-04        00000 
-2.69655e-05 -5.22728e-04        00000 
-1.22787e-04 -5.24262e-04        00000 
 7.94657e-03  7.09836e-04        00000 
 7.46167e-03  4.03360e-04        00000 
 6.96844e-03  1.20425e-04        00000 
 6.49200e-03 -1.67716e-04        00000 
 6.01254e-03 -4.85878e-04        00000 
 5.50866e-03 -8.10968e-04        00000 
 4.95650e-03 -1.13472e-03        00000 
 4.35212e-03 -1.40670e-03        00000 
 3.71018e-03 -1.61754e-03        00000 
 3.05263e-03 -1.73392e-03        00000 
 2.41771e-03 -1.76478e-03        00000 
 1.83222e-03 -1.71078e-03        00000 
 1.32565e-03 -1.59545e-03        00000 
 9.09313e-04 -1.43937e-03        00000 
 5.87071e-04 -1.26490e-03        00000 
 3.51791e-04 -1.08964e-03        00000 
 1.90532e-04 -9.24962e-04        00000 
 8.88379e-05 -7.76992e-04        00000 
 3.31477e-05 -6.48260e-04        00000 
 1.17001e-05 -5.39173e-04        00000 
 1.45849e-05 -4.49071e-04        00000 
 3.33821e-05 -3.76888e-04        00000 
 6.06640e-05 -3.21478e-04        00000 
 8.95216e-05 -2.81715e-04        00000 
 1.13194e-04 -2.56419e-04        00000 
 1.24814e-04 -2.44209e-04        00000 
 1.17341e-04 -2.43269e-04        00000 
 8.36109e-05 -2.51190e-04        00000 
 1.65113e-05 -2.64795e-04        00000 
-9.07877e-05 -2.80146e-04        00000 
 9.41057e-03  1.97391e-03        00000 
 8.65237e-03  1.67708e-03        00000 
 8.10826e-03  1.35498e-03        00000 
 7.67933e-03  8.97234e-04        00000 
 7.27260e-03  3.44403e-04        00000 
 6.75511e-03 -3.15716e-04        00000 
 6.08828e-03 -9.17062e-04        00000 
 5.26732e-03 -1.46733e-03        00000 
 4.32656e-03 -1.81635e-03        00000 
 3.36171e-03 -2.01226e-03        00000 
 2.42693e-03 -2.00480e-03        00000 
 1.61965e-03 -1.86892e-03        00000 
 9.62315e-04 -1.63736e-03        00000 
 4.79283e-04 -1.36888e-03        00000 
 1.52115e-04 -1.10401e-03        00000 
-5.13770e-05 -8.63909e-04        00000 
-1.63098e-04 -6.56482e-04        00000 
-2.09360e-04 -4.82277e-04        00000 
-2.10130e-04 -3.38464e-04        00000 
-1.79980e-04 -2.21153e-04        00000 
-1.29495e-04 -1.26649e-04        00000 
-6.66960e-05 -5.20365e-05        00000 
 1.70397e-06  4.64455e-06        00000 
 6.92621e-05  4.45253e-05        00000 
 1.29106e-04  6.82633e-05        00000 
 1.73609e-04  7.64958e-05        00000 
 1.94148e-04  7.01993e-05        00000 
 1.81393e-04  5.13179e-05        00000 
 1.25721e-04  2.28703e-05        00000 
 1.78130e-05 -1.07066e-05        00000 
 1.04333e-02  4.18803e-03        00000 
 9.54508e-03  4.02485e-03        00000 
 9.32466e-03  3.56560e-03        00000 
 9.45087e-03  2.77518e-03        00000 
 9.35962e-03  1.51805e-03        00000 
 8.95025e-03  2.95466e-04        00000 
 8.04050e-03 -1.07084e-03        00000 
 6.70310e-03 -1.94225e-03        00000 
 5.15613e-03 -2.61944e-03        00000 
 3.49775e-03 -2.71385e-03        00000 
 2.08377e-03 -2.56535e-03        00000 
 9.16159e-04 -2.14166e-03        00000 
 1.49656e-04 -1.65738e-03        00000 
-2.98974e-04 -1.21231e-03        00000 
-5.28331e-04 -8.40124e-04        00000 
-6.17044e-04 -5.42571e-04        00000 
-6.19145e-04 -3.09566e-04        00000 
-5.69514e-04 -1.28222e-04        00000 
-4.89705e-04  1.34426e-05        00000 
-3.92508e-04  1.25177e-04        00000 
-2.85268e-04  2.14171e-04        00000 
-1.72322e-04  2.85105e-04        00000 
-5.69204e-05  3.40338e-04        00000 
 5.71195e-05  3.80208e-04        00000 
 1.63998e-04  4.03620e-04        00000 
 2.55259e-04  4.09139e-04        00000 
 3.20501e-04  3.96221e-04        00000 
 3.46881e-04  3.65043e-04        00000 
 3.20239e-04  3.18455e-04        00000 
 2.26797e-04  2.61295e-04        00000 
 9.34811e-03  7.23991e-03        00000 
 9.32419e-03  7.66444e-03        00000 
 1.09940e-02  7.15861e-03        00000 
 1.24163e-02  5.32365e-03        00000 
 1.36328e-02  3.29066e-03        00000 
 1.32403e-02  1.41901e-05        00000 
 1.16636e-02 -1.93420e-03        00000 
 9.09062e-03 -4.18564e-03        00000 
 5.76165e-03 -4.41517e-03        00000 
 2.97697e-03 -4.43896e-03        00000 
 4.43614e-04 -3.34762e-03        00000 
-7.98589e-04 -2.29247e-03        00000 
-1.32653e-03 -1.46191e-03        00000 
-1.47085e-03 -8.56010e-04        00000 
-1.42449e-03 -4.25076e-04        00000 
-1.28953e-03 -1.20505e-04        00000 
-1.11932e-03  9.59864e-05        00000 
-9.40515e-04  2.52438e-04        00000 
-7.64967e-04  3.68736e-04        00000 
-5.96320e-04  4.58641e-04        00000 
-4.33746e-04  5.31320e-04        00000 
-2.74255e-04  5.92321e-04        00000 
-1.14392e-04  6.44050e-04        00000 
 4.80448e-05  6.85849e-04        00000 
 2.11675e-04  7.13925e-04        00000 
 3.68284e-04  7.21933e-04        00000 
 5.01234e-04  7.04188e-04        00000 
 5.93379e-04  6.61249e-04        00000 
 6.23850e-04  5.92738e-04        00000 
 5.67793e-04  5.05299e-04        00000 
 3.44538e-03  8.79285e-03        00000 
 5.71033e-03  1.05860e-02        00000 
 1.13910e-02  1.17757e-02        00000 
 1.96069e-02  1.05782e-02        00000 
 2.20474e-02  3.68615e-03        00000 
 2.31385e-02  1.67751e-04        00000 
 1.91631e-02 -7.92320e-03        00000 
 1.18958e-02 -8.19911e-03        00000 
 5.34210e-03 -1.01344e-02        00000 
-2.11480e-03 -5.91490e-03        00000 
-3.58532e-03 -3.35347e-03        00000 
-3.69947e-03 -1.79137e-03        00000 
-3.32957e-03 -8.52671e-04        00000 
-2.84513e-03 -2.71984e-04        00000 
-2.36701e-03  9.57112e-05        00000 
-1.93783e-03  3.33710e-04        00000 
-1.56802e-03  4.91509e-04        00000 
-1.25449e-03  5.99498e-04        00000 
-9.88429e-04  6.76788e-04        00000 
-7.58839e-04  7.35700e-04        00000 
-5.54025e-04  7.84371e-04        00000 
-3.62152e-04  8.28174e-04        00000 
-1.71474e-04  8.70258e-04        00000 
 2.92564e-05  9.11248e-04        00000 
 2.49399e-04  9.47901e-04        00000 
 4.91896e-04  9.70319e-04        00000 
 7.40022e-04  9.58894e-04        00000 
 9.40773e-04  8.93829e-04        00000 
 1.06350e-03  7.96553e-04        00000 
 1.09011e-03  6.67936e-04        00000 
-6.68286e-03  4.66164e-03        00000 
-3.79111e-03  7.48921e-03        00000 
 2.39623e-03  1.21159e-02        00000 
 1.92734e-02  1.85692e-02        00000 
 5.43344e-02  2.01127e-02        00000 
 4.89728e-02 -1.33539e-02        00000 
 3.59455e-02 -1.48526e-02        00000 
 1.47448e-02 -3.08713e-02        00000 
-1.61598e-02 -9.00264e-03        00000 
-1.14710e-02 -4.14426e-03        00000 
-8.94431e-03 -1.90648e-03        00000 
-6.81667e-03 -8.11678e-04        00000 
-5.24777e-03 -1.64336e-04        00000 
-4.05289e-03  2.40150e-04        00000 
-3.13803e-03  5.01048e-04        00000 
-2.43450e-03  6.73164e-04        00000 
-1.89065e-03  7.88906e-04        00000 
-1.46627e-03  8.67432e-04        00000 
-1.12982e-03  9.20276e-04        00000 
-8.56072e-04  9.54798e-04        00000 
-6.24008e-04  9.76278e-04        00000 
-4.14983e-04  9.89211e-04        00000 
-2.11153e-04  9.98127e-04        00000 
 6.03355e-06  1.00806e-03        00000 
 2.57544e-04  1.02442e-03        00000 
 5.68837e-04  1.05083e-03        00000 
 9.68272e-04  1.07878e-03        00000 
 1.43758e-03  1.05207e-03        00000 
 1.74151e-03  8.55010e-04        00000 
 1.80970e-03  6.46034e-04        00000 
-1.44420e-02  1.62908e-04        00000 
-1.68376e-02  1.74735e-03        00000 
-1.61766e-02  3.04854e-03        00000 
-8.33042e-03  6.19295e-03        00000 
 3.45957e-02  2.13983e-02        00000 
 2.35271e-01  4.97790e-02        00000 
 9.40603e-02 -1.13328e-01        00000 
-1.09502e-01 -3.78257e-03        00000 
-2.95360e-02 -6.86049e-03        00000 
-2.02941e-02 -4.15333e-03        00000 
-1.32018e-02 -2.28965e-03        00000 
-9.28916e-03 -9.43267e-04        00000 
-6.68753e-03 -1.34160e-04        00000 
-4.91150e-03  3.56336e-04        00000 
-3.65795e-03  6.71468e-04        00000 
-2.75218e-03  8.86377e-04        00000 
-2.08322e-03  1.03654e-03        00000 