<?xml version="1.0" encoding="utf-8"?>
<VTKFile byte_order="LittleEndian" type="UnstructuredGrid" version="0.1">
   <UnstructuredGrid>
      <Piece NumberOfCells="3364" NumberOfPoints="1741">
         <Points>
            <DataArray Name="Points" NumberOfComponents="3" format="ascii" type="Float32">
0.0000 1.0000 0.0000
0.0000 1.0345 0.0000
0.0000 1.0690 0.0000
0.0000 1.1034 0.0000
0.0000 1.1379 0.0000
0.0000 1.1724 0.0000
0.0000 1.2069 0.0000
0.0000 1.2414 0.0000
0.0000 1.2759 0.0000
0.0000 1.3103 0.0000
0.0000 1.3448 0.0000
0.0000 1.3793 0.0000
0.0000 1.4138 0.0000
0.0000 1.4483 0.0000
0.0000 1.4828 0.0000
0.0000 1.5172 0.0000
0.0000 1.5517 0.0000
0.0000 1.5862 0.0000
0.0000 1.6207 0.0000
0.0000 1.6552 0.0000
0.0000 1.6897 0.0000
0.0000 1.7241 0.0000
0.0000 1.7586 0.0000
0.0000 1.7931 0.0000
0.0000 1.8276 0.0000
0.0000 1.8621 0.0000
0.0000 1.8966 0.0000
0.0000 1.9310 0.0000
0.0000 1.9655 0.0000
0.0000 2.0000 0.0000
0.0690 1.0000 0.0000
0.0690 1.0345 0.0000
0.0690 1.0690 0.0000
0.0690 1.1034 0.0000
0.0690 1.1379 0.0000
0.0690 1.1724 0.0000
0.0690 1.2069 0.0000
0.0690 1.2414 0.0000
0.0690 1.2759 0.0000
0.0690 1.3103 0.0000
0.0690 1.3448 0.0000
0.0690 1.3793 0.0000
0.0690 1.4138 0.0000
0.0690 1.4483 0.0000
0.0690 1.4828 0.0000
0.0690 1.5172 0.0000
0.0690 1.5517 0.0000
0.0690 1.5862 0.0000
0.0690 1.6207 0.0000
0.0690 1.6552 0.0000
0.0690 1.6897 0.0000
0.0690 1.7241 0.0000
0.0690 1.7586 0.0000
0.0690 1.7931 0.0000
0.0690 1.8276 0.0000
0.0690 1.8621 0.0000
0.0690 1.8966 0.0000
0.0690 1.9310 0.0000
0.0690 1.9655 0.0000
0.0690 2.0000 0.0000
0.1379 1.0000 0.0000
0.1379 1.0345 0.0000
0.1379 1.0690 0.0000
0.1379 1.1034 0.0000
0.1379 1.1379 0.0000
0.1379 1.1724 0.0000
0.1379 1.2069 0.0000
0.1379 1.2414 0.0000
0.1379 1.2759 0.0000
0.1379 1.3103 0.0000
0.1379 1.3448 0.0000
0.1379 1.3793 0.0000
0.1379 1.4138 0.0000
0.1379 1.4483 0.0000
0.1379 1.4828 0.0000
0.1379 1.5172 0.0000
0.1379 1.5517 0.0000
0.1379 1.5862 0.0000
0.1379 1.6207 0.0000
0.1379 1.6552 0.0000
0.1379 1.6897 0.0000
0.1379 1.7241 0.0000
0.1379 1.7586 0.0000
0.1379 1.7931 0.0000
0.1379 1.8276 0.0000
0.1379 1.8621 0.0000
0.1379 1.8966 0.0000
0.1379 1.9310 0.0000
0.1379 1.9655 0.0000
0.1379 2.0000 0.0000
0.2069 1.0000 0.0000
0.2069 1.0345 0.0000
0.2069 1.0690 0.0000
0.2069 1.1034 0.0000
0.2069 1.1379 0.0000
0.2069 1.1724 0.0000
0.2069 1.2069 0.0000
0.2069 1.2414 0.0000
0.2069 1.2759 0.0000
0.2069 1.3103 0.0000
0.2069 1.3448 0.0000
0.2069 1.3793 0.0000
0.2069 1.4138 0.0000
0.2069 1.4483 0.0000
0.2069 1.4828 0.0000
0.2069 1.5172 0.0000
0.2069 1.5517 0.0000
0.2069 1.5862 0.0000
0.2069 1.6207 0.0000
0.2069 1.6552 0.0000
0.2069 1.6897 0.0000
0.2069 1.7241 0.0000
0.2069 1.7586 0.0000
0.2069 1.7931 0.0000
0.2069 1.8276 0.0000
0.2069 1.8621 0.0000
0.2069 1.8966 0.0000
0.2069 1.9310 0.0000
0.2069 1.9655 0.0000
0.2069 2.0000 0.0000
0.2759 1.0000 0.0000
0.2759 1.0345 0.0000
0.2759 1.0690 0.0000
0.2759 1.1034 0.0000
0.2759 1.1379 0.0000
0.2759 1.1724 0.0000
0.2759 1.2069 0.0000
0.2759 1.2414 0.0000
0.2759 1.2759 0.0000
0.2759 1.3103 0.0000
0.2759 1.3448 0.0000
0.2759 1.3793 0.0000
0.2759 1.4138 0.0000
0.2759 1.4483 0.0000
0.2759 1.4828 0.0000
0.2759 1.5172 0.0000
0.2759 1.5517 0.0000
0.2759 1.5862 0.0000
0.2759 1.6207 0.0000
0.2759 1.6552 0.0000
0.2759 1.6897 0.0000
0.2759 1.7241 0.0000
0.2759 1.7586 0.0000
0.2759 1.7931 0.0000
0.2759 1.8276 0.0000
0.2759 1.8621 0.0000
0.2759 1.8966 0.0000
0.2759 1.9310 0.0000
0.2759 1.9655 0.0000
0.2759 2.0000 0.0000
0.3448 1.0000 0.0000
0.3448 1.0345 0.0000
0.3448 1.0690 0.0000
0.3448 1.1034 0.0000
0.3448 1.1379 0.0000
0.3448 1.1724 0.0000
0.3448 1.2069 0.0000
0.3448 1.2414 0.0000
0.3448 1.2759 0.0000
0.3448 1.3103 0.0000
0.3448 1.3448 0.0000
0.3448 1.3793 0.0000
0.3448 1.4138 0.0000
0.3448 1.4483 0.0000
0.3448 1.4828 0.0000
0.3448 1.5172 0.0000
0.3448 1.5517 0.0000
0.3448 1.5862 0.0000
0.3448 1.6207 0.0000
0.3448 1.6552 0.0000
0.3448 1.6897 0.0000
0.3448 1.7241 0.0000
0.3448 1.7586 0.0000
0.3448 1.7931 0.0000
0.3448 1.8276 0.0000
0.3448 1.8621 0.0000
0.3448 1.8966 0.0000
0.3448 1.9310 0.0000
0.3448 1.9655 0.0000
0.3448 2.0000 0.0000
0.4138 1.0000 0.0000
0.4138 1.0345 0.0000
0.4138 1.0690 0.0000
0.4138 1.1034 0.0000
0.4138 1.1379 0.0000
0.4138 1.1724 0.0000
0.4138 1.2069 0.0000
0.4138 1.2414 0.0000
0.4138 1.2759 0.0000
0.4138 1.3103 0.0000
0.4138 1.3448 0.0000
0.4138 1.3793 0.0000
0.4138 1.4138 0.0000
0.4138 1.4483 0.0000
0.4138 1.4828 0.0000
0.4138 1.5172 0.0000
0.4138 1.5517 0.0000
0.4138 1.5862 0.0000
0.4138 1.6207 0.0000
0.4138 1.6552 0.0000
0.4138 1.6897 0.0000
0.4138 1.7241 0.0000
0.4138 1.7586 0.0000
0.4138 1.7931 0.0000
0.4138 1.8276 0.0000
0.4138 1.8621 0.0000
0.4138 1.8966 0.0000
0.4138 1.9310 0.0000
0.4138 1.9655 0.0000
0.4138 2.0000 0.0000
0.4828 1.0000 0.0000
0.4828 1.0345 0.0000
0.4828 1.0690 0.0000
0.4828 1.1034 0.0000
0.4828 1.1379 0.0000
0.4828 1.1724 0.0000
0.4828 1.2069 0.0000
0.4828 1.2414 0.0000
0.4828 1.2759 0.0000
0.4828 1.3103 0.0000
0.4828 1.3448 0.0000
0.4828 1.3793 0.0000
0.4828 1.4138 0.0000
0.4828 1.4483 0.0000
0.4828 1.4828 0.0000
0.4828 1.5172 0.0000
0.4828 1.5517 0.0000
0.4828 1.5862 0.0000
0.4828 1.6207 0.0000
0.4828 1.6552 0.0000
0.4828 1.6897 0.0000
0.4828 1.7241 0.0000
0.4828 1.7586 0.0000
0.4828 1.7931 0.0000
0.4828 1.8276 0.0000
0.4828 1.8621 0.0000
0.4828 1.8966 0.0000
0.4828 1.9310 0.0000
0.4828 1.9655 0.0000
0.4828 2.0000 0.0000
0.5517 1.0000 0.0000
0.5517 1.0345 0.0000
0.5517 1.0690 0.0000
0.5517 1.1034 0.0000
0.5517 1.1379 0.0000
0.5517 1.1724 0.0000
0.5517 1.2069 0.0000
0.5517 1.2414 0.0000
0.5517 1.2759 0.0000
0.5517 1.3103 0.0000
0.5517 1.3448 0.0000
0.5517 1.3793 0.0000
0.5517 1.4138 0.0000
0.5517 1.4483 0.0000
0.5517 1.4828 0.0000
0.5517 1.5172 0.0000
0.5517 1.5517 0.0000
0.5517 1.5862 0.0000
0.5517 1.6207 0.0000
0.5517 1.6552 0.0000
0.5517 1.6897 0.0000
0.5517 1.7241 0.0000
0.5517 1.7586 0.0000
0.5517 1.7931 0.0000
0.5517 1.8276 0.0000
0.5517 1.8621 0.0000
0.5517 1.8966 0.0000
0.5517 1.9310 0.0000
0.5517 1.9655 0.0000
0.5517 2.0000 0.0000
0.6207 1.0000 0.0000
0.6207 1.0345 0.0000
0.6207 1.0690 0.0000
0.6207 1.1034 0.0000
0.6207 1.1379 0.0000
0.6207 1.1724 0.0000
0.6207 1.2069 0.0000
0.6207 1.2414 0.0000
0.6207 1.2759 0.0000
0.6207 1.3103 0.0000
0.6207 1.3448 0.0000
0.6207 1.3793 0.0000
0.6207 1.4138 0.0000
0.6207 1.4483 0.0000
0.6207 1.4828 0.0000
0.6207 1.5172 0.0000
0.6207 1.5517 0.0000
0.6207 1.5862 0.0000
0.6207 1.6207 0.0000
0.6207 1.6552 0.0000
0.6207 1.6897 0.0000
0.6207 1.7241 0.0000
0.6207 1.7586 0.0000
0.6207 1.7931 0.0000
0.6207 1.8276 0.0000
0.6207 1.8621 0.0000
0.6207 1.8966 0.0000
0.6207 1.9310 0.0000
0.6207 1.9655 0.0000
0.6207 2.0000 0.0000
0.6897 1.0000 0.0000
0.6897 1.0345 0.0000
0.6897 1.0690 0.0000
0.6897 1.1034 0.0000
0.6897 1.1379 0.0000
0.6897 1.1724 0.0000
0.6897 1.2069 0.0000
0.6897 1.2414 0.0000
0.6897 1.2759 0.0000
0.6897 1.3103 0.0000
0.6897 1.3448 0.0000
0.6897 1.3793 0.0000
0.6897 1.4138 0.0000
0.6897 1.4483 0.0000
0.6897 1.4828 0.0000
0.6897 1.5172 0.0000
0.6897 1.5517 0.0000
0.6897 1.5862 0.0000
0.6897 1.6207 0.0000
0.6897 1.6552 0.0000
0.6897 1.6897 0.0000
0.6897 1.7241 0.0000
0.6897 1.7586 0.0000
0.6897 1.7931 0.0000
0.6897 1.8276 0.0000
0.6897 1.8621 0.0000
0.6897 1.8966 0.0000
0.6897 1.9310 0.0000
0.6897 1.9655 0.0000
0.6897 2.0000 0.0000
0.7586 1.0000 0.0000
0.7586 1.0345 0.0000
0.7586 1.0690 0.0000
0.7586 1.1034 0.0000
0.7586 1.1379 0.0000
0.7586 1.1724 0.0000
0.7586 1.2069 0.0000
0.7586 1.2414 0.0000
0.7586 1.2759 0.0000
0.7586 1.3103 0.0000
0.7586 1.3448 0.0000
0.7586 1.3793 0.0000
0.7586 1.4138 0.0000
0.7586 1.4483 0.0000
0.7586 1.4828 0.0000
0.7586 1.5172 0.0000
0.7586 1.5517 0.0000
0.7586 1.5862 0.0000
0.7586 1.6207 0.0000
0.7586 1.6552 0.0000
0.7586 1.6897 0.0000
0.7586 1.7241 0.0000
0.7586 1.7586 0.0000
0.7586 1.7931 0.0000
0.7586 1.8276 0.0000
0.7586 1.8621 0.0000
0.7586 1.8966 0.0000
0.7586 1.9310 0.0000
0.7586 1.9655 0.0000
0.7586 2.0000 0.0000
0.8276 1.0000 0.0000
0.8276 1.0345 0.0000
0.8276 1.0690 0.0000
0.8276 1.1034 0.0000
0.8276 1.1379 0.0000
0.8276 1.1724 0.0000
0.8276 1.2069 0.0000
0.8276 1.2414 0.0000
0.8276 1.2759 0.0000
0.8276 1.3103 0.0000
0.8276 1.3448 0.0000
0.8276 1.3793 0.0000
0.8276 1.4138 0.0000
0.8276 1.4483 0.0000
0.8276 1.4828 0.0000
0.8276 1.5172 0.0000
0.8276 1.5517 0.0000
0.8276 1.5862 0.0000
0.8276 1.6207 0.0000
0.8276 1.6552 0.0000
0.8276 1.6897 0.0000
0.8276 1.7241 0.0000
0.8276 1.7586 0.0000
0.8276 1.7931 0.0000
0.8276 1.8276 0.0000
0.8276 1.8621 0.0000
0.8276 1.8966 0.0000
0.8276 1.9310 0.0000
0.8276 1.9655 0.0000
0.8276 2.0000 0.0000
0.8966 1.0000 0.0000
0.8966 1.0345 0.0000
0.8966 1.0690 0.0000
0.8966 1.1034 0.0000
0.8966 1.1379 0.0000
0.8966 1.1724 0.0000
0.8966 1.2069 0.0000
0.8966 1.2414 0.0000
0.8966 1.2759 0.0000
0.8966 1.3103 0.0000
0.8966 1.3448 0.0000
0.8966 1.3793 0.0000
0.8966 1.4138 0.0000
0.8966 1.4483 0.0000
0.8966 1.4828 0.0000
0.8966 1.5172 0.0000
0.8966 1.5517 0.0000
0.8966 1.5862 0.0000
0.8966 1.6207 0.0000
0.8966 1.6552 0.0000
0.8966 1.6897 0.0000
0.8966 1.7241 0.0000
0.8966 1.7586 0.0000
0.8966 1.7931 0.0000
0.8966 1.8276 0.0000
0.8966 1.8621 0.0000
0.8966 1.8966 0.0000
0.8966 1.9310 0.0000
0.8966 1.9655 0.0000
0.8966 2.0000 0.0000
0.9655 1.0000 0.0000
0.9655 1.0345 0.0000
0.9655 1.0690 0.0000
0.9655 1.1034 0.0000
0.9655 1.1379 0.0000
0.9655 1.1724 0.0000
0.9655 1.2069 0.0000
0.9655 1.2414 0.0000
0.9655 1.2759 0.0000
0.9655 1.3103 0.0000
0.9655 1.3448 0.0000
0.9655 1.3793 0.0000
0.9655 1.4138 0.0000
0.9655 1.4483 0.0000
0.9655 1.4828 0.0000
0.9655 1.5172 0.0000
0.9655 1.5517 0.0000
0.9655 1.5862 0.0000
0.9655 1.6207 0.0000
0.9655 1.6552 0.0000
0.9655 1.6897 0.0000
0.9655 1.7241 0.0000
0.9655 1.7586 0.0000
0.9655 1.7931 0.0000
0.9655 1.8276 0.0000
0.9655 1.8621 0.0000
0.9655 1.8966 0.0000
0.9655 1.9310 0.0000
0.9655 1.9655 0.0000
0.9655 2.0000 0.0000
1.0345 1.0000 0.0000
1.0345 1.0345 0.0000
1.0345 1.0690 0.0000
1.0345 1.1034 0.0000
1.0345 1.1379 0.0000
1.0345 1.1724 0.0000
1.0345 1.2069 0.0000
1.0345 1.2414 0.0000
1.0345 1.2759 0.0000
1.0345 1.3103 0.0000
1.0345 1.3448 0.0000
[...]
         <PointData>
            <DataArray Name="fValues" NumberOfComponents="3" format="ascii" type="Float64">
-2.53805e-24  2.43103e-24        00000 
 2.80733e-24 -1.05275e-23        00000 
-8.32830e-24  2.77610e-23        00000 
 1.67422e-23 -2.23230e-23        00000 
-4.44176e-22 -8.88352e-23        00000 
 5.77095e-22 -6.35665e-23        00000 
-1.77670e-22 -5.77429e-22        00000 
-5.91559e-22 -8.29578e-21        00000 
 7.10681e-22  8.52818e-21        00000 
 3.42415e-20 -4.41835e-20        00000 
 1.86909e-19  1.64878e-19        00000 
-1.65726e-19  2.94306e-19        00000 
 3.63869e-19  1.09161e-18        00000 
 3.41857e-19 -7.12680e-19        00000 
 1.81934e-19  2.68353e-18        00000 
-8.00056e-20  1.46296e-18        00000 
-4.54836e-19  4.68481e-18        00000 
 1.78436e-19  1.37439e-18        00000 
-5.91287e-19 -6.82254e-20        00000 
-2.27694e-20  5.50038e-20        00000 
-3.37574e-20 -3.55341e-20        00000 
 1.93687e-21  4.08807e-21        00000 
 3.90875e-21 -4.26409e-21        00000 
 2.45553e-22 -8.03627e-22        00000 
 5.05250e-22  3.22027e-22        00000 
 1.92969e-23 -4.47635e-23        00000 
 1.11044e-23  6.66264e-23        00000 
-6.29005e-24 -6.98894e-24        00000 
 3.72957e-24 -8.74972e-24        00000 
 5.49437e-24 -9.28893e-24        00000 
 3.38031e-08  7.24228e-10        00000 
 1.73239e-08  1.90996e-08        00000 
 8.31170e-09  1.12658e-07        00000 
-1.42035e-07  4.01358e-07        00000 
-8.09091e-07  1.08441e-06        00000 
-2.94283e-06  2.01608e-06        00000 
-8.17468e-06  5.91865e-07        00000 
-1.65303e-05 -1.47420e-05        00000 
-1.36675e-05 -7.57176e-05        00000 
 7.25248e-05 -2.28865e-04        00000 
 4.66964e-04 -4.33258e-04        00000 
 1.62399e-03 -2.62366e-04        00000 
 3.82691e-03  1.29692e-03        00000 
 5.82770e-03  4.91416e-03        00000 
 4.26835e-03  8.89644e-03        00000 
-1.98502e-03  9.74912e-03        00000 
-6.33235e-03  6.56918e-03        00000 
-5.00238e-03  2.20391e-03        00000 
-2.18825e-03 -2.14213e-04        00000 
-5.68312e-04 -6.02739e-04        00000 
-5.84879e-05 -3.14798e-04        00000 
 2.59388e-05 -9.07555e-05        00000 
 1.96054e-05 -1.11772e-05        00000 
 7.72137e-06  3.95383e-06        00000 
 2.13046e-06  3.16755e-06        00000 
 3.49275e-07  1.23467e-06        00000 
-3.37826e-08  3.25542e-07        00000 
-5.53075e-08  4.67495e-08        00000 
-2.53146e-08 -9.93299e-09        00000 
-1.54469e-08 -1.38016e-08        00000 
-2.17521e-08 -2.06808e-10        00000 
-1.30772e-08 -3.43870e-08        00000 
-2.88528e-09 -1.94532e-07        00000 
 9.34681e-08 -7.19272e-07        00000 
 4.94619e-07 -2.01499e-06        00000 
 1.73520e-06 -4.10989e-06        00000 
 4.91468e-06 -3.45925e-06        00000 
 1.15535e-05  1.81365e-05        00000 
 1.95060e-05  1.19040e-04        00000 
-3.12193e-06  4.20457e-04        00000 
-2.29228e-04  9.97310e-04        00000 
-1.25586e-03  1.29813e-03        00000 
-4.34357e-03 -9.85224e-04        00000 
-9.18983e-03 -9.07810e-03        00000 
-8.91985e-03 -2.07390e-02        00000 
 3.89954e-03 -2.46832e-02        00000 
 1.19907e-02 -1.36700e-02        00000 
 6.52685e-03 -2.42899e-03        00000 
 1.60867e-03  1.72326e-03        00000 
 1.34117e-04  1.42429e-03        00000 
-3.35923e-05  5.41081e-04        00000 
-2.42481e-05  1.24858e-04        00000 
-8.67518e-06  7.66750e-06        00000 
-2.65096e-06 -8.97819e-06        00000 
-6.81757e-07 -5.54698e-06        00000 
-1.13305e-07 -2.02937e-06        00000 
 1.34343e-08 -5.13124e-07        00000 
 2.12100e-08 -6.44415e-08        00000 
 1.06500e-08  1.93913e-08        00000 
 6.28240e-09  2.45226e-08        00000 
-1.60971e-09  5.36455e-10        00000 
-2.56967e-09  4.03590e-08        00000 
-4.29752e-09  2.19481e-07        00000 
 7.28881e-09  7.93994e-07        00000 
 9.94138e-08  2.18636e-06        00000 
 4.59372e-07  4.51003e-06        00000 
 1.20723e-06  4.82326e-06        00000 
 5.34500e-07 -1.29961e-05        00000 
-1.23802e-05 -1.07438e-04        00000 
-6.78166e-05 -4.39630e-04        00000 
-1.72822e-04 -1.30232e-03        00000 
 6.60794e-05 -2.67375e-03        00000 
 2.56621e-03 -2.04844e-03        00000 
 1.18950e-02  9.31145e-03        00000 
 1.89609e-02  3.71191e-02        00000 
-7.71993e-03  5.75238e-02        00000 
-2.26986e-02  1.72008e-02        00000 
-4.95258e-03 -2.39962e-03        00000 
 7.29956e-04 -4.20418e-03        00000 
 3.66218e-04 -1.71496e-03        00000 
 9.05044e-05 -4.69640e-04        00000 
-9.53621e-07 -8.46136e-05        00000 
-9.21762e-06  4.38026e-07        00000 
-4.43220e-06  9.06286e-06        00000 
-1.28849e-06  5.05709e-06        00000 
-2.16733e-07  1.85220e-06        00000 
 1.60160e-08  4.80109e-07        00000 
 2.98165e-08  6.32348e-08        00000 
 1.43514e-08 -1.78457e-08        00000 
 7.81279e-09 -2.32772e-08        00000 
 2.41251e-08 -2.22503e-09        00000 
 1.59776e-08 -3.56951e-08        00000 
 6.30006e-09 -1.85415e-07        00000 
-1.09086e-07 -6.40185e-07        00000 
-6.26473e-07 -1.68348e-06        00000 
-2.26907e-06 -3.34299e-06        00000 
-6.15951e-06 -3.74927e-06        00000 
-1.15844e-05  6.55828e-06        00000 
-4.90320e-06  6.38657e-05        00000 
 7.53623e-05  2.96447e-04        00000 
 3.98137e-04  1.11102e-03        00000 
 1.16305e-03  3.43836e-03        00000 
 1.36014e-03  7.45024e-03        00000 
-4.85141e-03  2.70755e-03        00000 
-3.37139e-02 -5.48027e-02        00000 
 1.33452e-02 -1.76653e-01        00000 
 3.51928e-02  1.23543e-02        00000 
-5.95010e-03  1.52911e-02        00000 
-1.59239e-03  4.60488e-03        00000 
-4.49930e-04  9.69066e-04        00000 
-4.24000e-05  1.75107e-04        00000 
 2.29902e-05  2.17933e-05        00000 
 1.77148e-05 -3.55023e-06        00000 
 7.29851e-06 -4.71080e-06        00000 
 2.11351e-06 -2.48857e-06        00000 
 3.71493e-07 -9.28808e-07        00000 
-2.46506e-08 -2.48961e-07        00000 
-5.33870e-08 -3.48201e-08        00000 
-2.52859e-08  1.01721e-08        00000 
-1.57149e-08  1.17540e-08        00000 
-3.34328e-08  1.59248e-09        00000 
-1.61235e-08  1.49459e-08        00000 
-3.12036e-09  9.18617e-08        00000 
 1.51329e-07  3.09429e-07        00000 
 7.90631e-07  7.89468e-07        00000 
 2.71706e-06  1.52433e-06        00000 
 7.21486e-06  1.78832e-06        00000 
 1.44901e-05 -1.49582e-06        00000 
 1.56831e-05 -1.94080e-05        00000 
-3.62951e-05 -1.00686e-04        00000 
-3.18339e-04 -4.93957e-04        00000 
-1.35784e-03 -2.35105e-03        00000 
-4.39131e-03 -9.41437e-03        00000 
-1.02583e-02 -2.35910e-02        00000 
-1.92766e-02  3.48139e-02        00000 
 8.22323e-03  7.73879e-01        00000 
 3.23822e-04 -2.42188e-01        00000 
-6.41856e-05 -5.86366e-03        00000 
-1.95139e-05 -6.78333e-04        00000 
-5.54389e-06  7.43127e-05        00000 
-5.70230e-07  1.00811e-04        00000 
 2.64449e-07  5.12610e-05        00000 
 2.12406e-07  1.91316e-05        00000 
 8.86991e-08  5.36299e-06        00000 
 2.59737e-08  9.10992e-07        00000 
 4.67378e-09 -8.83270e-08        00000 
-2.42717e-10 -1.51220e-07        00000 
-6.34454e-10 -7.43848e-08        00000 
-3.09520e-10 -2.51150e-08        00000 
-6.05087e-10 -3.61427e-09        00000 
-1.80207e-09  1.29853e-08        00000 
-2.00882e-10  3.90852e-08        00000 
-1.73361e-11  6.12123e-08        00000 
 1.89812e-09  2.73192e-08        00000 
 9.73990e-09 -3.35613e-07        00000 
 3.32131e-08 -1.84983e-06        00000 
 8.76061e-08 -6.46001e-06        00000 
 1.74071e-07 -1.76515e-05        00000 
 1.80250e-07 -3.89584e-05        00000 
-4.79616e-07 -6.44080e-05        00000 
-3.97776e-06 -3.37957e-05        00000 
-1.66973e-05  3.97454e-04        00000 
-5.31198e-05  3.06831e-03        00000 
-1.22356e-04  1.66820e-02        00000 
-2.21015e-04  7.23295e-02        00000 
 9.16811e-05  2.10590e-01        00000 
-3.44894e-18 -1.98094e-17        00000 
 4.25115e-19 -6.78384e-19        00000 
-1.09458e-19 -4.15550e-19        00000 
 3.56850e-20  9.59770e-20        00000 
-1.04786e-20 -2.41259e-20        00000 
 2.30612e-21  7.84541e-21        00000 
-5.11134e-22 -3.04768e-21        00000 
 1.78694e-22  7.89174e-22        00000 
-6.51295e-23 -1.64439e-22        00000 
 2.74968e-23  6.16296e-24        00000 
-9.41275e-24 -7.40228e-24        00000 
 2.56022e-24  9.54188e-24        00000 
-4.40946e-25 -2.95873e-25        00000 
 1.28716e-25  5.76576e-25        00000 
 7.77309e-26  2.19097e-24        00000 
-2.41964e-25 -4.40227e-25        00000 
 1.10809e-24  3.71946e-25        00000 
-5.98775e-24  2.29609e-24        00000 
 1.51454e-23 -5.30957e-23        00000 
-3.16900e-23  8.09701e-23        00000 
 9.71496e-23 -6.55308e-22        00000 
-3.07167e-22  2.09030e-21        00000 
 1.02881e-21 -4.35079e-21        00000 
-3.04968e-21  2.87408e-21        00000 
 4.99355e-21 -1.54368e-20        00000 
-5.33105e-21  1.10132e-20        00000 
 7.21819e-21  6.76311e-20        00000 
 7.48022e-20  5.70266e-19        00000 
-1.54309e-19  7.97632e-18        00000 
-5.86302e-20 -9.58299e-18        00000 
 2.80599e-19  6.92372e-18        00000 
-1.84050e-19 -1.24353e-18        00000 
 4.01625e-20  1.22164e-19        00000 
-1.05942e-20 -3.66495e-20        00000 
 3.19736e-21  8.37208e-21        00000 
-8.55843e-22 -2.37823e-21        00000 
 2.05915e-22  7.63169e-22        00000 
-5.35976e-23 -2.44010e-22        00000 
 1.78709e-23  6.35408e-23        00000 
-6.40419e-24 -1.23325e-23        00000 
 2.36005e-24  2.56949e-24        00000 
-7.55143e-25 -1.08812e-24        00000 
 1.99827e-25  4.90207e-25        00000 
-7.60392e-26 -1.44807e-25        00000 
-5.56792e-26 -4.12787e-25        00000 
 1.69081e-25  2.31278e-25        00000 
-4.69357e-25  1.65122e-25        00000 
 1.32649e-24 -3.52878e-24        00000 
-3.39171e-24  1.30630e-23        00000 
 8.79937e-24 -4.55852e-23        00000 
-2.87562e-23  1.33000e-22        00000 
 8.81818e-23 -4.41049e-22        00000 
-2.77154e-22  5.79107e-22        00000 
 7.04190e-22 -9.29418e-22        00000 
-9.33434e-22 -1.01918e-21        00000 
 1.02335e-21  5.28313e-21        00000 
 1.81945e-21  4.95273e-21        00000 
-8.88429e-21  2.55544e-19        00000 
 6.83526e-21 -9.51483e-19        00000 
 1.23594e-20  1.11722e-18        00000 
-3.37933e-20 -9.45473e-19        00000 
 2.87315e-20  4.11816e-19        00000 
-1.19857e-20 -8.98130e-20        00000 
 2.84376e-21  2.00820e-20        00000 
-9.37371e-22 -3.50972e-21        00000 
 2.71891e-22  8.54583e-22        00000 
-7.39762e-23 -2.36739e-22        00000 
 1.98192e-23  6.62339e-23        00000 
-5.89531e-24 -1.91748e-23        00000 
 1.75239e-24  5.06362e-24        00000 
-5.96041e-25 -1.13979e-24        00000 
 2.02450e-25  2.65472e-25        00000 
-6.42939e-26 -1.09816e-25        00000 
 3.09382e-26  6.46267e-26        00000 
 2.34740e-26  4.65051e-26        00000 
-4.29992e-26 -9.05763e-27        00000 
 1.17862e-25 -2.22266e-25        00000 
-3.15824e-25  1.06607e-24        00000 
 8.39193e-25 -3.73262e-24        00000 
-2.50941e-24  1.15878e-23        00000 
 7.66976e-24 -3.34733e-23        00000 
-2.28125e-23  6.76633e-23        00000 
 5.91368e-23 -9.85389e-23        00000 
-1.09725e-22  2.23164e-23        00000 
 1.38118e-22  3.87217e-22        00000 
-1.26127e-23 -1.54026e-21        00000 
-4.91685e-22  1.44830e-20        00000 
 1.00642e-21 -6.46504e-20        00000 
-2.66941e-22  1.36705e-19        00000 
-2.19236e-21 -1.70959e-19        00000 
 4.42275e-21  1.43173e-19        00000 
-4.25856e-21 -8.07715e-20        00000 
 2.41170e-21  2.92035e-20        00000 
-8.87621e-22 -7.39124e-21        00000 
 2.60462e-22  1.67966e-21        00000 
-8.02360e-23 -3.53762e-22        00000 
 2.32667e-23  8.44364e-23        00000 
-6.47113e-24 -2.21928e-23        00000 
 1.83463e-24  6.50870e-24        00000 
-5.25269e-25 -1.71984e-24        00000 
 1.59734e-25  4.28636e-25        00000 
-5.53125e-26 -1.19278e-25        00000 
 1.86241e-26  3.18918e-26        00000 
-1.00557e-26 -1.82371e-26        00000 
-6.67880e-27 -1.59075e-27        00000 
 1.11984e-26 -1.26994e-26        00000 
-2.90305e-26  8.12760e-26        00000 
 7.89471e-26 -3.06436e-25        00000 
-2.27989e-25  9.60320e-25        00000 
 6.67551e-25 -2.76357e-24        00000 
-1.93592e-24  6.32500e-24        00000 
 5.07636e-24 -1.07017e-23        00000 
-1.07753e-23  8.61506e-24        00000 
 1.69276e-23  2.46398e-23        00000 
-1.42051e-23 -1.75888e-22        00000 
-1.71298e-23  1.03770e-21        00000 
 8.03467e-23 -4.50295e-21        00000 
-1.01888e-22  1.21764e-20        00000 
-4.48418e-23 -2.13606e-20        00000 
 3.61378e-22  2.58812e-20        00000 
-6.29846e-22 -2.25797e-20        00000 
 6.36510e-22  1.43641e-20        00000 
-4.25829e-22 -6.62274e-21        00000 
 2.00376e-22  2.23917e-21        00000 
-7.19315e-23 -6.00711e-22        00000 
 2.25983e-23  1.43873e-22        00000 
-6.89104e-24 -3.30597e-23        00000 
 2.00930e-24  8.02133e-24        00000 
-5.69501e-25 -2.02346e-24        00000 
 1.63101e-25  5.67673e-25        00000 
-4.78677e-26 -1.50568e-25        00000 
 1.51928e-26  3.97533e-26        00000 
-5.26888e-27 -1.13642e-26        00000 
 3.03119e-27  5.72908e-27        00000 
 1.77245e-27 -1.85545e-27        00000 
-2.86076e-27  6.03793e-27        00000 
 7.30743e-27 -2.46368e-26        00000 
-2.05405e-26  8.06031e-26        00000 
 5.93888e-26 -2.24139e-25        00000 
-1.67355e-25  5.63924e-25        00000 
 4.41744e-25 -1.07581e-24        00000 
-1.00564e-24  1.25625e-24        00000 
 1.83089e-24  1.15907e-24        00000 
-2.31994e-24 -1.49514e-23        00000 
 8.35294e-25  8.02617e-23        00000 
 4.41761e-24 -3.32348e-22        00000 
-1.10083e-23  1.00213e-21        00000 
 8.05890e-24 -2.16123e-21        00000 
 1.67315e-23  3.40012e-21        00000 
-5.91356e-23 -4.00244e-21        00000 
 9.36859e-23  3.59180e-21        00000 
-9.69892e-23 -2.47919e-21        00000 
 7.16969e-23  1.31881e-21        00000 
-3.94897e-23 -5.43632e-22        00000 
 1.69185e-23  1.78273e-22        00000 
-6.02509e-24 -4.93184e-23        00000 
 1.93793e-24  1.23718e-23        00000 
-5.92656e-25 -2.99434e-24        00000 
 1.72394e-25  7.39765e-25        00000 
-5.01019e-26 -1.89617e-25        00000 
 1.45805e-26  5.07632e-26        00000 
-4.39797e-27 -1.35149e-26        00000 
 1.48871e-27  3.81658e-27        00000 
-8.53661e-28 -1.90421e-27        00000 
-4.88079e-28  9.83001e-28        00000 
 7.27488e-28 -1.80872e-27        00000 
-1.89248e-27  6.39298e-27        00000 
 5.08646e-27 -2.02662e-26        00000 
-1.47623e-26  5.79422e-26        00000 
 3.91643e-26 -8.88809e-26        00000 
-9.15593e-26  1.41825e-25        00000 
 1.84811e-25  5.55429e-27        00000 
-2.87585e-25 -1.13279e-24        00000 
 2.79948e-25  6.27823e-24        00000 
 5.69800e-26 -2.55545e-23        00000 
-7.90352e-25  8.12306e-23        00000 
 1.30832e-24 -1.98713e-22        00000 
-1.60302e-25  3.73908e-22        00000 
-3.81505e-24 -5.46853e-22        00000 
 9.68421e-24  6.29437e-22        00000 
-1.43333e-23 -5.75848e-22        00000 
 1.50230e-23  4.21240e-22        00000 
-1.18576e-23 -2.47158e-22        00000 
 7.27399e-24  1.16798e-22        00000 
-3.56450e-24 -4.49866e-23        00000 
 1.44720e-24  1.45122e-23        00000 
-5.11846e-25 -4.09662e-24        00000 
 1.65979e-25  1.06448e-24        00000 
-5.07811e-26 -2.66975e-25        00000 
 1.50653e-26  6.72638e-26        00000 
-4.42273e-27 -1.73453e-26        00000 
 1.31443e-27  4.59039e-27        00000 
-4.30793e-28 -1.29236e-27        00000 
 2.42967e-28  6.40171e-28        00000 
 1.19124e-28 -2.96819e-28        00000 
-1.87607e-28  5.62292e-28        00000 
 4.69412e-28 -1.68548e-27        00000 
-1.29146e-27  4.68478e-27        00000 
 3.45195e-27 -9.60417e-27        00000 
-8.38439e-27  1.46312e-26        00000 
 1.78838e-26 -6.91391e-27        00000 
-3.17266e-26 -7.85041e-26        00000 
 4.21806e-26  4.86345e-25        00000 
-2.93008e-26 -2.00529e-24        00000 
-2.95140e-26  6.59538e-24        00000 
 1.17824e-25 -1.74900e-23        00000 
-1.25887e-25  3.72546e-23        00000 
-1.31027e-25 -6.38563e-23        00000 
 7.56542e-25  8.86090e-23        00000 
-1.59003e-24 -1.00232e-22        00000 
 2.23621e-24  9.29660e-23        00000 
-2.35812e-24 -7.09933e-23        00000 
 1.94821e-24  4.47634e-23        00000 
-1.29174e-24 -2.33815e-23        00000 
 7.00870e-25  1.01860e-23        00000 
-3.18341e-25 -3.75378e-24        00000 
 1.24793e-25  1.19923e-24        00000 
-4.37909e-26 -3.43546e-25        00000 
 1.41487e-26  9.16976e-26        00000 
-4.38777e-27 -2.36157e-26        00000 
 1.31744e-27  6.05459e-27        00000 
-3.93653e-28 -1.57581e-27        00000 
 1.27118e-28  4.39961e-28        00000 
-7.04523e-29 -2.16927e-28        00000 
-2.99820e-29  8.73499e-29        00000 
 4.69686e-29 -1.51799e-28        00000 
-1.16471e-28  3.95222e-28        00000 
 3.06579e-28 -8.96038e-28        00000 
-7.60927e-28  1.53954e-27        00000 
 1.69920e-27 -1.27814e-27        00000 
-3.28194e-27 -4.98605e-27        00000 
 5.16790e-27  3.69471e-26        00000 
-5.83156e-27 -1.58297e-25        00000 
 2.51588e-27  5.37330e-25        00000 
 6.27613e-27 -1.50787e-24        00000 
-1.49443e-26  3.50891e-24        00000 
 6.09917e-27 -6.76588e-24        00000 
 4.31990e-26  1.08292e-23        00000 
-1.41015e-25 -1.44414e-23        00000 
 2.61826e-25  1.61131e-23        00000 
-3.53888e-25 -1.50982e-23        00000 
 3.74155e-25  1.19156e-23        00000 
-3.19540e-25 -7.93908e-24        00000 
 2.24608e-25  4.47748e-24        00000 
-1.31859e-25 -2.14698e-24        00000 
 6.56669e-26  8.82585e-25        00000 
-2.82935e-26 -3.15510e-25        00000 
 1.08088e-26  1.00184e-25        00000 
-3.76497e-27 -2.90090e-26        00000 
 1.22245e-27  7.90046e-27        00000 
-3.80837e-28 -2.07859e-27        00000 
 1.16157e-28  5.43005e-28        00000 
-3.76273e-29 -1.50622e-28        00000 
 2.07093e-29  7.39025e-29        00000 
 7.48337e-30 -2.33285e-29        00000 
-1.15964e-29  3.68605e-29        00000 
 2.77889e-29 -8.12978e-29        00000 
-6.90300e-29  1.53072e-28        00000 
 1.59266e-28 -1.72897e-28        00000 
-3.27055e-28 -2.64494e-28        00000 
 5.74037e-28  2.74367e-27        00000 
-8.06308e-28 -1.24746e-26        00000 
 7.69829e-28  4.38198e-26        00000 
-1.46793e-28 -1.28575e-25        00000 
-9.97719e-28  3.19641e-25        00000 
 1.47507e-27 -6.73859e-25        00000 
 1.30708e-27  1.20479e-24        00000 
-1.01455e-26 -1.82936e-24        00000 
 2.54312e-26  2.36478e-24        00000 
-4.32351e-26 -2.60954e-24        00000 
 5.66100e-26  2.46440e-24        00000 
-5.98890e-26 -1.99602e-24        00000 
 5.24359e-26  1.38913e-24        00000 
-3.85625e-26 -8.32456e-25        00000 
 2.40951e-26  4.30909e-25        00000 
-1.29381e-26 -1.93704e-25        00000 
 6.05168e-27  7.62912e-26        00000 
-2.50792e-27 -2.66819e-26        00000 
 9.39593e-28  8.44034e-27        00000 
-3.24847e-28 -2.46592e-27        00000 
 1.05863e-28  6.81955e-28        00000 
-3.33699e-29 -1.83136e-28        00000 
 1.10134e-29  5.13090e-29        00000 
-6.09177e-30 -2.51938e-29        00000 
-1.83845e-30  5.65538e-30        00000 
 2.78527e-30 -8.07374e-30        00000 
-6.35640e-30  1.48672e-29        00000 
 1.48478e-29 -2.03847e-29        00000 
-3.21241e-29 -4.84595e-30        00000 
 6.05473e-29  1.99993e-28        00000 
-9.64570e-29 -9.69229e-28        00000 
 1.21875e-28  3.56505e-27        00000 
-9.94069e-29 -1.08850e-26        00000 
 8.47301e-31  2.85102e-26        00000 
 1.22329e-28 -6.44365e-26        00000 
-5.51061e-29  1.25713e-25        00000 
-5.75710e-28 -2.11773e-25        00000 
 2.10474e-27  3.08365e-25        00000 
-4.49775e-27 -3.88757e-25        00000 
 7.15767e-27  4.25125e-25        00000 
-9.13180e-27 -4.03974e-25        00000 