<?xml version="1.0" encoding="utf-8"?>
<VTKFile byte_order="LittleEndian" type="UnstructuredGrid" version="0.1">
   <UnstructuredGrid>
      <Piece NumberOfCells="3364" NumberOfPoints="1741">
         <Points>
            <DataArray Name="Points" NumberOfComponents="3" format="ascii" type="Float32">
0.0000 1.0000 0.0000
0.0000 1.0345 0.0000
0.0000 1.0690 0.0000
0.0000 1.1034 0.0000
0.0000 1.1379 0.0000
0.0000 1.1724 0.0000
0.0000 1.2069 0.0000
0.0000 1.2414 0.0000
0.0000 1.2759 0.0000
0.0000 1.3103 0.0000
0.0000 1.3448 0.0000
0.0000 1.3793 0.0000
0.0000 1.4138 0.0000
0.0000 1.4483 0.0000
0.0000 1.4828 0.0000
0.0000 1.5172 0.0000
0.0000 1.5517 0.0000
0.0000 1.5862 0.0000
0.0000 1.6207 0.0000
0.0000 1.6552 0.0000
0.0000 1.6897 0.0000
0.0000 1.7241 0.0000
0.0000 1.7586 0.0000
0.0000 1.7931 0.0000
0.0000 1.8276 0.0000
0.0000 1.8621 0.0000
0.0000 1.8966 0.0000
0.0000 1.9310 0.0000
0.0000 1.9655 0.0000
0.0000 2.0000 0.0000
0.0690 1.0000 0.0000
0.0690 1.0345 0.0000
0.0690 1.0690 0.0000
0.0690 1.1034 0.0000
0.0690 1.1379 0.0000
0.0690 1.1724 0.0000
0.0690 1.2069 0.0000
0.0690 1.2414 0.0000
0.0690 1.2759 0.0000
0.0690 1.3103 0.0000
0.0690 1.3448 0.0000
0.0690 1.3793 0.0000
0.0690 1.4138 0.0000
0.0690 1.4483 0.0000
0.0690 1.4828 0.0000
0.0690 1.5172 0.0000
0.0690 1.5517 0.0000
0.0690 1.5862 0.0000
0.0690 1.6207 0.0000
0.0690 1.6552 0.0000
0.0690 1.6897 0.0000
0.0690 1.7241 0.0000
0.0690 1.7586 0.0000
0.0690 1.7931 0.0000
0.0690 1.8276 0.0000
0.0690 1.8621 0.0000
0.0690 1.8966 0.0000
0.0690 1.9310 0.0000
0.0690 1.9655 0.0000
0.0690 2.0000 0.0000
0.1379 1.0000 0.0000
0.1379 1.0345 0.0000
0.1379 1.0690 0.0000
0.1379 1.1034 0.0000
0.1379 1.1379 0.0000
0.1379 1.1724 0.0000
0.1379 1.2069 0.0000
0.1379 1.2414 0.0000
0.1379 1.2759 0.0000
0.1379 1.3103 0.0000
0.1379 1.3448 0.0000
0.1379 1.3793 0.0000
0.1379 1.4138 0.0000
0.1379 1.4483 0.0000
0.1379 1.4828 0.0000
0.1379 1.5172 0.0000
0.1379 1.5517 0.0000
0.1379 1.5862 0.0000
0.1379 1.6207 0.0000
0.1379 1.6552 0.0000
0.1379 1.6897 0.0000
0.1379 1.7241 0.0000
0.1379 1.7586 0.0000
0.1379 1.7931 0.0000
0.1379 1.8276 0.0000
0.1379 1.8621 0.0000
0.1379 1.8966 0.0000
0.1379 1.9310 0.0000
0.1379 1.9655 0.0000
0.1379 2.0000 0.0000
0.2069 1.0000 0.0000
0.2069 1.0345 0.0000
0.2069 1.0690 0.0000
0.2069 1.1034 0.0000
0.2069 1.1379 0.0000
0.2069 1.1724 0.0000
0.2069 1.2069 0.0000
0.2069 1.2414 0.0000
0.2069 1.2759 0.0000
0.2069 1.3103 0.0000
0.2069 1.3448 0.0000
0.2069 1.3793 0.0000
0.2069 1.4138 0.0000
0.2069 1.4483 0.0000
0.2069 1.4828 0.0000
0.2069 1.5172 0.0000
0.2069 1.5517 0.0000
0.2069 1.5862 0.0000
0.2069 1.6207 0.0000
0.2069 1.6552 0.0000
0.2069 1.6897 0.0000
0.2069 1.7241 0.0000
0.2069 1.7586 0.0000
0.2069 1.7931 0.0000
0.2069 1.8276 0.0000
0.2069 1.8621 0.0000
0.2069 1.8966 0.0000
0.2069 1.9310 0.0000
0.2069 1.9655 0.0000
0.2069 2.0000 0.0000
0.2759 1.0000 0.0000
0.2759 1.0345 0.0000
0.2759 1.0690 0.0000
0.2759 1.1034 0.0000
0.2759 1.1379 0.0000
0.2759 1.1724 0.0000
0.2759 1.2069 0.0000
0.2759 1.2414 0.0000
0.2759 1.2759 0.0000
0.2759 1.3103 0.0000
0.2759 1.3448 0.0000
0.2759 1.3793 0.0000
0.2759 1.4138 0.0000
0.2759 1.4483 0.0000
0.2759 1.4828 0.0000
0.2759 1.5172 0.0000
0.2759 1.5517 0.0000
0.2759 1.5862 0.0000
0.2759 1.6207 0.0000
0.2759 1.6552 0.0000
0.2759 1.6897 0.0000
0.2759 1.7241 0.0000
0.2759 1.7586 0.0000
0.2759 1.7931 0.0000
0.2759 1.8276 0.0000
0.2759 1.8621 0.0000
0.2759 1.8966 0.0000
0.2759 1.9310 0.0000
0.2759 1.9655 0.0000
0.2759 2.0000 0.0000
0.3448 1.0000 0.0000
0.3448 1.0345 0.0000
0.3448 1.0690 0.0000
0.3448 1.1034 0.0000
0.3448 1.1379 0.0000
0.3448 1.1724 0.0000
0.3448 1.2069 0.0000
0.3448 1.2414 0.0000
0.3448 1.2759 0.0000
0.3448 1.3103 0.0000
0.3448 1.3448 0.0000
0.3448 1.3793 0.0000
0.3448 1.4138 0.0000
0.3448 1.4483 0.0000
0.3448 1.4828 0.0000
0.3448 1.5172 0.0000
0.3448 1.5517 0.0000
0.3448 1.5862 0.0000
0.3448 1.6207 0.0000
0.3448 1.6552 0.0000
0.3448 1.6897 0.0000
0.3448 1.7241 0.0000
0.3448 1.7586 0.0000
0.3448 1.7931 0.0000
0.3448 1.8276 0.0000
0.3448 1.8621 0.0000
0.3448 1.8966 0.0000
0.3448 1.9310 0.0000
0.3448 1.9655 0.0000
0.3448 2.0000 0.0000
0.4138 1.0000 0.0000
0.4138 1.0345 0.0000
0.4138 1.0690 0.0000
0.4138 1.1034 0.0000
0.4138 1.1379 0.0000
0.4138 1.1724 0.0000
0.4138 1.2069 0.0000
0.4138 1.2414 0.0000
0.4138 1.2759 0.0000
0.4138 1.3103 0.0000
0.4138 1.3448 0.0000
0.4138 1.3793 0.0000
0.4138 1.4138 0.0000
0.4138 1.4483 0.0000
0.4138 1.4828 0.0000
0.4138 1.5172 0.0000
0.4138 1.5517 0.0000
0.4138 1.5862 0.0000
0.4138 1.6207 0.0000
0.4138 1.6552 0.0000
0.4138 1.6897 0.0000
0.4138 1.7241 0.0000
0.4138 1.7586 0.0000
0.4138 1.7931 0.0000
0.4138 1.8276 0.0000
0.4138 1.8621 0.0000
0.4138 1.8966 0.0000
0.4138 1.9310 0.0000
0.4138 1.9655 0.0000
0.4138 2.0000 0.0000
0.4828 1.0000 0.0000
0.4828 1.0345 0.0000
0.4828 1.0690 0.0000
0.4828 1.1034 0.0000
0.4828 1.1379 0.0000
0.4828 1.1724 0.0000
0.4828 1.2069 0.0000
0.4828 1.2414 0.0000
0.4828 1.2759 0.0000
0.4828 1.3103 0.0000
0.4828 1.3448 0.0000
0.4828 1.3793 0.0000
0.4828 1.4138 0.0000
0.4828 1.4483 0.0000
0.4828 1.4828 0.0000
0.4828 1.5172 0.0000
0.4828 1.5517 0.0000
0.4828 1.5862 0.0000
0.4828 1.6207 0.0000
0.4828 1.6552 0.0000
0.4828 1.6897 0.0000
0.4828 1.7241 0.0000
0.4828 1.7586 0.0000
0.4828 1.7931 0.0000
0.4828 1.8276 0.0000
0.4828 1.8621 0.0000
0.4828 1.8966 0.0000
0.4828 1.9310 0.0000
0.4828 1.9655 0.0000
0.4828 2.0000 0.0000
0.5517 1.0000 0.0000
0.5517 1.0345 0.0000
0.5517 1.0690 0.0000
0.5517 1.1034 0.0000
0.5517 1.1379 0.0000
0.5517 1.1724 0.0000
0.5517 1.2069 0.0000
0.5517 1.2414 0.0000
0.5517 1.2759 0.0000
0.5517 1.3103 0.0000
0.5517 1.3448 0.0000
0.5517 1.3793 0.0000
0.5517 1.4138 0.0000
0.5517 1.4483 0.0000
0.5517 1.4828 0.0000
0.5517 1.5172 0.0000
0.5517 1.5517 0.0000
0.5517 1.5862 0.0000
0.5517 1.6207 0.0000
0.5517 1.6552 0.0000
0.5517 1.6897 0.0000
0.5517 1.7241 0.0000
0.5517 1.7586 0.0000
0.5517 1.7931 0.0000
0.5517 1.8276 0.0000
0.5517 1.8621 0.0000
0.5517 1.8966 0.0000
0.5517 1.9310 0.0000
0.5517 1.9655 0.0000
0.5517 2.0000 0.0000
0.6207 1.0000 0.0000
0.6207 1.0345 0.0000
0.6207 1.0690 0.0000
0.6207 1.1034 0.0000
0.6207 1.1379 0.0000
0.6207 1.1724 0.0000
0.6207 1.2069 0.0000
0.6207 1.2414 0.0000
0.6207 1.2759 0.0000
0.6207 1.3103 0.0000
0.6207 1.3448 0.0000
0.6207 1.3793 0.0000
0.6207 1.4138 0.0000
0.6207 1.4483 0.0000
0.6207 1.4828 0.0000
0.6207 1.5172 0.0000
0.6207 1.5517 0.0000
0.6207 1.5862 0.0000
0.6207 1.6207 0.0000
0.6207 1.6552 0.0000
0.6207 1.6897 0.0000
0.6207 1.7241 0.0000
0.6207 1.7586 0.0000
0.6207 1.7931 0.0000
0.6207 1.8276 0.0000
0.6207 1.8621 0.0000
0.6207 1.8966 0.0000
0.6207 1.9310 0.0000
0.6207 1.9655 0.0000
0.6207 2.0000 0.0000
0.6897 1.0000 0.0000
0.6897 1.0345 0.0000
0.6897 1.0690 0.0000
0.6897 1.1034 0.0000
0.6897 1.1379 0.0000
0.6897 1.1724 0.0000
0.6897 1.2069 0.0000
0.6897 1.2414 0.0000
0.6897 1.2759 0.0000
0.6897 1.3103 0.0000
0.6897 1.3448 0.0000
0.6897 1.3793 0.0000
0.6897 1.4138 0.0000
0.6897 1.4483 0.0000
0.6897 1.4828 0.0000
0.6897 1.5172 0.0000
0.6897 1.5517 0.0000
0.6897 1.5862 0.0000
0.6897 1.6207 0.0000
0.6897 1.6552 0.0000
0.6897 1.6897 0.0000
0.6897 1.7241 0.0000
0.6897 1.7586 0.0000
0.6897 1.7931 0.0000
0.6897 1.8276 0.0000
0.6897 1.8621 0.0000
0.6897 1.8966 0.0000
0.6897 1.9310 0.0000
0.6897 1.9655 0.0000
0.6897 2.0000 0.0000
0.7586 1.0000 0.0000
0.7586 1.0345 0.0000
0.7586 1.0690 0.0000
0.7586 1.1034 0.0000
0.7586 1.1379 0.0000
0.7586 1.1724 0.0000
0.7586 1.2069 0.0000
0.7586 1.2414 0.0000
0.7586 1.2759 0.0000
0.7586 1.3103 0.0000
0.7586 1.3448 0.0000
0.7586 1.3793 0.0000
0.7586 1.4138 0.0000
0.7586 1.4483 0.0000
0.7586 1.4828 0.0000
0.7586 1.5172 0.0000
0.7586 1.5517 0.0000
0.7586 1.5862 0.0000
0.7586 1.6207 0.0000
0.7586 1.6552 0.0000
0.7586 1.6897 0.0000
0.7586 1.7241 0.0000
0.7586 1.7586 0.0000
0.7586 1.7931 0.0000
0.7586 1.8276 0.0000
0.7586 1.8621 0.0000
0.7586 1.8966 0.0000
0.7586 1.9310 0.0000
0.7586 1.9655 0.0000
0.7586 2.0000 0.0000
0.8276 1.0000 0.0000
0.8276 1.0345 0.0000
0.8276 1.0690 0.0000
0.8276 1.1034 0.0000
0.8276 1.1379 0.0000
0.8276 1.1724 0.0000
0.8276 1.2069 0.0000
0.8276 1.2414 0.0000
0.8276 1.2759 0.0000
0.8276 1.3103 0.0000
0.8276 1.3448 0.0000
0.8276 1.3793 0.0000
0.8276 1.4138 0.0000
0.8276 1.4483 0.0000
0.8276 1.4828 0.0000
0.8276 1.5172 0.0000
0.8276 1.5517 0.0000
0.8276 1.5862 0.0000
0.8276 1.6207 0.0000
0.8276 1.6552 0.0000
0.8276 1.6897 0.0000
0.8276 1.7241 0.0000
0.8276 1.7586 0.0000
0.8276 1.7931 0.0000
0.8276 1.8276 0.0000
0.8276 1.8621 0.0000
0.8276 1.8966 0.0000
0.8276 1.9310 0.0000
0.8276 1.9655 0.0000
0.8276 2.0000 0.0000
0.8966 1.0000 0.0000
0.8966 1.0345 0.0000
0.8966 1.0690 0.0000
0.8966 1.1034 0.0000
0.8966 1.1379 0.0000
0.8966 1.1724 0.0000
0.8966 1.2069 0.0000
0.8966 1.2414 0.0000
0.8966 1.2759 0.0000
0.8966 1.3103 0.0000
0.8966 1.3448 0.0000
0.8966 1.3793 0.0000
0.8966 1.4138 0.0000
0.8966 1.4483 0.0000
0.8966 1.4828 0.0000
0.8966 1.5172 0.0000
0.8966 1.5517 0.0000
0.8966 1.5862 0.0000
0.8966 1.6207 0.0000
0.8966 1.6552 0.0000
0.8966 1.6897 0.0000
0.8966 1.7241 0.0000
0.8966 1.7586 0.0000
0.8966 1.7931 0.0000
0.8966 1.8276 0.0000
0.8966 1.8621 0.0000
0.8966 1.8966 0.0000
0.8966 1.9310 0.0000
0.8966 1.9655 0.0000
0.8966 2.0000 0.0000
0.9655 1.0000 0.0000
0.9655 1.0345 0.0000
0.9655 1.0690 0.0000
0.9655 1.1034 0.0000
0.9655 1.1379 0.0000
0.9655 1.1724 0.0000
0.9655 1.2069 0.0000
0.9655 1.2414 0.0000
0.9655 1.2759 0.0000
0.9655 1.3103 0.0000
0.9655 1.3448 0.0000
0.9655 1.3793 0.0000
0.9655 1.4138 0.0000
0.9655 1.4483 0.0000
0.9655 1.4828 0.0000
0.9655 1.5172 0.0000
0.9655 1.5517 0.0000
0.9655 1.5862 0.0000
0.9655 1.6207 0.0000
0.9655 1.6552 0.0000
0.9655 1.6897 0.0000
0.9655 1.7241 0.0000
0.9655 1.7586 0.0000
0.9655 1.7931 0.0000
0.9655 1.8276 0.0000
0.9655 1.8621 0.0000
0.9655 1.8966 0.0000
0.9655 1.9310 0.0000
0.9655 1.9655 0.0000
0.9655 2.0000 0.0000
1.0345 1.0000 0.0000
1.0345 1.0345 0.0000
1.0345 1.0690 0.0000
1.0345 1.1034 0.0000
1.0345 1.1379 0.0000
1.0345 1.1724 0.0000
1.0345 1.2069 0.0000
1.0345 1.2414 0.0000
1.0345 1.2759 0.0000
1.0345 1.3103 0.0000
1.0345 1.3448 0.0000
[...]
         <PointData>
            <DataArray Name="fValues" NumberOfComponents="3" format="ascii" type="Float64">
-4.75884e-25 -4.04985e-25        00000 
 5.26374e-25  7.01832e-25        00000 
 3.47012e-25  3.12311e-24        00000 
 3.57516e-24  1.77886e-23        00000 
-1.80446e-23  1.11044e-23        00000 
-2.69621e-23  6.66245e-23        00000 
-3.28968e-22  2.55401e-22        00000 
 5.76909e-22 -9.57795e-22        00000 
-1.06602e-21        00000        00000 
-1.24200e-21 -8.51601e-22        00000 
 2.48738e-21 -1.51020e-20        00000 
 4.28601e-21  1.28580e-20        00000 
 1.13709e-19  1.87620e-19        00000 
 4.01094e-20 -3.86894e-19        00000 
 6.36771e-19  1.56350e-18        00000 
-3.78598e-19  3.05378e-19        00000 
 5.91287e-19  5.82190e-18        00000 
-3.43220e-19  1.41611e-19        00000 
-1.36451e-19  3.63869e-19        00000 
-7.33979e-19 -2.13229e-19        00000 
-2.10362e-19  2.84273e-20        00000 
 1.04720e-19  6.74760e-19        00000 
-5.68545e-20 -6.82254e-20        00000 
 1.78584e-21  6.78619e-21        00000 
 1.59903e-21 -7.50657e-21        00000 
 5.43988e-22  7.15376e-21        00000 
 4.44176e-22 -1.73229e-21        00000 
 5.59115e-23  6.06640e-22        00000 
-1.96869e-24 -1.02722e-22        00000 
 7.83704e-24  2.20080e-23        00000 
 2.67349e-09 -2.46363e-09        00000 
 5.13961e-09 -2.99947e-09        00000 
 1.31965e-08 -1.26555e-10        00000 
 2.36126e-08  2.18375e-08        00000 
 1.07341e-08  1.13780e-07        00000 
-1.41189e-07  4.01938e-07        00000 
-8.08899e-07  1.08470e-06        00000 
-2.94282e-06  2.01618e-06        00000 
-8.17470e-06  5.91894e-07        00000 
-1.65303e-05 -1.47420e-05        00000 
-1.36675e-05 -7.57176e-05        00000 
 7.25248e-05 -2.28865e-04        00000 
 4.66964e-04 -4.33258e-04        00000 
 1.62399e-03 -2.62366e-04        00000 
 3.82691e-03  1.29692e-03        00000 
 5.82770e-03  4.91416e-03        00000 
 4.26835e-03  8.89644e-03        00000 
-1.98502e-03  9.74912e-03        00000 
-6.33235e-03  6.56918e-03        00000 
-5.00238e-03  2.20391e-03        00000 
-2.18825e-03 -2.14213e-04        00000 
-5.68312e-04 -6.02739e-04        00000 
-5.84880e-05 -3.14798e-04        00000 
 2.59387e-05 -9.07555e-05        00000 
 1.96052e-05 -1.11777e-05        00000 
 7.72184e-06  3.95176e-06        00000 
 2.13437e-06  3.16200e-06        00000 
 3.63714e-07  1.22369e-06        00000 
 1.35741e-08  3.11410e-07        00000 
-1.67638e-07  8.01570e-08        00000 
-1.77801e-09  4.74513e-09        00000 
-3.63644e-09  5.96061e-09        00000 
-8.74423e-09  2.74890e-09        00000 
-1.50939e-08 -3.41361e-08        00000 
-5.03514e-09 -1.96953e-07        00000 
 9.28493e-08 -7.20754e-07        00000 
 4.94488e-07 -2.01561e-06        00000 
 1.73519e-06 -4.11009e-06        00000 
 4.91469e-06 -3.45930e-06        00000 
 1.15535e-05  1.81365e-05        00000 
 1.95060e-05  1.19040e-04        00000 
-3.12193e-06  4.20457e-04        00000 
-2.29228e-04  9.97310e-04        00000 
-1.25586e-03  1.29813e-03        00000 
-4.34357e-03 -9.85224e-04        00000 
-9.18983e-03 -9.07810e-03        00000 
-8.91985e-03 -2.07390e-02        00000 
 3.89954e-03 -2.46832e-02        00000 
 1.19907e-02 -1.36700e-02        00000 
 6.52685e-03 -2.42899e-03        00000 
 1.60867e-03  1.72326e-03        00000 
 1.34117e-04  1.42429e-03        00000 
-3.35922e-05  5.41081e-04        00000 
-2.42481e-05  1.24858e-04        00000 
-8.67511e-06  7.66835e-06        00000 
-2.65117e-06 -8.97442e-06        00000 
-6.83347e-07 -5.53559e-06        00000 
-1.21484e-07 -2.00740e-06        00000 
 1.33839e-09 -5.12954e-07        00000 
 6.31265e-08 -1.28050e-07        00000 
-8.08626e-11 -5.51140e-09        00000 
-2.49478e-10 -6.87566e-09        00000 
-8.47113e-10 -3.19327e-09        00000 
-2.49451e-09  3.91685e-08        00000 
-4.34913e-09  2.22190e-07        00000 
 7.26240e-09  7.95854e-07        00000 
 9.94034e-08  2.18711e-06        00000 
 4.59370e-07  4.51026e-06        00000 
 1.20723e-06  4.82331e-06        00000 
 5.34500e-07 -1.29961e-05        00000 
-1.23802e-05 -1.07438e-04        00000 
-6.78166e-05 -4.39630e-04        00000 
-1.72822e-04 -1.30232e-03        00000 
 6.60794e-05 -2.67375e-03        00000 
 2.56621e-03 -2.04844e-03        00000 
 1.18950e-02  9.31145e-03        00000 
 1.89609e-02  3.71191e-02        00000 
-7.71993e-03  5.75238e-02        00000 
-2.26986e-02  1.72008e-02        00000 
-4.95258e-03 -2.39962e-03        00000 
 7.29956e-04 -4.20418e-03        00000 
 3.66218e-04 -1.71496e-03        00000 
 9.05044e-05 -4.69640e-04        00000 
-9.53557e-07 -8.46136e-05        00000 
-9.21755e-06  4.37199e-07        00000 
-4.43246e-06  9.05917e-06        00000 
-1.29042e-06  5.04598e-06        00000 
-2.25972e-07  1.83100e-06        00000 
 7.92631e-10  4.79605e-07        00000 
 8.44439e-08  1.26218e-07        00000 
 1.92599e-09  4.54092e-09        00000 
 4.00876e-09  5.55560e-09        00000 
 9.88949e-09  1.55274e-09        00000 
 1.79732e-08 -3.56910e-08        00000 
 8.49436e-09 -1.87880e-07        00000 
-1.08426e-07 -6.41655e-07        00000 
-6.26328e-07 -1.68408e-06        00000 
-2.26906e-06 -3.34318e-06        00000 
-6.15952e-06 -3.74931e-06        00000 
-1.15844e-05  6.55827e-06        00000 
-4.90320e-06  6.38657e-05        00000 
 7.53623e-05  2.96447e-04        00000 
 3.98137e-04  1.11102e-03        00000 
 1.16305e-03  3.43836e-03        00000 
 1.36014e-03  7.45024e-03        00000 
-4.85141e-03  2.70755e-03        00000 
-3.37139e-02 -5.48027e-02        00000 
 1.33452e-02 -1.76653e-01        00000 
 3.51928e-02  1.23543e-02        00000 
-5.95010e-03  1.52911e-02        00000 
-1.59239e-03  4.60488e-03        00000 
-4.49930e-04  9.69066e-04        00000 
-4.24000e-05  1.75107e-04        00000 
 2.29900e-05  2.17934e-05        00000 
 1.77147e-05 -3.54979e-06        00000 
 7.29900e-06 -4.70895e-06        00000 
 2.11743e-06 -2.48338e-06        00000 
 3.85949e-07 -9.17859e-07        00000 
 1.88994e-08 -2.32250e-07        00000 
-1.64500e-07 -6.84740e-08        00000 
-2.69538e-09 -2.19569e-09        00000 
-5.10079e-09 -2.96856e-09        00000 
-1.28763e-08 -5.75152e-10        00000 
-2.20593e-08  1.82964e-08        00000 
-5.51044e-09  9.32258e-08        00000 
 1.50497e-07  3.10037e-07        00000 
 7.90442e-07  7.89733e-07        00000 
 2.71705e-06  1.52442e-06        00000 
 7.21487e-06  1.78834e-06        00000 
 1.44901e-05 -1.49582e-06        00000 
 1.56831e-05 -1.94080e-05        00000 
-3.62951e-05 -1.00686e-04        00000 
-3.18339e-04 -4.93957e-04        00000 
-1.35784e-03 -2.35105e-03        00000 
-4.39131e-03 -9.41437e-03        00000 
-1.02583e-02 -2.35910e-02        00000 
-1.92766e-02  3.48139e-02        00000 
 8.22323e-03  7.73879e-01        00000 
 3.23822e-04 -2.42188e-01        00000 
-6.41856e-05 -5.86366e-03        00000 
-1.95139e-05 -6.78333e-04        00000 
-5.54389e-06  7.43127e-05        00000 
-5.70231e-07  1.00811e-04        00000 
 2.64448e-07  5.12611e-05        00000 
 2.12404e-07  1.91320e-05        00000 
 8.87054e-08  5.36338e-06        00000 
 2.60219e-08  9.09738e-07        00000 
 4.85006e-09 -9.79385e-08        00000 
 2.28158e-10 -1.88187e-07        00000 
-1.06948e-08 -8.29952e-08        00000 
-8.75105e-11  4.49578e-10        00000 
-6.27845e-11  4.00113e-09        00000 
-1.55672e-10  1.32042e-08        00000 
-2.62649e-10  3.34275e-08        00000 
-4.64123e-11  5.94294e-08        00000 
 1.88794e-09  2.69022e-08        00000 
 9.73756e-09 -3.35641e-07        00000 
 3.32128e-08 -1.84979e-06        00000 
 8.76062e-08 -6.45998e-06        00000 
 1.74071e-07 -1.76515e-05        00000 
 1.80250e-07 -3.89584e-05        00000 
-4.79616e-07 -6.44080e-05        00000 
-3.97776e-06 -3.37957e-05        00000 
-1.66973e-05  3.97454e-04        00000 
-5.31198e-05  3.06831e-03        00000 
-1.22356e-04  1.66820e-02        00000 
-2.21015e-04  7.23295e-02        00000 
 9.16811e-05  2.10590e-01        00000 
-2.34017e-18 -6.40329e-18        00000 
 1.27451e-19  2.07984e-18        00000 
 6.61213e-20 -2.14560e-19        00000 
-2.47184e-20  5.35200e-20        00000 
 6.19863e-21 -1.88056e-20        00000 
-1.04160e-21  3.81568e-21        00000 
 1.84079e-22 -1.62943e-21        00000 
-5.19999e-24  7.20833e-24        00000 
-1.63703e-23  1.08544e-22        00000 
 8.13301e-24 -2.89356e-23        00000 
-4.46736e-24  7.49338e-24        00000 
 3.19320e-24  2.35564e-25        00000 
 1.37372e-26 -7.94309e-26        00000 
-1.25796e-26  2.44911e-25        00000 
 3.09955e-26  4.59121e-25        00000 
-1.09832e-25 -2.28610e-24        00000 
 6.78442e-25 -1.95664e-24        00000 
-6.11498e-24  1.02113e-24        00000 
 2.25994e-23 -7.38681e-23        00000 
-5.63739e-23  3.17915e-22        00000 
 5.12905e-23 -8.60229e-22        00000 
-4.98260e-23  1.37656e-21        00000 
 3.01977e-22 -3.76354e-21        00000 
-7.38885e-22 -1.99568e-21        00000 
-4.66663e-21  1.37388e-20        00000 
 2.39710e-20 -3.32590e-20        00000 
-6.08072e-20  2.54894e-19        00000 
 1.67243e-19 -3.75543e-20        00000 
-2.84956e-19  6.81601e-18        00000 
 9.67418e-20 -1.04142e-17        00000 
 1.33943e-19  4.56603e-18        00000 
-1.01875e-19 -7.80806e-19        00000 
 6.38865e-21  1.90926e-19        00000 
 3.81045e-21 -2.94994e-20        00000 
-1.67701e-21  6.37076e-21        00000 
 4.48193e-22 -1.64980e-21        00000 
-1.07225e-22  4.60671e-22        00000 
 1.60510e-23 -9.52815e-23        00000 
-2.15393e-25  4.69353e-25        00000 
-1.32884e-24  5.90170e-24        00000 
 8.82932e-25 -2.10931e-24        00000 
-6.93022e-25  8.71721e-25        00000 
 2.13658e-29  2.29575e-26        00000 
-3.61180e-27  8.01943e-27        00000 
-7.49293e-27 -1.19118e-25        00000 
 6.93750e-26  7.12809e-26        00000 
-4.36894e-25  7.80894e-25        00000 
 1.53710e-24 -5.66273e-24        00000 
-4.71370e-24  1.94424e-23        00000 
 8.15393e-24 -7.29022e-23        00000 
-5.60162e-24  1.45772e-22        00000 
-1.59920e-24 -2.22428e-22        00000 
 2.89907e-23  1.76226e-22        00000 
-2.84676e-22  9.73290e-22        00000 
 1.91828e-21 -5.52505e-21        00000 
-7.07968e-21  2.03259e-20        00000 
 1.69902e-20 -9.07408e-20        00000 
-3.19582e-20  3.49755e-19        00000 
 3.58899e-20 -1.03772e-18        00000 
-1.41824e-20  1.11928e-18        00000 
-7.87142e-21 -9.29467e-19        00000 
 1.48905e-20  2.91432e-19        00000 
-5.24208e-21 -5.88063e-20        00000 
 3.20804e-22  1.46380e-20        00000 
 2.42781e-22 -2.90099e-21        00000 
-1.16967e-22  6.95992e-22        00000 
 3.82981e-23 -1.72065e-22        00000 
-8.37438e-24  3.95109e-23        00000 
 1.29284e-24 -6.78133e-24        00000 
 1.29591e-28 -6.53653e-25        00000 
-1.41409e-25  4.45788e-25        00000 
 1.34484e-25 -2.81863e-25        00000 
-1.44483e-28 -4.14550e-28        00000 
-5.23362e-28 -4.33468e-27        00000 
 5.65944e-27  6.56181e-27        00000 
-3.11990e-26  5.34769e-26        00000 
 1.15451e-25 -4.11740e-25        00000 
-3.69394e-25  1.62284e-24        00000 
 7.98215e-25 -5.46436e-24        00000 
-1.03869e-24  1.35799e-23        00000 
 3.85167e-25 -2.46411e-23        00000 
 3.21399e-24  2.43394e-23        00000 
-2.46650e-23  5.09949e-23        00000 
 1.37765e-22 -4.29185e-22        00000 
-5.36942e-22  1.83668e-21        00000 
 1.48767e-21 -7.35256e-21        00000 
-3.13425e-21  2.69776e-20        00000 
 4.83535e-21 -7.98516e-20        00000 
-4.81560e-21  1.47825e-19        00000 
 2.37191e-21 -1.74040e-19        00000 
 5.30114e-22  1.37112e-19        00000 
-1.66641e-21 -6.93217e-20        00000 
 1.07910e-21  2.13596e-20        00000 
-2.91516e-22 -5.19169e-21        00000 
 1.34241e-23  1.24023e-21        00000 
 1.75225e-23 -2.76791e-22        00000 
-9.29027e-24  6.37609e-23        00000 
 2.92138e-24 -1.49761e-23        00000 
-6.25306e-25  3.19592e-24        00000 
 1.26022e-25 -4.76309e-25        00000 
 4.52308e-27 -2.18116e-26        00000 
-1.94752e-26  5.16627e-26        00000 
-1.10732e-28 -2.82597e-28        00000 
 4.52957e-28  1.82423e-28        00000 
-2.35962e-27  3.77030e-27        00000 
 9.09840e-27 -2.81634e-26        00000 
-2.76572e-26  1.07685e-25        00000 
 7.12131e-26 -4.32680e-25        00000 
-1.20825e-25  1.16562e-24        00000 
 1.02554e-25 -2.38278e-24        00000 
 2.32666e-25  3.07680e-24        00000 
-2.04522e-24  1.86998e-24        00000 
 1.05213e-23 -3.19795e-23        00000 
-4.13193e-23  1.53928e-22        00000 
 1.24412e-22 -6.06595e-22        00000 
-2.92451e-22  2.14703e-21        00000 
 5.35151e-22 -6.42480e-21        00000 
-7.32037e-22  1.44059e-20        00000 
 6.94496e-22 -2.30334e-20        00000 
-3.80796e-22  2.63538e-20        00000 
 3.14676e-24 -2.17636e-20        00000 
 1.90324e-22  1.28793e-20        00000 
-1.68975e-22 -5.40392e-21        00000 
 7.52233e-23  1.67151e-21        00000 
-1.70615e-23 -4.37402e-22        00000 
 2.66583e-25  1.07165e-22        00000 
 1.47771e-24 -2.54006e-23        00000 
-6.94745e-25  5.88237e-24        00000 
 2.15509e-25 -1.34268e-24        00000 
-5.52708e-26  2.78750e-25        00000 
 1.01350e-26 -4.03293e-26        00000 
-2.15102e-27  7.66645e-27        00000 
 7.44903e-29 -2.53099e-29        00000 
-1.90959e-28  3.03311e-28        00000 
 7.24004e-28 -2.10144e-27        00000 
-2.28643e-27  9.08173e-27        00000 
 5.91586e-27 -3.32678e-26        00000 
-1.20148e-26  9.72010e-26        00000 
 1.46043e-26 -2.18966e-25        00000 
 1.01813e-26  3.39883e-25        00000 
-1.59788e-25 -6.89393e-26        00000 
 8.23999e-25 -2.26771e-24        00000 
-3.24244e-24  1.24126e-23        00000 
 1.02509e-23 -4.99007e-23        00000 
-2.61930e-23  1.74585e-22        00000 
 5.40417e-23 -5.28584e-22        00000 
-8.86997e-23  1.30290e-21        00000 
 1.12296e-22 -2.49487e-21        00000 
-1.03898e-22  3.65036e-21        00000 
 6.16739e-23 -4.07894e-21        00000 
-1.04487e-23  3.48680e-21        00000 
-2.06799e-23 -2.27613e-21        00000 
 2.44659e-23  1.13243e-21        00000 
-1.44750e-23 -4.34594e-22        00000 
 5.20511e-24  1.34858e-22        00000 
-1.01483e-24 -3.66530e-23        00000 
-2.68435e-26  9.28171e-24        00000 
 1.14341e-25 -2.24974e-24        00000 
-5.25584e-26  5.29496e-25        00000 
 1.67367e-26 -1.19715e-25        00000 
-4.35400e-27  2.48624e-26        00000 
 1.64428e-27 -8.07872e-27        00000 
-3.72331e-29  5.86018e-29        00000 
 6.00240e-29 -1.54135e-28        00000 
-2.16320e-28  7.49468e-28        00000 
 5.54070e-28 -2.89559e-27        00000 
-1.20217e-27  9.22683e-27        00000 
 1.71662e-27 -1.73236e-26        00000 
 1.69416e-28  3.46172e-26        00000 
-1.15408e-26 -2.36229e-26        00000 
 6.47262e-26 -1.48921e-25        00000 
-2.57899e-25  9.72641e-25        00000 
 8.42563e-25 -4.07171e-24        00000 
-2.28825e-24  1.43427e-23        00000 
 5.16306e-24 -4.40342e-23        00000 
-9.60925e-24  1.14863e-22        00000 
 1.45358e-23 -2.46157e-22        00000 
-1.74453e-23  4.24539e-22        00000 
 1.59339e-23 -5.84667e-22        00000 
-1.00620e-23  6.42137e-22        00000 
 2.88295e-24 -5.62520e-22        00000 
 2.01719e-24  3.92846e-22        00000 
-3.37476e-24 -2.18735e-22        00000 
 2.46963e-24  9.76561e-23        00000 
-1.16043e-24 -3.56534e-23        00000 
 3.60049e-25  1.10754e-23        00000 
-6.13787e-26 -3.06821e-24        00000 
-6.14348e-27  7.98212e-25        00000 
 9.11765e-27 -1.97606e-25        00000 
-4.06862e-27  4.70910e-26        00000 
 1.36369e-27 -1.10109e-26        00000 
-6.62233e-28  4.37081e-27        00000 
 1.00694e-29 -2.61089e-29        00000 
-1.82547e-29  6.19052e-29        00000 
 4.79713e-29 -2.28890e-28        00000 
-1.08917e-28  7.24642e-28        00000 
 1.81976e-28 -1.70113e-27        00000 
-9.88678e-29  3.18464e-27        00000 
-8.01332e-28 -3.31937e-27        00000 
 5.00795e-27 -8.80553e-27        00000 
-2.06325e-26  7.42029e-26        00000 
 6.93173e-26 -3.28872e-25        00000 
-1.97116e-25  1.18165e-24        00000 
 4.76158e-25 -3.69158e-24        00000 
-9.73260e-25  1.00196e-23        00000 
 1.66953e-24 -2.31608e-23        00000 
-2.37289e-24  4.47755e-23        00000 
 2.74039e-24 -7.16294e-23        00000 
-2.48754e-24  9.43990e-23        00000 
 1.65042e-24 -1.02358e-22        00000 
-6.19007e-25  9.12959e-23        00000 
-1.46901e-25 -6.69734e-23        00000 
 4.46036e-25  4.04311e-23        00000 
-3.93962e-25 -2.01536e-23        00000 
 2.24214e-25  8.37740e-24        00000 
-9.02170e-26 -2.96315e-24        00000 
 2.51809e-26  9.20155e-25        00000 
-3.55254e-27 -2.59430e-25        00000 
-7.42276e-28  6.86040e-26        00000 
 7.43622e-28 -1.72889e-26        00000 
-3.43385e-28  4.34413e-27        00000 
 2.02212e-28 -1.88443e-27        00000 
-2.77366e-30  9.63057e-30        00000 
 4.43159e-30 -1.93474e-29        00000 
-9.81213e-30  5.86831e-29        00000 
 1.80627e-29 -1.50456e-28        00000 
-1.72189e-29  3.02878e-28        00000 
-4.77623e-29 -3.83968e-28        00000 
 3.80673e-28 -4.33068e-28        00000 
-1.64699e-27  5.51453e-27        00000 
 5.70315e-27 -2.62677e-26        00000 
-1.68407e-26  9.71963e-26        00000 
 4.29159e-26 -3.10134e-25        00000 
-9.43317e-26  8.69076e-25        00000 
 1.77971e-25 -2.12213e-24        00000 
-2.85992e-25  4.45618e-24        00000 
 3.87191e-25 -7.96302e-24        00000 
-4.34563e-25  1.20348e-23        00000 
 3.93539e-25 -1.53390e-23        00000 
-2.71827e-25  1.64700e-23        00000 
 1.20751e-25 -1.48932e-23        00000 
-1.14283e-27  1.13419e-23        00000 
-5.60298e-26 -7.27853e-24        00000 
 6.00324e-26  3.94490e-24        00000 
-3.99004e-26 -1.81607e-24        00000 
 1.92639e-26  7.18199e-25        00000 
-6.95152e-27 -2.48153e-25        00000 
 1.73731e-27  7.70683e-26        00000 
-1.93457e-28 -2.19903e-26        00000 
-7.83956e-29  5.90951e-27        00000 
 6.81914e-29 -1.58390e-27        00000 
-5.00836e-29  7.28185e-28        00000 
 6.76837e-31 -2.95120e-30        00000 
-9.67059e-31  5.16780e-30        00000 
 1.75189e-30 -1.30047e-29        00000 
-2.16605e-30  2.80163e-29        00000 
-2.17317e-30 -4.12977e-29        00000 
 2.80285e-29 -1.04179e-29        00000 
-1.30585e-28  3.98771e-28        00000 
 4.68392e-28 -2.07468e-27        00000 
-1.43091e-27  7.96250e-27        00000 
 3.80852e-27 -2.60354e-26        00000 
-8.87184e-27  7.50638e-26        00000 
 1.80407e-26 -1.91287e-25        00000 
-3.18672e-26  4.27594e-25        00000 
 4.85630e-26 -8.31215e-25        00000 
-6.32527e-26  1.39608e-24        00000 
 6.94643e-26 -2.01802e-24        00000 
-6.28975e-26  2.50549e-24        00000 
 4.49181e-26 -2.66951e-24        00000 
-2.24447e-26  2.44018e-24        00000 
 3.73214e-27 -1.91371e-24        00000 
 6.51986e-27  1.28834e-24        00000 
-8.81261e-27 -7.45720e-25        00000 
 6.72698e-27  3.72456e-25        00000 
-3.74696e-27 -1.61614e-25        00000 
 1.63660e-27  6.15719e-26        00000 
-5.27522e-28 -2.09665e-26        00000 
 1.19197e-28  6.50183e-27        00000 
-8.70597e-30 -1.87611e-27        00000 
-9.31118e-30  5.37858e-28        00000 
 9.88014e-30 -2.60372e-28        00000 
-1.48525e-31  7.85455e-31        00000 
 1.87824e-31 -1.21774e-30        00000 
-2.47053e-31  2.55703e-30        00000 
-1.36772e-32 -4.26296e-30        00000 
 1.88399e-30  2.29510e-30        00000 
-1.00804e-29  2.78937e-29        00000 
 3.82580e-29 -1.61007e-28        00000 
-1.20846e-28  6.48770e-28        00000 
 3.34250e-28 -2.18018e-27        00000 
-8.16766e-28  6.45753e-27        00000 
 1.76486e-27 -1.70501e-26        00000 
-3.36238e-27  4.00434e-26        00000 
 5.62227e-27 -8.31494e-26        00000 
-8.20131e-27  1.51767e-25        00000 
 1.03529e-26 -2.42457e-25        00000 
-1.11789e-26  3.38120e-25        00000 
 1.01339e-26 -4.11018e-25        00000 