<?xml version="1.0" encoding="utf-8"?>
<VTKFile byte_order="LittleEndian" type="UnstructuredGrid" version="0.1">
   <UnstructuredGrid>
      <Piece NumberOfCells="3364" NumberOfPoints="1741">
         <Points>
            <DataArray Name="Points" NumberOfComponents="3" format="ascii" type="Float32">
0.0000 1.0000 0.0000
0.0000 1.0345 0.0000
0.0000 1.0690 0.0000
0.0000 1.1034 0.0000
0.0000 1.1379 0.0000
0.0000 1.1724 0.0000
0.0000 1.2069 0.0000
0.0000 1.2414 0.0000
0.0000 1.2759 0.0000
0.0000 1.3103 0.0000
0.0000 1.3448 0.0000
0.0000 1.3793 0.0000
0.0000 1.4138 0.0000
0.0000 1.4483 0.0000
0.0000 1.4828 0.0000
0.0000 1.5172 0.0000
0.0000 1.5517 0.0000
0.0000 1.5862 0.0000
0.0000 1.6207 0.0000
0.0000 1.6552 0.0000
0.0000 1.6897 0.0000
0.0000 1.7241 0.0000
0.0000 1.7586 0.0000
0.0000 1.7931 0.0000
0.0000 1.8276 0.0000
0.0000 1.8621 0.0000
0.0000 1.8966 0.0000
0.0000 1.9310 0.0000
0.0000 1.9655 0.0000
0.0000 2.0000 0.0000
0.0690 1.0000 0.0000
0.0690 1.0345 0.0000
0.0690 1.0690 0.0000
0.0690 1.1034 0.0000
0.0690 1.1379 0.0000
0.0690 1.1724 0.0000
0.0690 1.2069 0.0000
0.0690 1.2414 0.0000
0.0690 1.2759 0.0000
0.0690 1.3103 0.0000
0.0690 1.3448 0.0000
0.0690 1.3793 0.0000
0.0690 1.4138 0.0000
0.0690 1.4483 0.0000
0.0690 1.4828 0.0000
0.0690 1.5172 0.0000
0.0690 1.5517 0.0000
0.0690 1.5862 0.0000
0.0690 1.6207 0.0000
0.0690 1.6552 0.0000
0.0690 1.6897 0.0000
0.0690 1.7241 0.0000
0.0690 1.7586 0.0000
0.0690 1.7931 0.0000
0.0690 1.8276 0.0000
0.0690 1.8621 0.0000
0.0690 1.8966 0.0000
0.0690 1.9310 0.0000
0.0690 1.9655 0.0000
0.0690 2.0000 0.0000
0.1379 1.0000 0.0000
0.1379 1.0345 0.0000
0.1379 1.0690 0.0000
0.1379 1.1034 0.0000
0.1379 1.1379 0.0000
0.1379 1.1724 0.0000
0.1379 1.2069 0.0000
0.1379 1.2414 0.0000
0.1379 1.2759 0.0000
0.1379 1.3103 0.0000
0.1379 1.3448 0.0000
0.1379 1.3793 0.0000
0.1379 1.4138 0.0000
0.1379 1.4483 0.0000
0.1379 1.4828 0.0000
0.1379 1.5172 0.0000
0.1379 1.5517 0.0000
0.1379 1.5862 0.0000
0.1379 1.6207 0.0000
0.1379 1.6552 0.0000
0.1379 1.6897 0.0000
0.1379 1.7241 0.0000
0.1379 1.7586 0.0000
0.1379 1.7931 0.0000
0.1379 1.8276 0.0000
0.1379 1.8621 0.0000
0.1379 1.8966 0.0000
0.1379 1.9310 0.0000
0.1379 1.9655 0.0000
0.1379 2.0000 0.0000
0.2069 1.0000 0.0000
0.2069 1.0345 0.0000
0.2069 1.0690 0.0000
0.2069 1.1034 0.0000
0.2069 1.1379 0.0000
0.2069 1.1724 0.0000
0.2069 1.2069 0.0000
0.2069 1.2414 0.0000
0.2069 1.2759 0.0000
0.2069 1.3103 0.0000
0.2069 1.3448 0.0000
0.2069 1.3793 0.0000
0.2069 1.4138 0.0000
0.2069 1.4483 0.0000
0.2069 1.4828 0.0000
0.2069 1.5172 0.0000
0.2069 1.5517 0.0000
0.2069 1.5862 0.0000
0.2069 1.6207 0.0000
0.2069 1.6552 0.0000
0.2069 1.6897 0.0000
0.2069 1.7241 0.0000
0.2069 1.7586 0.0000
0.2069 1.7931 0.0000
0.2069 1.8276 0.0000
0.2069 1.8621 0.0000
0.2069 1.8966 0.0000
0.2069 1.9310 0.0000
0.2069 1.9655 0.0000
0.2069 2.0000 0.0000
0.2759 1.0000 0.0000
0.2759 1.0345 0.0000
0.2759 1.0690 0.0000
0.2759 1.1034 0.0000
0.2759 1.1379 0.0000
0.2759 1.1724 0.0000
0.2759 1.2069 0.0000
0.2759 1.2414 0.0000
0.2759 1.2759 0.0000
0.2759 1.3103 0.0000
0.2759 1.3448 0.0000
0.2759 1.3793 0.0000
0.2759 1.4138 0.0000
0.2759 1.4483 0.0000
0.2759 1.4828 0.0000
0.2759 1.5172 0.0000
0.2759 1.5517 0.0000
0.2759 1.5862 0.0000
0.2759 1.6207 0.0000
0.2759 1.6552 0.0000
0.2759 1.6897 0.0000
0.2759 1.7241 0.0000
0.2759 1.7586 0.0000
0.2759 1.7931 0.0000
0.2759 1.8276 0.0000
0.2759 1.8621 0.0000
0.2759 1.8966 0.0000
0.2759 1.9310 0.0000
0.2759 1.9655 0.0000
0.2759 2.0000 0.0000
0.3448 1.0000 0.0000
0.3448 1.0345 0.0000
0.3448 1.0690 0.0000
0.3448 1.1034 0.0000
0.3448 1.1379 0.0000
0.3448 1.1724 0.0000
0.3448 1.2069 0.0000
0.3448 1.2414 0.0000
0.3448 1.2759 0.0000
0.3448 1.3103 0.0000
0.3448 1.3448 0.0000
0.3448 1.3793 0.0000
0.3448 1.4138 0.0000
0.3448 1.4483 0.0000
0.3448 1.4828 0.0000
0.3448 1.5172 0.0000
0.3448 1.5517 0.0000
0.3448 1.5862 0.0000
0.3448 1.6207 0.0000
0.3448 1.6552 0.0000
0.3448 1.6897 0.0000
0.3448 1.7241 0.0000
0.3448 1.7586 0.0000
0.3448 1.7931 0.0000
0.3448 1.8276 0.0000
0.3448 1.8621 0.0000
0.3448 1.8966 0.0000
0.3448 1.9310 0.0000
0.3448 1.9655 0.0000
0.3448 2.0000 0.0000
0.4138 1.0000 0.0000
0.4138 1.0345 0.0000
0.4138 1.0690 0.0000
0.4138 1.1034 0.0000
0.4138 1.1379 0.0000
0.4138 1.1724 0.0000
0.4138 1.2069 0.0000
0.4138 1.2414 0.0000
0.4138 1.2759 0.0000
0.4138 1.3103 0.0000
0.4138 1.3448 0.0000
0.4138 1.3793 0.0000
0.4138 1.4138 0.0000
0.4138 1.4483 0.0000
0.4138 1.4828 0.0000
0.4138 1.5172 0.0000
0.4138 1.5517 0.0000
0.4138 1.5862 0.0000
0.4138 1.6207 0.0000
0.4138 1.6552 0.0000
0.4138 1.6897 0.0000
0.4138 1.7241 0.0000
0.4138 1.7586 0.0000
0.4138 1.7931 0.0000
0.4138 1.8276 0.0000
0.4138 1.8621 0.0000
0.4138 1.8966 0.0000
0.4138 1.9310 0.0000
0.4138 1.9655 0.0000
0.4138 2.0000 0.0000
0.4828 1.0000 0.0000
0.4828 1.0345 0.0000
0.4828 1.0690 0.0000
0.4828 1.1034 0.0000
0.4828 1.1379 0.0000
0.4828 1.1724 0.0000
0.4828 1.2069 0.0000
0.4828 1.2414 0.0000
0.4828 1.2759 0.0000
0.4828 1.3103 0.0000
0.4828 1.3448 0.0000
0.4828 1.3793 0.0000
0.4828 1.4138 0.0000
0.4828 1.4483 0.0000
0.4828 1.4828 0.0000
0.4828 1.5172 0.0000
0.4828 1.5517 0.0000
0.4828 1.5862 0.0000
0.4828 1.6207 0.0000
0.4828 1.6552 0.0000
0.4828 1.6897 0.0000
0.4828 1.7241 0.0000
0.4828 1.7586 0.0000
0.4828 1.7931 0.0000
0.4828 1.8276 0.0000
0.4828 1.8621 0.0000
0.4828 1.8966 0.0000
0.4828 1.9310 0.0000
0.4828 1.9655 0.0000
0.4828 2.0000 0.0000
0.5517 1.0000 0.0000
0.5517 1.0345 0.0000
0.5517 1.0690 0.0000
0.5517 1.1034 0.0000
0.5517 1.1379 0.0000
0.5517 1.1724 0.0000
0.5517 1.2069 0.0000
0.5517 1.2414 0.0000
0.5517 1.2759 0.0000
0.5517 1.3103 0.0000
0.5517 1.3448 0.0000
0.5517 1.3793 0.0000
0.5517 1.4138 0.0000
0.5517 1.4483 0.0000
0.5517 1.4828 0.0000
0.5517 1.5172 0.0000
0.5517 1.5517 0.0000
0.5517 1.5862 0.0000
0.5517 1.6207 0.0000
0.5517 1.6552 0.0000
0.5517 1.6897 0.0000
0.5517 1.7241 0.0000
0.5517 1.7586 0.0000
0.5517 1.7931 0.0000
0.5517 1.8276 0.0000
0.5517 1.8621 0.0000
0.5517 1.8966 0.0000
0.5517 1.9310 0.0000
0.5517 1.9655 0.0000
0.5517 2.0000 0.0000
0.6207 1.0000 0.0000
0.6207 1.0345 0.0000
0.6207 1.0690 0.0000
0.6207 1.1034 0.0000
0.6207 1.1379 0.0000
0.6207 1.1724 0.0000
0.6207 1.2069 0.0000
0.6207 1.2414 0.0000
0.6207 1.2759 0.0000
0.6207 1.3103 0.0000
0.6207 1.3448 0.0000
0.6207 1.3793 0.0000
0.6207 1.4138 0.0000
0.6207 1.4483 0.0000
0.6207 1.4828 0.0000
0.6207 1.5172 0.0000
0.6207 1.5517 0.0000
0.6207 1.5862 0.0000
0.6207 1.6207 0.0000
0.6207 1.6552 0.0000
0.6207 1.6897 0.0000
0.6207 1.7241 0.0000
0.6207 1.7586 0.0000
0.6207 1.7931 0.0000
0.6207 1.8276 0.0000
0.6207 1.8621 0.0000
0.6207 1.8966 0.0000
0.6207 1.9310 0.0000
0.6207 1.9655 0.0000
0.6207 2.0000 0.0000
0.6897 1.0000 0.0000
0.6897 1.0345 0.0000
0.6897 1.0690 0.0000
0.6897 1.1034 0.0000
0.6897 1.1379 0.0000
0.6897 1.1724 0.0000
0.6897 1.2069 0.0000
0.6897 1.2414 0.0000
0.6897 1.2759 0.0000
0.6897 1.3103 0.0000
0.6897 1.3448 0.0000
0.6897 1.3793 0.0000
0.6897 1.4138 0.0000
0.6897 1.4483 0.0000
0.6897 1.4828 0.0000
0.6897 1.5172 0.0000
0.6897 1.5517 0.0000
0.6897 1.5862 0.0000
0.6897 1.6207 0.0000
0.6897 1.6552 0.0000
0.6897 1.6897 0.0000
0.6897 1.7241 0.0000
0.6897 1.7586 0.0000
0.6897 1.7931 0.0000
0.6897 1.8276 0.0000
0.6897 1.8621 0.0000
0.6897 1.8966 0.0000
0.6897 1.9310 0.0000
0.6897 1.9655 0.0000
0.6897 2.0000 0.0000
0.7586 1.0000 0.0000
0.7586 1.0345 0.0000
0.7586 1.0690 0.0000
0.7586 1.1034 0.0000
0.7586 1.1379 0.0000
0.7586 1.1724 0.0000
0.7586 1.2069 0.0000
0.7586 1.2414 0.0000
0.7586 1.2759 0.0000
0.7586 1.3103 0.0000
0.7586 1.3448 0.0000
0.7586 1.3793 0.0000
0.7586 1.4138 0.0000
0.7586 1.4483 0.0000
0.7586 1.4828 0.0000
0.7586 1.5172 0.0000
0.7586 1.5517 0.0000
0.7586 1.5862 0.0000
0.7586 1.6207 0.0000
0.7586 1.6552 0.0000
0.7586 1.6897 0.0000
0.7586 1.7241 0.0000
0.7586 1.7586 0.0000
0.7586 1.7931 0.0000
0.7586 1.8276 0.0000
0.7586 1.8621 0.0000
0.7586 1.8966 0.0000
0.7586 1.9310 0.0000
0.7586 1.9655 0.0000
0.7586 2.0000 0.0000
0.8276 1.0000 0.0000
0.8276 1.0345 0.0000
0.8276 1.0690 0.0000
0.8276 1.1034 0.0000
0.8276 1.1379 0.0000
0.8276 1.1724 0.0000
0.8276 1.2069 0.0000
0.8276 1.2414 0.0000
0.8276 1.2759 0.0000
0.8276 1.3103 0.0000
0.8276 1.3448 0.0000
0.8276 1.3793 0.0000
0.8276 1.4138 0.0000
0.8276 1.4483 0.0000
0.8276 1.4828 0.0000
0.8276 1.5172 0.0000
0.8276 1.5517 0.0000
0.8276 1.5862 0.0000
0.8276 1.6207 0.0000
0.8276 1.6552 0.0000
0.8276 1.6897 0.0000
0.8276 1.7241 0.0000
0.8276 1.7586 0.0000
0.8276 1.7931 0.0000
0.8276 1.8276 0.0000
0.8276 1.8621 0.0000
0.8276 1.8966 0.0000
0.8276 1.9310 0.0000
0.8276 1.9655 0.0000
0.8276 2.0000 0.0000
0.8966 1.0000 0.0000
0.8966 1.0345 0.0000
0.8966 1.0690 0.0000
0.8966 1.1034 0.0000
0.8966 1.1379 0.0000
0.8966 1.1724 0.0000
0.8966 1.2069 0.0000
0.8966 1.2414 0.0000
0.8966 1.2759 0.0000
0.8966 1.3103 0.0000
0.8966 1.3448 0.0000
0.8966 1.3793 0.0000
0.8966 1.4138 0.0000
0.8966 1.4483 0.0000
0.8966 1.4828 0.0000
0.8966 1.5172 0.0000
0.8966 1.5517 0.0000
0.8966 1.5862 0.0000
0.8966 1.6207 0.0000
0.8966 1.6552 0.0000
0.8966 1.6897 0.0000
0.8966 1.7241 0.0000
0.8966 1.7586 0.0000
0.8966 1.7931 0.0000
0.8966 1.8276 0.0000
0.8966 1.8621 0.0000
0.8966 1.8966 0.0000
0.8966 1.9310 0.0000
0.8966 1.9655 0.0000
0.8966 2.0000 0.0000
0.9655 1.0000 0.0000
0.9655 1.0345 0.0000
0.9655 1.0690 0.0000
0.9655 1.1034 0.0000
0.9655 1.1379 0.0000
0.9655 1.1724 0.0000
0.9655 1.2069 0.0000
0.9655 1.2414 0.0000
0.9655 1.2759 0.0000
0.9655 1.3103 0.0000
0.9655 1.3448 0.0000
0.9655 1.3793 0.0000
0.9655 1.4138 0.0000
0.9655 1.4483 0.0000
0.9655 1.4828 0.0000
0.9655 1.5172 0.0000
0.9655 1.5517 0.0000
0.9655 1.5862 0.0000
0.9655 1.6207 0.0000
0.9655 1.6552 0.0000
0.9655 1.6897 0.0000
0.9655 1.7241 0.0000
0.9655 1.7586 0.0000
0.9655 1.7931 0.0000
0.9655 1.8276 0.0000
0.9655 1.8621 0.0000
0.9655 1.8966 0.0000
0.9655 1.9310 0.0000
0.9655 1.9655 0.0000
0.9655 2.0000 0.0000
1.0345 1.0000 0.0000
1.0345 1.0345 0.0000
1.0345 1.0690 0.0000
1.0345 1.1034 0.0000
1.0345 1.1379 0.0000
1.0345 1.1724 0.0000
1.0345 1.2069 0.0000
1.0345 1.2414 0.0000
1.0345 1.2759 0.0000
1.0345 1.3103 0.0000
1.0345 1.3448 0.0000
[...]
         <PointData>
            <DataArray Name="fValues" NumberOfComponents="3" format="ascii" type="Float64">
-1.36049e-20 -1.27191e-20        00000 
-5.74941e-21  5.74941e-21        00000 
 3.55341e-21 -6.39613e-21        00000 
-3.83955e-21  4.01814e-22        00000 
 3.55341e-21 -2.84273e-21        00000 
 5.80105e-21  7.54199e-22        00000 
 2.84273e-21  3.55341e-22        00000 
-3.39309e-21  3.34845e-22        00000 
-7.10681e-22 -1.42136e-21        00000 
 5.50849e-21 -2.38039e-23        00000 
-1.42136e-21  1.77670e-22        00000 
 3.34845e-21  6.25043e-22        00000 
 7.81750e-21 -1.77670e-21        00000 
-2.18923e-21  2.16334e-21        00000 
-5.68545e-21 -2.13204e-21        00000 
 8.75061e-21  2.89083e-21        00000 
-7.81750e-21  7.10681e-22        00000 
 6.76485e-21 -3.21282e-21        00000 
 4.26409e-21  1.06602e-21        00000 
-6.83083e-21  3.59400e-21        00000 
 8.52818e-21 -7.46215e-21        00000 
-1.37485e-20  1.00665e-20        00000 
 6.39613e-21 -3.90875e-21        00000 
-1.33938e-21 -4.84409e-21        00000 
 3.55341e-21 -7.10681e-22        00000 
 4.28014e-21 -6.50336e-21        00000 
 2.84273e-21  9.94954e-21        00000 
 4.96495e-21 -1.10929e-20        00000 
-1.79194e-21  5.91341e-21        00000 
-7.07316e-21 -5.23893e-21        00000 
 1.07097e-04  9.21442e-05        00000 
 8.31042e-05  6.98458e-05        00000 
 7.46214e-05  5.42574e-05        00000 
 7.01611e-05  4.25927e-05        00000 
 6.73320e-05  3.32967e-05        00000 
 6.52900e-05  2.55681e-05        00000 
 6.36837e-05  1.89533e-05        00000 
 6.23527e-05  1.31724e-05        00000 
 6.12207e-05  8.03803e-06        00000 
 6.02509e-05  3.41559e-06        00000 
 5.94263e-05 -7.97236e-07        00000 
 5.87402e-05 -4.68205e-06        00000 
 5.81915e-05 -8.30659e-06        00000 
 5.77827e-05 -1.17293e-05        00000 
 5.75189e-05 -1.50026e-05        00000 
 5.74078e-05 -1.81762e-05        00000 
 5.74596e-05 -2.12990e-05        00000 
 5.76875e-05 -2.44225e-05        00000 
 5.81087e-05 -2.76036e-05        00000 
 5.87458e-05 -3.09079e-05        00000 
 5.96293e-05 -3.44147e-05        00000 
 6.08020e-05 -3.82232e-05        00000 
 6.23274e-05 -4.24628e-05        00000 
 6.43053e-05 -4.73105e-05        00000 
 6.69032e-05 -5.30212e-05        00000 
 7.04224e-05 -5.99864e-05        00000 
 7.54540e-05 -6.88519e-05        00000 
 8.33031e-05 -8.07687e-05        00000 
 9.74291e-05 -9.79680e-05        00000 
 1.33399e-04 -1.24493e-04        00000 
 1.86351e-04  1.30533e-04        00000 
 1.71722e-04  1.12977e-04        00000 
 1.59174e-04  9.42172e-05        00000 
 1.50538e-04  7.71120e-05        00000 
 1.44207e-04  6.19705e-05        00000 
 1.39274e-04  4.85782e-05        00000 
 1.35253e-04  3.66481e-05        00000 
 1.31880e-04  2.59190e-05        00000 
 1.29012e-04  1.61718e-05        00000 
 1.26568e-04  7.22527e-06        00000 
 1.24504e-04 -1.07077e-06        00000 
 1.22795e-04 -8.84272e-06        00000 
 1.21430e-04 -1.61989e-05        00000 
 1.20407e-04 -2.32347e-05        00000 
 1.19732e-04 -3.00371e-05        00000 
 1.19420e-04 -3.66892e-05        00000 
 1.19491e-04 -4.32745e-05        00000 
 1.19977e-04 -4.98817e-05        00000 
 1.20920e-04 -5.66093e-05        00000 
 1.22376e-04 -6.35717e-05        00000 
 1.24420e-04 -7.09057e-05        00000 
 1.27156e-04 -7.87782e-05        00000 
 1.30729e-04 -8.73974e-05        00000 
 1.35354e-04 -9.70251e-05        00000 
 1.41363e-04 -1.07993e-04        00000 
 1.49292e-04 -1.20715e-04        00000 
 1.60046e-04 -1.35680e-04        00000 
 1.75204e-04 -1.53337e-04        00000 
 1.97463e-04 -1.73515e-04        00000 
 2.25472e-04 -1.92773e-04        00000 
 2.63748e-04  1.53815e-04        00000 
 2.54047e-04  1.35648e-04        00000 
 2.43925e-04  1.17221e-04        00000 
 2.34339e-04  9.89224e-05        00000 
 2.25943e-04  8.14426e-05        00000 
 2.18676e-04  6.50516e-05        00000 
 2.12379e-04  4.97777e-05        00000 
 2.06916e-04  3.55404e-05        00000 
 2.02187e-04  2.22176e-05        00000 
 1.98122e-04  9.67741e-06        00000 
 1.94676e-04 -2.20745e-06        00000 
 1.91817e-04 -1.35541e-05        00000 
 1.89526e-04 -2.44686e-05        00000 
 1.87799e-04 -3.50471e-05        00000 
 1.86642e-04 -4.53791e-05        00000 
 1.86074e-04 -5.55512e-05        00000 
 1.86130e-04 -6.56515e-05        00000 
 1.86861e-04 -7.57744e-05        00000 
 1.88335e-04 -8.60253e-05        00000 
 1.90643e-04 -9.65259e-05        00000 
 1.93901e-04 -1.07418e-04        00000 
 1.98260e-04 -1.18869e-04        00000 
 2.03911e-04 -1.31068e-04        00000 
 2.11112e-04 -1.44228e-04        00000 
 2.20201e-04 -1.58566e-04        00000 
 2.31628e-04 -1.74268e-04        00000 
 2.45955e-04 -1.91402e-04        00000 
 2.63728e-04 -2.09738e-04        00000 
 2.84705e-04 -2.28493e-04        00000 
 3.08336e-04 -2.47208e-04        00000 
 3.44185e-04  1.68368e-04        00000 
 3.36820e-04  1.49671e-04        00000 
 3.27979e-04  1.30797e-04        00000 
 3.18609e-04  1.12040e-04        00000 
 3.09359e-04  9.36155e-05        00000 
 3.00659e-04  7.57320e-05        00000 
 2.92705e-04  5.84913e-05        00000 
 2.85568e-04  4.19074e-05        00000 
 2.79263e-04  2.59396e-05        00000 
 2.73779e-04  1.05196e-05        00000 
 2.69093e-04 -4.43005e-06        00000 
 2.65181e-04 -1.89862e-05        00000 
 2.62027e-04 -3.32200e-05        00000 
 2.59624e-04 -4.71960e-05        00000 
 2.57978e-04 -6.09732e-05        00000 
 2.57114e-04 -7.46084e-05        00000 
 2.57079e-04 -8.81599e-05        00000 
 2.57942e-04 -1.01692e-04        00000 
 2.59794e-04 -1.15280e-04        00000 
 2.62753e-04 -1.29012e-04        00000 
 2.66963e-04 -1.42992e-04        00000 
 2.72591e-04 -1.57338e-04        00000 
 2.79834e-04 -1.72178e-04        00000 
 2.88908e-04 -1.87636e-04        00000 
 3.00043e-04 -2.03810e-04        00000 
 3.13451e-04 -2.20737e-04        00000 
 3.29254e-04 -2.38341e-04        00000 
 3.47338e-04 -2.56407e-04        00000 
 3.67373e-04 -2.74687e-04        00000 
 3.88681e-04 -2.92801e-04        00000 
 4.28753e-04  1.79780e-04        00000 
 4.21840e-04  1.60244e-04        00000 
 4.13115e-04  1.40823e-04        00000 
 4.03452e-04  1.21549e-04        00000 
 3.93542e-04  1.02478e-04        00000 
 3.83884e-04  8.36468e-05        00000 
 3.74812e-04  6.50776e-05        00000 
 3.66524e-04  4.67673e-05        00000 
 3.59118e-04  2.86919e-05        00000 
 3.52628e-04  1.08166e-05        00000 
 3.47053e-04 -6.89390e-06        00000 
 3.42371e-04 -2.44686e-05        00000 
 3.38561e-04 -4.19270e-05        00000 
 3.35609e-04 -5.92783e-05        00000 
 3.33517e-04 -7.65238e-05        00000 
 3.32313e-04 -9.36606e-05        00000 
 3.32051e-04 -1.10686e-04        00000 
 3.32815e-04 -1.27604e-04        00000 
 3.34721e-04 -1.44426e-04        00000 
 3.37909e-04 -1.61180e-04        00000 
 3.42544e-04 -1.77907e-04        00000 
 3.48805e-04 -1.94665e-04        00000 
 3.56875e-04 -2.11519e-04        00000 
 3.66925e-04 -2.28533e-04        00000 
 3.79087e-04 -2.45759e-04        00000 
 3.93411e-04 -2.63216e-04        00000 
 4.09824e-04 -2.80888e-04        00000 
 4.28092e-04 -2.98728e-04        00000 
 4.47777e-04 -3.16654e-04        00000 
 4.68237e-04 -3.34597e-04        00000 
 5.17863e-04  1.91952e-04        00000 
 5.09721e-04  1.71576e-04        00000 
 4.99899e-04  1.51561e-04        00000 
 4.89242e-04  1.31780e-04        00000 
 4.78418e-04  1.12115e-04        00000 
 4.67925e-04  9.24652e-05        00000 
 4.58106e-04  7.27426e-05        00000 
 4.49168e-04  5.28778e-05        00000 
 4.41214e-04  3.28195e-05        00000 
 4.34269e-04  1.25380e-05        00000 
 4.28309e-04 -7.97292e-06        00000 
 4.23287e-04 -2.86942e-05        00000 
 4.19151e-04 -4.95827e-05        00000 
 4.15861e-04 -7.05741e-05        00000 
 4.13404e-04 -9.15882e-05        00000 
 4.11800e-04 -1.12535e-04        00000 
 4.11109e-04 -1.33324e-04        00000 
 4.11432e-04 -1.53867e-04        00000 
 4.12910e-04 -1.74093e-04        00000 
 4.15718e-04 -1.93947e-04        00000 
 4.20057e-04 -2.13397e-04        00000 
 4.26136e-04 -2.32438e-04        00000 
 4.34159e-04 -2.51089e-04        00000 
 4.44299e-04 -2.69389e-04        00000 
 4.56668e-04 -2.87396e-04        00000 
 4.71286e-04 -3.05181e-04        00000 
 4.88051e-04 -3.22826e-04        00000 
 5.06704e-04 -3.40420e-04        00000 
 5.26812e-04 -3.58068e-04        00000 
 5.47753e-04 -3.75880e-04        00000 
 6.11224e-04  2.08541e-04        00000 
 6.00258e-04  1.87449e-04        00000 
 5.88188e-04  1.66949e-04        00000 
 5.75837e-04  1.46732e-04        00000 
 5.63828e-04  1.26509e-04        00000 
 5.52596e-04  1.06027e-04        00000 
 5.42410e-04  8.50814e-05        00000 
 5.33399e-04  6.35201e-05        00000 
 5.25581e-04  4.12481e-05        00000 
 5.18894e-04  1.82288e-05        00000 
 5.13230e-04 -5.51766e-06        00000 
 5.08460e-04 -2.99179e-05        00000 
 5.04460e-04 -5.48513e-05        00000 
 5.01136e-04 -8.01588e-05        00000 
 4.98434e-04 -1.05652e-04        00000 
 4.96354e-04 -1.31126e-04        00000 
 4.94960e-04 -1.56370e-04        00000 
 4.94374e-04 -1.81181e-04        00000 
 4.94780e-04 -2.05374e-04        00000 
 4.96411e-04 -2.28796e-04        00000 
 4.99536e-04 -2.51329e-04        00000 
 5.04443e-04 -2.72905e-04        00000 
 5.11415e-04 -2.93503e-04        00000 
 5.20702e-04 -3.13157e-04        00000 
 5.32492e-04 -3.31954e-04        00000 
 5.46876e-04 -3.50036e-04        00000 
 5.63816e-04 -3.67595e-04        00000 
 5.83117e-04 -3.84870e-04        00000 
 6.04397e-04 -4.02138e-04        00000 
 6.27068e-04 -4.19708e-04        00000 
 7.07882e-04  2.33183e-04        00000 
 6.92503e-04  2.11674e-04        00000 
 6.77127e-04  1.90952e-04        00000 
 6.62538e-04  1.70479e-04        00000 
 6.49265e-04  1.49763e-04        00000 
 6.37613e-04  1.28380e-04        00000 
 6.27693e-04  1.05988e-04        00000 
 6.19458e-04  8.23452e-05        00000 
 6.12746e-04  5.73081e-05        00000 
 6.07320e-04  3.08369e-05        00000 
 6.02902e-04  2.98856e-06        00000 
 5.99212e-04 -2.60908e-05        00000 
 5.95999e-04 -5.61780e-05        00000 
 5.93067e-04 -8.69877e-05        00000 
 5.90293e-04 -1.18189e-04        00000 
 5.87644e-04 -1.49423e-04        00000 
 5.85182e-04 -1.80324e-04        00000 
 5.83065e-04 -2.10537e-04        00000 
 5.81543e-04 -2.39734e-04        00000 
 5.80945e-04 -2.67637e-04        00000 
 5.81663e-04 -2.94025e-04        00000 
 5.84126e-04 -3.18755e-04        00000 
 5.88775e-04 -3.41764e-04        00000 
 5.96026e-04 -3.63083e-04        00000 
 6.06238e-04 -3.82838e-04        00000 
 6.19672e-04 -4.01251e-04        00000 
 6.36449e-04 -4.18640e-04        00000 
 6.56519e-04 -4.35409e-04        00000 
 6.79614e-04 -4.52036e-04        00000 
 7.05222e-04 -4.69057e-04        00000 
 8.06001e-04  2.69670e-04        00000 
 7.84626e-04  2.48270e-04        00000 
 7.65060e-04  2.27782e-04        00000 
 7.47990e-04  2.07374e-04        00000 
 7.33774e-04  1.86296e-04        00000 
 7.22484e-04  1.63910e-04        00000 
 7.13960e-04  1.39719e-04        00000 
 7.07865e-04  1.13377e-04        00000 
 7.03737e-04  8.46985e-05        00000 
 7.01048e-04  5.36523e-05        00000 
 6.99251e-04  2.03565e-05        00000 
 6.97827e-04 -1.49373e-05        00000 
 6.96323e-04 -5.18631e-05        00000 
 6.94388e-04 -8.99630e-05        00000 
 6.91793e-04 -1.28713e-04        00000 
 6.88453e-04 -1.67551e-04        00000 
 6.84430e-04 -2.05905e-04        00000 
 6.79937e-04 -2.43220e-04        00000 
 6.75328e-04 -2.78985e-04        00000 
 6.71081e-04 -3.12760e-04        00000 
 6.67779e-04 -3.44194e-04        00000 
 6.66074e-04 -3.73049e-04        00000 
 6.66659e-04 -3.99210e-04        00000 
 6.70220e-04 -4.22699e-04        00000 
 6.77398e-04 -4.43684e-04        00000 
 6.88736e-04 -4.62478e-04        00000 
 7.04630e-04 -4.79542e-04        00000 
 7.25276e-04 -4.95474e-04        00000 
 7.50616e-04 -5.10995e-04        00000 
 7.80290e-04 -5.26926e-04        00000 
 9.02532e-04  3.21978e-04        00000 
 8.73644e-04  3.01518e-04        00000 
 8.49317e-04  2.81985e-04        00000 
 8.30033e-04  2.62150e-04        00000 
 8.15843e-04  2.40929e-04        00000 
 8.06440e-04  2.17424e-04        00000 
 8.01237e-04  1.90948e-04        00000 
 7.99443e-04  1.61045e-04        00000 
 8.00148e-04  1.27490e-04        00000 
 8.02388e-04  9.02873e-05        00000 
 8.05215e-04  4.96523e-05        00000 
 8.07759e-04  5.99168e-06        00000 
 8.09276e-04 -4.01257e-05        00000 
 8.09189e-04 -8.80032e-05        00000 
 8.07122e-04 -1.36853e-04        00000 
 8.02918e-04 -1.85838e-04        00000 
 7.96648e-04 -2.34111e-04        00000 
 7.88610e-04 -2.80853e-04        00000 
 7.79312e-04 -3.25314e-04        00000 
 7.69456e-04 -3.66846e-04        00000 
 7.59902e-04 -4.04932e-04        00000 
 7.51631e-04 -4.39212e-04        00000 
 7.45702e-04 -4.69503e-04        00000 
 7.43198e-04 -4.95814e-04        00000 
 7.45173e-04 -5.18356e-04        00000 
 7.52590e-04 -5.37549e-04        00000 
 7.66260e-04 -5.54018e-04        00000 
 7.86769e-04 -5.68592e-04        00000 
 8.14408e-04 -5.82286e-04        00000 
 8.49095e-04 -5.96280e-04        00000 
 9.92724e-04  3.94157e-04        00000 
 9.55023e-04  3.75894e-04        00000 
 9.25910e-04  3.58387e-04        00000 
 9.05478e-04  3.39885e-04        00000 
 8.93266e-04  3.18878e-04        00000 
 8.88373e-04  2.94141e-04        00000 
 8.89564e-04  2.64765e-04        00000 
 8.95390e-04  2.30170e-04        00000 
 9.04282e-04  1.90106e-04        00000 
 9.14654e-04  1.44644e-04        00000 
 9.24990e-04  9.41502e-05        00000 
 9.33923e-04  3.92552e-05        00000 
 9.40300e-04 -1.91853e-05        00000 
 9.43236e-04 -8.01414e-05        00000 
 9.42156e-04 -1.42462e-04        00000 
 9.36815e-04 -2.04932e-04        00000 
 9.27311e-04 -2.66334e-04        00000 
 9.14073e-04 -3.25500e-04        00000 
 8.97843e-04 -3.81365e-04        00000 
 8.79646e-04 -4.33016e-04        00000 
 8.60737e-04 -4.79729e-04        00000 
 8.42561e-04 -5.20998e-04        00000 
 8.26684e-04 -5.56559e-04        00000 
 8.14737e-04 -5.86410e-04        00000 
 8.08346e-04 -6.10817e-04        00000 
 8.09061e-04 -6.30321e-04        00000 
 8.18279e-04 -6.45743e-04        00000 
 8.37158e-04 -6.58179e-04        00000 
 8.66531e-04 -6.68994e-04        00000 
 9.06792e-04 -6.79805e-04        00000 
 1.06945e-03  4.90015e-04        00000 
 1.02214e-03  4.75784e-04        00000 
 9.89120e-04  4.61847e-04        00000 
 9.69814e-04  4.45785e-04        00000 
 9.62950e-04  4.25553e-04        00000 
 9.66734e-04  3.99529e-04        00000 
 9.78999e-04  3.66540e-04        00000 
 9.97353e-04  3.25865e-04        00000 
 1.01931e-03  2.77243e-04        00000 
 1.04241e-03  2.20847e-04        00000 
 1.06435e-03  1.57260e-04        00000 
 1.08307e-03  8.74323e-05        00000 
 1.09685e-03  1.26214e-05        00000 
 1.10440e-03 -6.56738e-05        00000 
 1.10487e-03 -1.45794e-04        00000 
 1.09792e-03 -2.26002e-04        00000 
 1.08371e-03 -3.04569e-04        00000 
 1.06289e-03 -3.79857e-04        00000 
 1.03655e-03 -4.50393e-04        00000 
 1.00618e-03 -5.14929e-04        00000 
 9.73610e-04 -5.72494e-04        00000 
 9.40916e-04 -6.22424e-04        00000 
 9.10356e-04 -6.64386e-04        00000 
 8.84288e-04 -6.98389e-04        00000 
 8.65088e-04 -7.24786e-04        00000 
 8.55075e-04 -7.44276e-04        00000 
 8.56428e-04 -7.57905e-04        00000 
 8.71096e-04 -7.67074e-04        00000 
 9.00693e-04 -7.73540e-04        00000 
 9.46371e-04 -7.79420e-04        00000 
 1.12238e-03  6.12479e-04        00000 
 1.06562e-03  6.04880e-04        00000 
 1.03100e-03  5.96683e-04        00000 
 1.01683e-03  5.84648e-04        00000 
 1.02063e-03  5.66093e-04        00000 
 1.03935e-03  5.38920e-04        00000 
 1.06952e-03  5.01630e-04        00000 
 1.10745e-03  4.53331e-04        00000 
 1.14942e-03  3.93735e-04        00000 
 1.19175e-03  3.23152e-04        00000 
 1.23105e-03  2.42455e-04        00000 
 1.26431e-03  1.53028e-04        00000 
 1.28901e-03  5.66983e-05        00000 
 1.30328e-03 -4.43707e-05        00000 
 1.30593e-03 -1.47788e-04        00000 
 1.29652e-03 -2.51072e-04        00000 
 1.27535e-03 -3.51774e-04        00000 
 1.24342e-03 -4.47608e-04        00000 
 1.20238e-03 -5.36560e-04        00000 
 1.15443e-03 -6.16971e-04        00000 
 1.10221e-03 -6.87598e-04        00000 
 1.04869e-03 -7.47647e-04        00000 
 9.97050e-04 -7.96777e-04        00000 
 9.50579e-04 -8.35089e-04        00000 
 9.12591e-04 -8.63109e-04        00000 
 8.86346e-04 -8.81765e-04        00000 
 8.74984e-04 -8.92382e-04        00000 
 8.81452e-04 -8.96682e-04        00000 
 9.08416e-04 -8.96822e-04        00000 
 9.58136e-04 -8.95427e-04        00000 
 1.13696e-03  7.62452e-04        00000 
 1.07262e-03  7.65047e-04        00000 
 1.04079e-03  7.65560e-04        00000 
 1.03811e-03  7.59834e-04        00000 
 1.06043e-03  7.44466e-04        00000 
 1.10300e-03  7.16789e-04        00000 
 1.16069e-03  6.74875e-04        00000 
 1.22811e-03  6.17553e-04        00000 
 1.29983e-03  5.44438e-04        00000 
 1.37057e-03  4.55950e-04        00000 
 1.43536e-03  3.53305e-04        00000 
 1.48983e-03  2.38474e-04        00000 
 1.53032e-03  1.14079e-04        00000 
 1.55412e-03 -1.67327e-05        00000 
 1.55958e-03 -1.50492e-04        00000 
 1.54615e-03 -2.83592e-04        00000 
 1.51442e-03 -4.12531e-04        00000 
 1.46602e-03 -5.34088e-04        00000 
 1.40351e-03 -6.45521e-04        00000 
 1.33020e-03 -7.44670e-04        00000 
 1.24996e-03 -8.30046e-04        00000 
 1.16703e-03 -9.00829e-04        00000 
 1.08583e-03 -9.56849e-04        00000 
 1.01083e-03 -9.98511e-04        00000 
 9.46414e-04 -1.02671e-03        00000 
 8.96896e-04 -1.04276e-03        00000 
 8.66447e-04 -1.04836e-03        00000 
 8.59122e-04 -1.04554e-03        00000 
 8.78845e-04 -1.03681e-03        00000 
 9.29346e-04 -1.02517e-03        00000 
 1.09358e-03  9.36903e-04        00000 
 1.02625e-03  9.54362e-04        00000 
 1.00438e-03  9.67551e-04        00000 
 1.02237e-03  9.71453e-04        00000 
 1.07399e-03  9.61924e-04        00000 
 1.15250e-03  9.35595e-04        00000 
 1.25077e-03  8.89874e-04        00000 
 1.36131e-03  8.23029e-04        00000 
 1.47647e-03  7.34315e-04        00000 
 1.58867e-03  6.24086e-04        00000 
 1.69069e-03  4.93891e-04        00000 
 1.77604e-03  3.46433e-04        00000 
 1.83932e-03  1.85512e-04        00000 
 1.87652e-03  1.57373e-05        00000 
 1.88526e-03 -1.57678e-04        00000 
 1.86496e-03 -3.29401e-04        00000 
 1.81674e-03 -4.94221e-04        00000 
 1.74339e-03 -6.47551e-04        00000 
 1.64904e-03 -7.85577e-04        00000 
 1.53885e-03 -9.05585e-04        00000 
 1.41866e-03 -1.00593e-03        00000 
 1.29462e-03 -1.08608e-03        00000 
 1.17283e-03 -1.14644e-03        00000 
 1.05920e-03 -1.18818e-03        00000 
 9.59277e-04 -1.21301e-03        00000 
 8.78285e-04 -1.22295e-03        00000 
 8.21235e-04 -1.22023e-03        00000 
 7.93098e-04 -1.20721e-03        00000 
 7.99003e-04 -1.18649e-03        00000 
 8.44350e-04 -1.16111e-03        00000 
 9.67256e-04  1.12597e-03        00000 
 9.05450e-04  1.16400e-03        00000 
 9.03892e-04  1.19498e-03        00000 
 9.54429e-04  1.21344e-03        00000 
 1.04884e-03  1.21457e-03        00000 
 1.17859e-03  1.19407e-03        00000 
 1.33453e-03  1.14812e-03        00000 
 1.50678e-03  1.07375e-03        00000 
 1.68477e-03  9.69136e-04        00000 
 1.85759e-03  8.34048e-04        00000 
 2.01445e-03  6.70095e-04        00000 
 2.14546e-03  4.80939e-04        00000 
 2.24217e-03  2.72007e-04        00000 
 2.29841e-03  5.04453e-05        00000 
 2.31060e-03 -1.75845e-04        00000 
 2.27814e-03 -3.98339e-04        00000 
 2.20329e-03 -6.09244e-04        00000 