<?xml version="1.0" encoding="utf-8"?>
<VTKFile byte_order="LittleEndian" type="UnstructuredGrid" version="0.1">
   <UnstructuredGrid>
      <Piece NumberOfCells="3364" NumberOfPoints="1741">
         <Points>
            <DataArray Name="Points" NumberOfComponents="3" format="ascii" type="Float32">
0.0000 1.0000 0.0000
0.0000 1.0345 0.0000
0.0000 1.0690 0.0000
0.0000 1.1034 0.0000
0.0000 1.1379 0.0000
0.0000 1.1724 0.0000
0.0000 1.2069 0.0000
0.0000 1.2414 0.0000
0.0000 1.2759 0.0000
0.0000 1.3103 0.0000
0.0000 1.3448 0.0000
0.0000 1.3793 0.0000
0.0000 1.4138 0.0000
0.0000 1.4483 0.0000
0.0000 1.4828 0.0000
0.0000 1.5172 0.0000
0.0000 1.5517 0.0000
0.0000 1.5862 0.0000
0.0000 1.6207 0.0000
0.0000 1.6552 0.0000
0.0000 1.6897 0.0000
0.0000 1.7241 0.0000
0.0000 1.7586 0.0000
0.0000 1.7931 0.0000
0.0000 1.8276 0.0000
0.0000 1.8621 0.0000
0.0000 1.8966 0.0000
0.0000 1.9310 0.0000
0.0000 1.9655 0.0000
0.0000 2.0000 0.0000
0.0690 1.0000 0.0000
0.0690 1.0345 0.0000
0.0690 1.0690 0.0000
0.0690 1.1034 0.0000
0.0690 1.1379 0.0000
0.0690 1.1724 0.0000
0.0690 1.2069 0.0000
0.0690 1.2414 0.0000
0.0690 1.2759 0.0000
0.0690 1.3103 0.0000
0.0690 1.3448 0.0000
0.0690 1.3793 0.0000
0.0690 1.4138 0.0000
0.0690 1.4483 0.0000
0.0690 1.4828 0.0000
0.0690 1.5172 0.0000
0.0690 1.5517 0.0000
0.0690 1.5862 0.0000
0.0690 1.6207 0.0000
0.0690 1.6552 0.0000
0.0690 1.6897 0.0000
0.0690 1.7241 0.0000
0.0690 1.7586 0.0000
0.0690 1.7931 0.0000
0.0690 1.8276 0.0000
0.0690 1.8621 0.0000
0.0690 1.8966 0.0000
0.0690 1.9310 0.0000
0.0690 1.9655 0.0000
0.0690 2.0000 0.0000
0.1379 1.0000 0.0000
0.1379 1.0345 0.0000
0.1379 1.0690 0.0000
0.1379 1.1034 0.0000
0.1379 1.1379 0.0000
0.1379 1.1724 0.0000
0.1379 1.2069 0.0000
0.1379 1.2414 0.0000
0.1379 1.2759 0.0000
0.1379 1.3103 0.0000
0.1379 1.3448 0.0000
0.1379 1.3793 0.0000
0.1379 1.4138 0.0000
0.1379 1.4483 0.0000
0.1379 1.4828 0.0000
0.1379 1.5172 0.0000
0.1379 1.5517 0.0000
0.1379 1.5862 0.0000
0.1379 1.6207 0.0000
0.1379 1.6552 0.0000
0.1379 1.6897 0.0000
0.1379 1.7241 0.0000
0.1379 1.7586 0.0000
0.1379 1.7931 0.0000
0.1379 1.8276 0.0000
0.1379 1.8621 0.0000
0.1379 1.8966 0.0000
0.1379 1.9310 0.0000
0.1379 1.9655 0.0000
0.1379 2.0000 0.0000
0.2069 1.0000 0.0000
0.2069 1.0345 0.0000
0.2069 1.0690 0.0000
0.2069 1.1034 0.0000
0.2069 1.1379 0.0000
0.2069 1.1724 0.0000
0.2069 1.2069 0.0000
0.2069 1.2414 0.0000
0.2069 1.2759 0.0000
0.2069 1.3103 0.0000
0.2069 1.3448 0.0000
0.2069 1.3793 0.0000
0.2069 1.4138 0.0000
0.2069 1.4483 0.0000
0.2069 1.4828 0.0000
0.2069 1.5172 0.0000
0.2069 1.5517 0.0000
0.2069 1.5862 0.0000
0.2069 1.6207 0.0000
0.2069 1.6552 0.0000
0.2069 1.6897 0.0000
0.2069 1.7241 0.0000
0.2069 1.7586 0.0000
0.2069 1.7931 0.0000
0.2069 1.8276 0.0000
0.2069 1.8621 0.0000
0.2069 1.8966 0.0000
0.2069 1.9310 0.0000
0.2069 1.9655 0.0000
0.2069 2.0000 0.0000
0.2759 1.0000 0.0000
0.2759 1.0345 0.0000
0.2759 1.0690 0.0000
0.2759 1.1034 0.0000
0.2759 1.1379 0.0000
0.2759 1.1724 0.0000
0.2759 1.2069 0.0000
0.2759 1.2414 0.0000
0.2759 1.2759 0.0000
0.2759 1.3103 0.0000
0.2759 1.3448 0.0000
0.2759 1.3793 0.0000
0.2759 1.4138 0.0000
0.2759 1.4483 0.0000
0.2759 1.4828 0.0000
0.2759 1.5172 0.0000
0.2759 1.5517 0.0000
0.2759 1.5862 0.0000
0.2759 1.6207 0.0000
0.2759 1.6552 0.0000
0.2759 1.6897 0.0000
0.2759 1.7241 0.0000
0.2759 1.7586 0.0000
0.2759 1.7931 0.0000
0.2759 1.8276 0.0000
0.2759 1.8621 0.0000
0.2759 1.8966 0.0000
0.2759 1.9310 0.0000
0.2759 1.9655 0.0000
0.2759 2.0000 0.0000
0.3448 1.0000 0.0000
0.3448 1.0345 0.0000
0.3448 1.0690 0.0000
0.3448 1.1034 0.0000
0.3448 1.1379 0.0000
0.3448 1.1724 0.0000
0.3448 1.2069 0.0000
0.3448 1.2414 0.0000
0.3448 1.2759 0.0000
0.3448 1.3103 0.0000
0.3448 1.3448 0.0000
0.3448 1.3793 0.0000
0.3448 1.4138 0.0000
0.3448 1.4483 0.0000
0.3448 1.4828 0.0000
0.3448 1.5172 0.0000
0.3448 1.5517 0.0000
0.3448 1.5862 0.0000
0.3448 1.6207 0.0000
0.3448 1.6552 0.0000
0.3448 1.6897 0.0000
0.3448 1.7241 0.0000
0.3448 1.7586 0.0000
0.3448 1.7931 0.0000
0.3448 1.8276 0.0000
0.3448 1.8621 0.0000
0.3448 1.8966 0.0000
0.3448 1.9310 0.0000
0.3448 1.9655 0.0000
0.3448 2.0000 0.0000
0.4138 1.0000 0.0000
0.4138 1.0345 0.0000
0.4138 1.0690 0.0000
0.4138 1.1034 0.0000
0.4138 1.1379 0.0000
0.4138 1.1724 0.0000
0.4138 1.2069 0.0000
0.4138 1.2414 0.0000
0.4138 1.2759 0.0000
0.4138 1.3103 0.0000
0.4138 1.3448 0.0000
0.4138 1.3793 0.0000
0.4138 1.4138 0.0000
0.4138 1.4483 0.0000
0.4138 1.4828 0.0000
0.4138 1.5172 0.0000
0.4138 1.5517 0.0000
0.4138 1.5862 0.0000
0.4138 1.6207 0.0000
0.4138 1.6552 0.0000
0.4138 1.6897 0.0000
0.4138 1.7241 0.0000
0.4138 1.7586 0.0000
0.4138 1.7931 0.0000
0.4138 1.8276 0.0000
0.4138 1.8621 0.0000
0.4138 1.8966 0.0000
0.4138 1.9310 0.0000
0.4138 1.9655 0.0000
0.4138 2.0000 0.0000
0.4828 1.0000 0.0000
0.4828 1.0345 0.0000
0.4828 1.0690 0.0000
0.4828 1.1034 0.0000
0.4828 1.1379 0.0000
0.4828 1.1724 0.0000
0.4828 1.2069 0.0000
0.4828 1.2414 0.0000
0.4828 1.2759 0.0000
0.4828 1.3103 0.0000
0.4828 1.3448 0.0000
0.4828 1.3793 0.0000
0.4828 1.4138 0.0000
0.4828 1.4483 0.0000
0.4828 1.4828 0.0000
0.4828 1.5172 0.0000
0.4828 1.5517 0.0000
0.4828 1.5862 0.0000
0.4828 1.6207 0.0000
0.4828 1.6552 0.0000
0.4828 1.6897 0.0000
0.4828 1.7241 0.0000
0.4828 1.7586 0.0000
0.4828 1.7931 0.0000
0.4828 1.8276 0.0000
0.4828 1.8621 0.0000
0.4828 1.8966 0.0000
0.4828 1.9310 0.0000
0.4828 1.9655 0.0000
0.4828 2.0000 0.0000
0.5517 1.0000 0.0000
0.5517 1.0345 0.0000
0.5517 1.0690 0.0000
0.5517 1.1034 0.0000
0.5517 1.1379 0.0000
0.5517 1.1724 0.0000
0.5517 1.2069 0.0000
0.5517 1.2414 0.0000
0.5517 1.2759 0.0000
0.5517 1.3103 0.0000
0.5517 1.3448 0.0000
0.5517 1.3793 0.0000
0.5517 1.4138 0.0000
0.5517 1.4483 0.0000
0.5517 1.4828 0.0000
0.5517 1.5172 0.0000
0.5517 1.5517 0.0000
0.5517 1.5862 0.0000
0.5517 1.6207 0.0000
0.5517 1.6552 0.0000
0.5517 1.6897 0.0000
0.5517 1.7241 0.0000
0.5517 1.7586 0.0000
0.5517 1.7931 0.0000
0.5517 1.8276 0.0000
0.5517 1.8621 0.0000
0.5517 1.8966 0.0000
0.5517 1.9310 0.0000
0.5517 1.9655 0.0000
0.5517 2.0000 0.0000
0.6207 1.0000 0.0000
0.6207 1.0345 0.0000
0.6207 1.0690 0.0000
0.6207 1.1034 0.0000
0.6207 1.1379 0.0000
0.6207 1.1724 0.0000
0.6207 1.2069 0.0000
0.6207 1.2414 0.0000
0.6207 1.2759 0.0000
0.6207 1.3103 0.0000
0.6207 1.3448 0.0000
0.6207 1.3793 0.0000
0.6207 1.4138 0.0000
0.6207 1.4483 0.0000
0.6207 1.4828 0.0000
0.6207 1.5172 0.0000
0.6207 1.5517 0.0000
0.6207 1.5862 0.0000
0.6207 1.6207 0.0000
0.6207 1.6552 0.0000
0.6207 1.6897 0.0000
0.6207 1.7241 0.0000
0.6207 1.7586 0.0000
0.6207 1.7931 0.0000
0.6207 1.8276 0.0000
0.6207 1.8621 0.0000
0.6207 1.8966 0.0000
0.6207 1.9310 0.0000
0.6207 1.9655 0.0000
0.6207 2.0000 0.0000
0.6897 1.0000 0.0000
0.6897 1.0345 0.0000
0.6897 1.0690 0.0000
0.6897 1.1034 0.0000
0.6897 1.1379 0.0000
0.6897 1.1724 0.0000
0.6897 1.2069 0.0000
0.6897 1.2414 0.0000
0.6897 1.2759 0.0000
0.6897 1.3103 0.0000
0.6897 1.3448 0.0000
0.6897 1.3793 0.0000
0.6897 1.4138 0.0000
0.6897 1.4483 0.0000
0.6897 1.4828 0.0000
0.6897 1.5172 0.0000
0.6897 1.5517 0.0000
0.6897 1.5862 0.0000
0.6897 1.6207 0.0000
0.6897 1.6552 0.0000
0.6897 1.6897 0.0000
0.6897 1.7241 0.0000
0.6897 1.7586 0.0000
0.6897 1.7931 0.0000
0.6897 1.8276 0.0000
0.6897 1.8621 0.0000
0.6897 1.8966 0.0000
0.6897 1.9310 0.0000
0.6897 1.9655 0.0000
0.6897 2.0000 0.0000
0.7586 1.0000 0.0000
0.7586 1.0345 0.0000
0.7586 1.0690 0.0000
0.7586 1.1034 0.0000
0.7586 1.1379 0.0000
0.7586 1.1724 0.0000
0.7586 1.2069 0.0000
0.7586 1.2414 0.0000
0.7586 1.2759 0.0000
0.7586 1.3103 0.0000
0.7586 1.3448 0.0000
0.7586 1.3793 0.0000
0.7586 1.4138 0.0000
0.7586 1.4483 0.0000
0.7586 1.4828 0.0000
0.7586 1.5172 0.0000
0.7586 1.5517 0.0000
0.7586 1.5862 0.0000
0.7586 1.6207 0.0000
0.7586 1.6552 0.0000
0.7586 1.6897 0.0000
0.7586 1.7241 0.0000
0.7586 1.7586 0.0000
0.7586 1.7931 0.0000
0.7586 1.8276 0.0000
0.7586 1.8621 0.0000
0.7586 1.8966 0.0000
0.7586 1.9310 0.0000
0.7586 1.9655 0.0000
0.7586 2.0000 0.0000
0.8276 1.0000 0.0000
0.8276 1.0345 0.0000
0.8276 1.0690 0.0000
0.8276 1.1034 0.0000
0.8276 1.1379 0.0000
0.8276 1.1724 0.0000
0.8276 1.2069 0.0000
0.8276 1.2414 0.0000
0.8276 1.2759 0.0000
0.8276 1.3103 0.0000
0.8276 1.3448 0.0000
0.8276 1.3793 0.0000
0.8276 1.4138 0.0000
0.8276 1.4483 0.0000
0.8276 1.4828 0.0000
0.8276 1.5172 0.0000
0.8276 1.5517 0.0000
0.8276 1.5862 0.0000
0.8276 1.6207 0.0000
0.8276 1.6552 0.0000
0.8276 1.6897 0.0000
0.8276 1.7241 0.0000
0.8276 1.7586 0.0000
0.8276 1.7931 0.0000
0.8276 1.8276 0.0000
0.8276 1.8621 0.0000
0.8276 1.8966 0.0000
0.8276 1.9310 0.0000
0.8276 1.9655 0.0000
0.8276 2.0000 0.0000
0.8966 1.0000 0.0000
0.8966 1.0345 0.0000
0.8966 1.0690 0.0000
0.8966 1.1034 0.0000
0.8966 1.1379 0.0000
0.8966 1.1724 0.0000
0.8966 1.2069 0.0000
0.8966 1.2414 0.0000
0.8966 1.2759 0.0000
0.8966 1.3103 0.0000
0.8966 1.3448 0.0000
0.8966 1.3793 0.0000
0.8966 1.4138 0.0000
0.8966 1.4483 0.0000
0.8966 1.4828 0.0000
0.8966 1.5172 0.0000
0.8966 1.5517 0.0000
0.8966 1.5862 0.0000
0.8966 1.6207 0.0000
0.8966 1.6552 0.0000
0.8966 1.6897 0.0000
0.8966 1.7241 0.0000
0.8966 1.7586 0.0000
0.8966 1.7931 0.0000
0.8966 1.8276 0.0000
0.8966 1.8621 0.0000
0.8966 1.8966 0.0000
0.8966 1.9310 0.0000
0.8966 1.9655 0.0000
0.8966 2.0000 0.0000
0.9655 1.0000 0.0000
0.9655 1.0345 0.0000
0.9655 1.0690 0.0000
0.9655 1.1034 0.0000
0.9655 1.1379 0.0000
0.9655 1.1724 0.0000
0.9655 1.2069 0.0000
0.9655 1.2414 0.0000
0.9655 1.2759 0.0000
0.9655 1.3103 0.0000
0.9655 1.3448 0.0000
0.9655 1.3793 0.0000
0.9655 1.4138 0.0000
0.9655 1.4483 0.0000
0.9655 1.4828 0.0000
0.9655 1.5172 0.0000
0.9655 1.5517 0.0000
0.9655 1.5862 0.0000
0.9655 1.6207 0.0000
0.9655 1.6552 0.0000
0.9655 1.6897 0.0000
0.9655 1.7241 0.0000
0.9655 1.7586 0.0000
0.9655 1.7931 0.0000
0.9655 1.8276 0.0000
0.9655 1.8621 0.0000
0.9655 1.8966 0.0000
0.9655 1.9310 0.0000
0.9655 1.9655 0.0000
0.9655 2.0000 0.0000
1.0345 1.0000 0.0000
1.0345 1.0345 0.0000
1.0345 1.0690 0.0000
1.0345 1.1034 0.0000
1.0345 1.1379 0.0000
1.0345 1.1724 0.0000
1.0345 1.2069 0.0000
1.0345 1.2414 0.0000
1.0345 1.2759 0.0000
1.0345 1.3103 0.0000
1.0345 1.3448 0.0000
[...]
         <PointData>
            <DataArray Name="fValues" NumberOfComponents="3" format="ascii" type="Float64">
-8.95850e-21 -8.95850e-21        00000 
 5.74941e-21  5.74941e-21        00000 
-2.84273e-21  2.84273e-21        00000 
 8.19253e-21  7.32194e-21        00000 
 7.10681e-22 -5.68545e-21        00000 
-5.92570e-21  9.90547e-21        00000 
 2.13204e-21  1.70564e-20        00000 
 3.19219e-21 -7.14335e-21        00000 
-3.90875e-21  1.56350e-20        00000 
 7.89168e-21  2.35238e-22        00000 
-7.81750e-21  4.12195e-20        00000 
 6.16114e-21  4.91106e-21        00000 
-1.42136e-21 -5.68545e-21        00000 
-8.85553e-21  5.32165e-21        00000 
 1.20816e-20  2.84273e-21        00000 
-5.67004e-21 -4.64318e-21        00000 
 7.10681e-22 -1.27923e-20        00000 
-4.20698e-21  1.45519e-20        00000 
 9.94954e-21 -1.13709e-20        00000 
-5.26822e-21  4.91106e-21        00000 
 1.70564e-20 -4.26409e-21        00000 
 4.59483e-21  3.58657e-21        00000 
 5.68545e-21 -1.42136e-21        00000 
-8.03627e-22  4.01814e-21        00000 
 2.13204e-20  1.20816e-20        00000 
-4.38621e-21  8.95725e-21        00000 
 4.26409e-21 -2.13204e-21        00000 
 3.39942e-21  2.81794e-21        00000 
-8.95971e-22 -2.23993e-21        00000 
-1.48183e-20  5.59982e-22        00000 
 1.47179e-04  1.81538e-04        00000 
 8.64092e-05  1.57553e-04        00000 
 6.14571e-05  1.47052e-04        00000 
 4.85966e-05  1.43349e-04        00000 
 4.17836e-05  1.42931e-04        00000 
 3.84950e-05  1.44052e-04        00000 
 3.74701e-05  1.45789e-04        00000 
 3.80008e-05  1.47623e-04        00000 
 3.96539e-05  1.49244e-04        00000 
 4.21454e-05  1.50454e-04        00000 
 4.52768e-05  1.51117e-04        00000 
 4.89011e-05  1.51128e-04        00000 
 5.29022e-05  1.50403e-04        00000 
 5.71828e-05  1.48869e-04        00000 
 6.16563e-05  1.46458e-04        00000 
 6.62411e-05  1.43106e-04        00000 
 7.08567e-05  1.38750e-04        00000 
 7.54207e-05  1.33331e-04        00000 
 7.98459e-05  1.26791e-04        00000 
 8.40381e-05  1.19075e-04        00000 
 8.78938e-05  1.10131e-04        00000 
 9.12966e-05  9.99068e-05        00000 
 9.41145e-05  8.83552e-05        00000 
 9.61938e-05  7.54289e-05        00000 
 9.73531e-05  6.10799e-05        00000 
 9.73750e-05  4.52558e-05        00000 
 9.60029e-05  2.78918e-05        00000 
 9.29788e-05  8.89218e-06        00000 
 8.83334e-05 -1.19252e-05        00000 
 8.59075e-05 -3.46853e-05        00000 
 2.16494e-04  3.23809e-04        00000 
 1.58455e-04  3.13352e-04        00000 
 1.18681e-04  3.02626e-04        00000 
 9.50656e-05  2.95583e-04        00000 
 8.17125e-05  2.91821e-04        00000 
 7.50963e-05  2.90306e-04        00000 
 7.30939e-05  2.90112e-04        00000 
 7.43791e-05  2.90529e-04        00000 
 7.80877e-05  2.91028e-04        00000 
 8.36326e-05  2.91212e-04        00000 
 9.05967e-05  2.90780e-04        00000 
 9.86692e-05  2.89492e-04        00000 
 1.07606e-04  2.87151e-04        00000 
 1.17202e-04  2.83590e-04        00000 
 1.27279e-04  2.78663e-04        00000 
 1.37666e-04  2.72240e-04        00000 
 1.48196e-04  2.64207e-04        00000 
 1.58696e-04  2.54461e-04        00000 
 1.68985e-04  2.42914e-04        00000 
 1.78863e-04  2.29497e-04        00000 
 1.88111e-04  2.14158e-04        00000 
 1.96482e-04  1.96869e-04        00000 
 2.03692e-04  1.77632e-04        00000 
 2.09409e-04  1.56490e-04        00000 
 2.13237e-04  1.33537e-04        00000 
 2.14685e-04  1.08942e-04        00000 
 2.13127e-04  8.29946e-05        00000 
 2.07724e-04  5.61986e-05        00000 
 1.97240e-04  2.95392e-05        00000 
 1.76961e-04  5.47196e-06        00000 
 2.49367e-04  4.50957e-04        00000 
 1.97799e-04  4.45663e-04        00000 
 1.59766e-04  4.39885e-04        00000 
 1.33663e-04  4.34441e-04        00000 
 1.17742e-04  4.30234e-04        00000 
 1.09717e-04  4.27333e-04        00000 
 1.07712e-04  4.25428e-04        00000 
 1.10318e-04  4.24090e-04        00000 
 1.16501e-04  4.22890e-04        00000 
 1.25497e-04  4.21438e-04        00000 
 1.36733e-04  4.19390e-04        00000 
 1.49760e-04  4.16446e-04        00000 
 1.64218e-04  4.12344e-04        00000 
 1.79799e-04  4.06854e-04        00000 
 1.96226e-04  3.99772e-04        00000 
 2.13236e-04  3.90921e-04        00000 
 2.30565e-04  3.80146e-04        00000 
 2.47941e-04  3.67318e-04        00000 
 2.65071e-04  3.52337e-04        00000 
 2.81632e-04  3.35136e-04        00000 
 2.97269e-04  3.15686e-04        00000 
 3.11575e-04  2.94004e-04        00000 
 3.24084e-04  2.70165e-04        00000 
 3.34251e-04  2.44314e-04        00000 
 3.41420e-04  2.16681e-04        00000 
 3.44778e-04  1.87607e-04        00000 
 3.43275e-04  1.57571e-04        00000 
 3.35458e-04  1.27224e-04        00000 
 3.19044e-04  9.73766e-05        00000 
 2.91381e-04  6.83130e-05        00000 
 2.58339e-04  5.58625e-04        00000 
 2.14954e-04  5.57982e-04        00000 
 1.82307e-04  5.55919e-04        00000 
 1.59566e-04  5.53250e-04        00000 
 1.45601e-04  5.50473e-04        00000 
 1.39220e-04  5.47908e-04        00000 
 1.39186e-04  5.45614e-04        00000 
 1.44389e-04  5.43463e-04        00000 
 1.53903e-04  5.41225e-04        00000 
 1.66972e-04  5.38626e-04        00000 
 1.82982e-04  5.35381e-04        00000 
 2.01426e-04  5.31205e-04        00000 
 2.21870e-04  5.25831e-04        00000 
 2.43933e-04  5.19006e-04        00000 
 2.67254e-04  5.10501e-04        00000 
 2.91484e-04  5.00107e-04        00000 
 3.16263e-04  4.87647e-04        00000 
 3.41212e-04  4.72971e-04        00000 
 3.65920e-04  4.55968e-04        00000 
 3.89931e-04  4.36569e-04        00000 
 4.12737e-04  4.14756e-04        00000 
 4.33762e-04  3.90569e-04        00000 
 4.52351e-04  3.64115e-04        00000 
 4.67744e-04  3.35577e-04        00000 
 4.79057e-04  3.05223e-04        00000 
 4.85236e-04  2.73404e-04        00000 
 4.85006e-04  2.40549e-04        00000 
 4.76810e-04  2.07114e-04        00000 
 4.58882e-04  1.73452e-04        00000 
 4.29280e-04  1.39804e-04        00000 
 2.48526e-04  6.46430e-04        00000 
 2.14438e-04  6.49436e-04        00000 
 1.89284e-04  6.50682e-04        00000 
 1.72502e-04  6.50699e-04        00000 
 1.63405e-04  6.49931e-04        00000 
 1.61220e-04  6.48675e-04        00000 
 1.65157e-04  6.47090e-04        00000 
 1.74446e-04  6.45202e-04        00000 
 1.88379e-04  6.42928e-04        00000 
 2.06325e-04  6.40108e-04        00000 
 2.27731e-04  6.36538e-04        00000 
 2.52106e-04  6.31981e-04        00000 
 2.79006e-04  6.26192e-04        00000 
 3.08013e-04  6.18923e-04        00000 
 3.38716e-04  6.09935e-04        00000 
 3.70697e-04  5.99005e-04        00000 
 4.03514e-04  5.85933e-04        00000 
 4.36689e-04  5.70547e-04        00000 
 4.69694e-04  5.52714e-04        00000 
 5.01943e-04  5.32347e-04        00000 
 5.32778e-04  5.09410e-04        00000 
 5.61461e-04  4.83927e-04        00000 
 5.87162e-04  4.55987e-04        00000 
 6.08943e-04  4.25751e-04        00000 
 6.25751e-04  3.93445e-04        00000 
 6.36400e-04  3.59354e-04        00000 
 6.39568e-04  3.23796e-04        00000 
 6.33824e-04  2.87083e-04        00000 
 6.17651e-04  2.49490e-04        00000 
 5.89530e-04  2.11191e-04        00000 
 2.23313e-04  7.13218e-04        00000 
 1.99276e-04  7.19325e-04        00000 
 1.82822e-04  7.23435e-04        00000 
 1.73546e-04  7.25999e-04        00000 
 1.70990e-04  7.27394e-04        00000 
 1.74666e-04  7.27912e-04        00000 
 1.84063e-04  7.27739e-04        00000 
 1.98678e-04  7.26963e-04        00000 
 2.18019e-04  7.25577e-04        00000 
 2.41624e-04  7.23497e-04        00000 
 2.69054e-04  7.20574e-04        00000 
 2.99893e-04  7.16617e-04        00000 
 3.33732e-04  7.11401e-04        00000 
 3.70163e-04  7.04687e-04        00000 
 4.08758e-04  6.96228e-04        00000 
 4.49057e-04  6.85783e-04        00000 
 4.90559e-04  6.73125e-04        00000 
 5.32701e-04  6.58050e-04        00000 
 5.74855e-04  6.40387e-04        00000 
 6.16315e-04  6.20007e-04        00000 
 6.56286e-04  5.96830e-04        00000 
 6.93883e-04  5.70831e-04        00000 
 7.28120e-04  5.42047e-04        00000 
 7.57910e-04  5.10578e-04        00000 
 7.82066e-04  4.76585e-04        00000 
 7.99311e-04  4.40280e-04        00000 
 8.08294e-04  4.01911e-04        00000 
 8.07621e-04  3.61744e-04        00000 
 7.95901e-04  3.20042e-04        00000 
 7.71796e-04  2.77041e-04        00000 
 1.85097e-04  7.57979e-04        00000 
 1.71712e-04  7.66715e-04        00000 
 1.64721e-04  7.73320e-04        00000 
 1.63841e-04  7.78223e-04        00000 
 1.68792e-04  7.81789e-04        00000 
 1.79294e-04  7.84309e-04        00000 
 1.95062e-04  7.85985e-04        00000 
 2.15812e-04  7.86933e-04        00000 
 2.41259e-04  7.87179e-04        00000 
 2.71112e-04  7.86674e-04        00000 
 3.05076e-04  7.85300e-04        00000 
 3.42843e-04  7.82883e-04        00000 
 3.84079e-04  7.79208e-04        00000 
 4.28421e-04  7.74028e-04        00000 
 4.75455e-04  7.67079e-04        00000 
 5.24713e-04  7.58089e-04        00000 
 5.75654e-04  7.46793e-04        00000 
 6.27659e-04  7.32938e-04        00000 
 6.80016e-04  7.16300e-04        00000 
 7.31913e-04  6.96686e-04        00000 
 7.82436e-04  6.73949e-04        00000 
 8.30560e-04  6.47995e-04        00000 
 8.75153e-04  6.18787e-04        00000 
 9.14981e-04  5.86351e-04        00000 
 9.48718e-04  5.50779e-04        00000 
 9.74967e-04  5.12225e-04        00000 
 9.92287e-04  4.70902e-04        00000 
 9.99230e-04  4.27075e-04        00000 
 9.94383e-04  3.81048e-04        00000 
 9.76428e-04  3.33155e-04        00000 
 1.35987e-04  7.79701e-04        00000 
 1.33714e-04  7.90619e-04        00000 
 1.36626e-04  7.99349e-04        00000 
 1.44580e-04  8.06348e-04        00000 
 1.57472e-04  8.12004e-04        00000 
 1.75220e-04  8.16620e-04        00000 
 1.97755e-04  8.20416e-04        00000 
 2.25004e-04  8.23517e-04        00000 
 2.56885e-04  8.25966e-04        00000 
 2.93294e-04  8.27719e-04        00000 
 3.34096e-04  8.28661e-04        00000 
 3.79116e-04  8.28613e-04        00000 
 4.28126e-04  8.27345e-04        00000 
 4.80835e-04  8.24583e-04        00000 
 5.36877e-04  8.20029e-04        00000 
 5.95799e-04  8.13368e-04        00000 
 6.57052e-04  8.04277e-04        00000 
 7.19978e-04  7.92442e-04        00000 
 7.83801e-04  7.77567e-04        00000 
 8.47624e-04  7.59382e-04        00000 
 9.10417e-04  7.37656e-04        00000 
 9.71024e-04  7.12207e-04        00000 
 1.02816e-03  6.82911e-04        00000 
 1.08043e-03  6.49715e-04        00000 
 1.12632e-03  6.12639e-04        00000 
 1.16427e-03  5.71788e-04        00000 
 1.19265e-03  5.27354e-04        00000 
 1.20984e-03  4.79622e-04        00000 
 1.21430e-03  4.28966e-04        00000 
 1.20455e-03  3.75845e-04        00000 
 7.81518e-05  7.77514e-04        00000 
 8.72676e-05  7.90125e-04        00000 
 1.00218e-04  8.00572e-04        00000 
 1.17043e-04  8.09376e-04        00000 
 1.37849e-04  8.16968e-04        00000 
 1.62782e-04  8.23680e-04        00000 
 1.92006e-04  8.29747e-04        00000 
 2.25679e-04  8.35302e-04        00000 
 2.63941e-04  8.40379e-04        00000 
 3.06893e-04  8.44927e-04        00000 
 3.54584e-04  8.48807e-04        00000 
 4.06997e-04  8.51811e-04        00000 
 4.64033e-04  8.53672e-04        00000 
 5.25504e-04  8.54071e-04        00000 
 5.91113e-04  8.52656e-04        00000 
 6.60450e-04  8.49050e-04        00000 
 7.32979e-04  8.42865e-04        00000 
 8.08025e-04  8.33709e-04        00000 
 8.84768e-04  8.21204e-04        00000 
 9.62237e-04  8.04991e-04        00000 
 1.03930e-03  7.84745e-04        00000 
 1.11467e-03  7.60187e-04        00000 
 1.18689e-03  7.31094e-04        00000 
 1.25436e-03  6.97319e-04        00000 
 1.31537e-03  6.58805e-04        00000 
 1.36808e-03  6.15600e-04        00000 
 1.41059e-03  5.67874e-04        00000 
 1.44099e-03  5.15933e-04        00000 
 1.45743e-03  4.60230e-04        00000 
 1.45815e-03  4.01370e-04        00000 
 1.40816e-05  7.50869e-04        00000 
 3.45916e-05  7.64602e-04        00000 
 5.73532e-05  7.76291e-04        00000 
 8.26622e-05  7.86543e-04        00000 
 1.10895e-04  7.95850e-04        00000 
 1.42474e-04  8.04579e-04        00000 
 1.77841e-04  8.12978e-04        00000 
 2.17426e-04  8.21176e-04        00000 
 2.61622e-04  8.29190e-04        00000 
 3.10770e-04  8.36934e-04        00000 
 3.65129e-04  8.44227e-04        00000 
 4.24868e-04  8.50808e-04        00000 
 4.90043e-04  8.56348e-04        00000 
 5.60587e-04  8.60464e-04        00000 
 6.36299e-04  8.62730e-04        00000 
 7.16828e-04  8.62696e-04        00000 
 8.01669e-04  8.59894e-04        00000 
 8.90149e-04  8.53853e-04        00000 
 9.81421e-04  8.44109e-04        00000 
 1.07445e-03  8.30214e-04        00000 
 1.16802e-03  8.11747e-04        00000 
 1.26071e-03  7.88326e-04        00000 
 1.35089e-03  7.59623e-04        00000 
 1.43674e-03  7.25387e-04        00000 
 1.51626e-03  6.85460e-04        00000 
 1.58728e-03  6.39812e-04        00000 
 1.64752e-03  5.88566e-04        00000 
 1.69463e-03  5.32032e-04        00000 
 1.72626e-03  4.70731e-04        00000 
 1.74016e-03  4.05419e-04        00000 
-5.32349e-05  6.99792e-04        00000 
-2.17248e-05  7.13962e-04        00000 
 1.01650e-05  7.26328e-04        00000 
 4.30754e-05  7.37599e-04        00000 
 7.77329e-05  7.48331e-04        00000 
 1.14909e-04  7.58927e-04        00000 
 1.55384e-04  7.69640e-04        00000 
 1.99912e-04  7.80583e-04        00000 
 2.49193e-04  7.91736e-04        00000 
 3.03844e-04  8.02956e-04        00000 
 3.64376e-04  8.13993e-04        00000 
 4.31170e-04  8.24505e-04        00000 
 5.04463e-04  8.34073e-04        00000 
 5.84329e-04  8.42221e-04        00000 
 6.70672e-04  8.48432e-04        00000 
 7.63212e-04  8.52167e-04        00000 
 8.61481e-04  8.52876e-04        00000 
 9.64819e-04  8.50009e-04        00000 
 1.07236e-03  8.43029e-04        00000 
 1.18303e-03  8.31416e-04        00000 
 1.29553e-03  8.14670e-04        00000 
 1.40832e-03  7.92322e-04        00000 
 1.51962e-03  7.63944e-04        00000 
 1.62738e-03  7.29171e-04        00000 
 1.72929e-03  6.87723e-04        00000 
 1.82278e-03  6.39452e-04        00000 
 1.90505e-03  5.84384e-04        00000 
 1.97315e-03  5.22779e-04        00000 
 2.02404e-03  4.55183e-04        00000 
 2.05470e-03  3.82476e-04        00000 
-1.20181e-04  6.25206e-04        00000 
-7.86244e-05  6.38994e-04        00000 
-3.88787e-05  6.51371e-04        00000 
 1.50431e-07  6.63149e-04        00000 
 3.96360e-05  6.74946e-04        00000 
 8.07836e-05  6.87191e-04        00000 
 1.24789e-04  7.00131e-04        00000 
 1.72802e-04  7.13844e-04        00000 
 2.25888e-04  7.28248e-04        00000 
 2.84998e-04  7.43116e-04        00000 
 3.50938e-04  7.58093e-04        00000 
 4.24340e-04  7.72716e-04        00000 
 5.05646e-04  7.86438e-04        00000 
 5.95083e-04  7.98648e-04        00000 
 6.92659e-04  8.08705e-04        00000 
 7.98156e-04  8.15957e-04        00000 
 9.11131e-04  8.19764e-04        00000 
 1.03092e-03  8.19511e-04        00000 
 1.15662e-03  8.14618e-04        00000 
 1.28713e-03  8.04537e-04        00000 
 1.42110e-03  7.88748e-04        00000 
 1.55691e-03  7.66751e-04        00000 
 1.69267e-03  7.38062e-04        00000 
 1.82614e-03  7.02221e-04        00000 
 1.95473e-03  6.58815e-04        00000 
 2.07544e-03  6.07526e-04        00000 
 2.18490e-03  5.48202e-04        00000 
 2.27936e-03  4.80943e-04        00000 
 2.35482e-03  4.06211e-04        00000 
 2.40715e-03  3.24931e-04        00000 
-1.82435e-04  5.29305e-04        00000 
-1.32535e-04  5.41751e-04        00000 
-8.69524e-05  5.53366e-04        00000 
-4.40153e-05  5.65055e-04        00000 
-1.99708e-06  5.77484e-04        00000 
 4.08366e-05  5.91091e-04        00000 
 8.61851e-05  6.06103e-04        00000 
 1.35673e-04  6.22540e-04        00000 
 1.90809e-04  6.40235e-04        00000 
 2.52952e-04  6.58842e-04        00000 
 3.23267e-04  6.77856e-04        00000 
 4.02691e-04  6.96637e-04        00000 
 4.91901e-04  7.14440e-04        00000 
 5.91291e-04  7.30453e-04        00000 
 7.00956e-04  7.43838e-04        00000 
 8.20697e-04  7.53778e-04        00000 
 9.50033e-04  7.59511e-04        00000 
 1.08822e-03  7.60363e-04        00000 
 1.23429e-03  7.55758e-04        00000 
 1.38705e-03  7.45210e-04        00000 
 1.54509e-03  7.28303e-04        00000 
 1.70681e-03  7.04644e-04        00000 
 1.87027e-03  6.73828e-04        00000 
 2.03322e-03  6.35402e-04        00000 
 2.19291e-03  5.88861e-04        00000 
 2.34605e-03  5.33679e-04        00000 
 2.48868e-03  4.69405e-04        00000 
 2.61618e-03  3.95794e-04        00000 
 2.72328e-03  3.12995e-04        00000 
 2.80424e-03  2.21758e-04        00000 
-2.34948e-04  4.16017e-04        00000 
-1.79380e-04  4.26024e-04        00000 
-1.30895e-04  4.36002e-04        00000 
-8.71195e-05  4.46919e-04        00000 
-4.56676e-05  4.59459e-04        00000 
-4.18524e-06  4.74054e-04        00000 
 3.96157e-05  4.90890e-04        00000 
 8.79235e-05  5.09925e-04        00000 
 1.42787e-04  5.30887e-04        00000 
 2.06073e-04  5.53283e-04        00000 
 2.79410e-04  5.76409e-04        00000 
 3.64132e-04  5.99371e-04        00000 
 4.61224e-04  6.21122e-04        00000 
 5.71274e-04  6.40516e-04        00000 
 6.94445e-04  6.56378e-04        00000 
 8.30471e-04  6.67587e-04        00000 
 9.78694e-04  6.73155e-04        00000 
 1.13812e-03  6.72301e-04        00000 
 1.30749e-03  6.64486e-04        00000 
 1.48540e-03  6.49421e-04        00000 
 1.67031e-03  6.27012e-04        00000 
 1.86060e-03  5.97273e-04        00000 
 2.05453e-03  5.60197e-04        00000 
 2.25007e-03  5.15636e-04        00000 
 2.44474e-03  4.63182e-04        00000 
 2.63530e-03  4.02165e-04        00000 
 2.81755e-03  3.31694e-04        00000 
 2.98605e-03  2.50879e-04        00000 
 3.13410e-03  1.59113e-04        00000 
 3.25377e-03  5.64899e-05        00000 
-2.72022e-04  2.91522e-04        00000 
-2.14664e-04  2.97887e-04        00000 
-1.67284e-04  3.05271e-04        00000 
-1.26694e-04  3.14636e-04        00000 
-8.97791e-05  3.26645e-04        00000 
-5.35078e-05  3.41697e-04        00000 
-1.49430e-05  3.59948e-04        00000 
 2.87476e-05  3.81304e-04        00000 
 8.02640e-05  4.05411e-04        00000 
 1.42127e-04  4.31635e-04        00000 
 2.16607e-04  4.59044e-04        00000 
 3.05624e-04  4.86411e-04        00000 
 4.10643e-04  5.12240e-04        00000 
 5.32564e-04  5.34833e-04        00000 
 6.71638e-04  5.52397e-04        00000 
 8.27433e-04  5.63196e-04        00000 
 9.98864e-04  5.65723e-04        00000 
 1.18431e-03  5.58871e-04        00000 
 1.38178e-03  5.42064e-04        00000 
 1.58917e-03  5.15319e-04        00000 
 1.80446e-03  4.79208e-04        00000 
 2.02588e-03  4.34679e-04        00000 
 2.25199e-03  3.82822e-04        00000 
 2.48149e-03  3.24476e-04        00000 
 2.71293e-03  2.59976e-04        00000 
 2.94412e-03  1.88802e-04        00000 
 3.17155e-03  1.09648e-04        00000 
 3.38971e-03  2.04835e-05        00000 
 3.59057e-03 -8.08295e-05        00000 
 3.76352e-03 -1.95912e-04        00000 
-2.87551e-04  1.64850e-04        00000 
-2.33704e-04  1.66339e-04        00000 
-1.92581e-04  1.70127e-04        00000 
-1.60146e-04  1.77050e-04        00000 
-1.32568e-04  1.87679e-04        00000 
-1.06173e-04  2.02368e-04        00000 
-7.73907e-05  2.21276e-04        00000 
-4.27119e-05  2.44337e-04        00000 
 1.32169e-06  2.71214e-04        00000 
 5.80851e-05  3.01228e-04        00000 
 1.30780e-04  3.33278e-04        00000 
 2.22284e-04  3.65781e-04        00000 
 3.34946e-04  3.96646e-04        00000 
 4.70341e-04  4.23316e-04        00000 
 6.29041e-04  4.42905e-04        00000 
 8.10441e-04  4.52441e-04        00000 
 1.01272e-03  4.49203e-04        00000 