<?xml version="1.0" encoding="utf-8"?>
<VTKFile byte_order="LittleEndian" type="UnstructuredGrid" version="0.1">
   <UnstructuredGrid>
      <Piece NumberOfCells="3364" NumberOfPoints="1741">
         <Points>
            <DataArray Name="Points" NumberOfComponents="3" format="ascii" type="Float32">
0.0000 1.0000 0.0000
0.0000 1.0345 0.0000
0.0000 1.0690 0.0000
0.0000 1.1034 0.0000
0.0000 1.1379 0.0000
0.0000 1.1724 0.0000
0.0000 1.2069 0.0000
0.0000 1.2414 0.0000
0.0000 1.2759 0.0000
0.0000 1.3103 0.0000
0.0000 1.3448 0.0000
0.0000 1.3793 0.0000
0.0000 1.4138 0.0000
0.0000 1.4483 0.0000
0.0000 1.4828 0.0000
0.0000 1.5172 0.0000
0.0000 1.5517 0.0000
0.0000 1.5862 0.0000
0.0000 1.6207 0.0000
0.0000 1.6552 0.0000
0.0000 1.6897 0.0000
0.0000 1.7241 0.0000
0.0000 1.7586 0.0000
0.0000 1.7931 0.0000
0.0000 1.8276 0.0000
0.0000 1.8621 0.0000
0.0000 1.8966 0.0000
0.0000 1.9310 0.0000
0.0000 1.9655 0.0000
0.0000 2.0000 0.0000
0.0690 1.0000 0.0000
0.0690 1.0345 0.0000
0.0690 1.0690 0.0000
0.0690 1.1034 0.0000
0.0690 1.1379 0.0000
0.0690 1.1724 0.0000
0.0690 1.2069 0.0000
0.0690 1.2414 0.0000
0.0690 1.2759 0.0000
0.0690 1.3103 0.0000
0.0690 1.3448 0.0000
0.0690 1.3793 0.0000
0.0690 1.4138 0.0000
0.0690 1.4483 0.0000
0.0690 1.4828 0.0000
0.0690 1.5172 0.0000
0.0690 1.5517 0.0000
0.0690 1.5862 0.0000
0.0690 1.6207 0.0000
0.0690 1.6552 0.0000
0.0690 1.6897 0.0000
0.0690 1.7241 0.0000
0.0690 1.7586 0.0000
0.0690 1.7931 0.0000
0.0690 1.8276 0.0000
0.0690 1.8621 0.0000
0.0690 1.8966 0.0000
0.0690 1.9310 0.0000
0.0690 1.9655 0.0000
0.0690 2.0000 0.0000
0.1379 1.0000 0.0000
0.1379 1.0345 0.0000
0.1379 1.0690 0.0000
0.1379 1.1034 0.0000
0.1379 1.1379 0.0000
0.1379 1.1724 0.0000
0.1379 1.2069 0.0000
0.1379 1.2414 0.0000
0.1379 1.2759 0.0000
0.1379 1.3103 0.0000
0.1379 1.3448 0.0000
0.1379 1.3793 0.0000
0.1379 1.4138 0.0000
0.1379 1.4483 0.0000
0.1379 1.4828 0.0000
0.1379 1.5172 0.0000
0.1379 1.5517 0.0000
0.1379 1.5862 0.0000
0.1379 1.6207 0.0000
0.1379 1.6552 0.0000
0.1379 1.6897 0.0000
0.1379 1.7241 0.0000
0.1379 1.7586 0.0000
0.1379 1.7931 0.0000
0.1379 1.8276 0.0000
0.1379 1.8621 0.0000
0.1379 1.8966 0.0000
0.1379 1.9310 0.0000
0.1379 1.9655 0.0000
0.1379 2.0000 0.0000
0.2069 1.0000 0.0000
0.2069 1.0345 0.0000
0.2069 1.0690 0.0000
0.2069 1.1034 0.0000
0.2069 1.1379 0.0000
0.2069 1.1724 0.0000
0.2069 1.2069 0.0000
0.2069 1.2414 0.0000
0.2069 1.2759 0.0000
0.2069 1.3103 0.0000
0.2069 1.3448 0.0000
0.2069 1.3793 0.0000
0.2069 1.4138 0.0000
0.2069 1.4483 0.0000
0.2069 1.4828 0.0000
0.2069 1.5172 0.0000
0.2069 1.5517 0.0000
0.2069 1.5862 0.0000
0.2069 1.6207 0.0000
0.2069 1.6552 0.0000
0.2069 1.6897 0.0000
0.2069 1.7241 0.0000
0.2069 1.7586 0.0000
0.2069 1.7931 0.0000
0.2069 1.8276 0.0000
0.2069 1.8621 0.0000
0.2069 1.8966 0.0000
0.2069 1.9310 0.0000
0.2069 1.9655 0.0000
0.2069 2.0000 0.0000
0.2759 1.0000 0.0000
0.2759 1.0345 0.0000
0.2759 1.0690 0.0000
0.2759 1.1034 0.0000
0.2759 1.1379 0.0000
0.2759 1.1724 0.0000
0.2759 1.2069 0.0000
0.2759 1.2414 0.0000
0.2759 1.2759 0.0000
0.2759 1.3103 0.0000
0.2759 1.3448 0.0000
0.2759 1.3793 0.0000
0.2759 1.4138 0.0000
0.2759 1.4483 0.0000
0.2759 1.4828 0.0000
0.2759 1.5172 0.0000
0.2759 1.5517 0.0000
0.2759 1.5862 0.0000
0.2759 1.6207 0.0000
0.2759 1.6552 0.0000
0.2759 1.6897 0.0000
0.2759 1.7241 0.0000
0.2759 1.7586 0.0000
0.2759 1.7931 0.0000
0.2759 1.8276 0.0000
0.2759 1.8621 0.0000
0.2759 1.8966 0.0000
0.2759 1.9310 0.0000
0.2759 1.9655 0.0000
0.2759 2.0000 0.0000
0.3448 1.0000 0.0000
0.3448 1.0345 0.0000
0.3448 1.0690 0.0000
0.3448 1.1034 0.0000
0.3448 1.1379 0.0000
0.3448 1.1724 0.0000
0.3448 1.2069 0.0000
0.3448 1.2414 0.0000
0.3448 1.2759 0.0000
0.3448 1.3103 0.0000
0.3448 1.3448 0.0000
0.3448 1.3793 0.0000
0.3448 1.4138 0.0000
0.3448 1.4483 0.0000
0.3448 1.4828 0.0000
0.3448 1.5172 0.0000
0.3448 1.5517 0.0000
0.3448 1.5862 0.0000
0.3448 1.6207 0.0000
0.3448 1.6552 0.0000
0.3448 1.6897 0.0000
0.3448 1.7241 0.0000
0.3448 1.7586 0.0000
0.3448 1.7931 0.0000
0.3448 1.8276 0.0000
0.3448 1.8621 0.0000
0.3448 1.8966 0.0000
0.3448 1.9310 0.0000
0.3448 1.9655 0.0000
0.3448 2.0000 0.0000
0.4138 1.0000 0.0000
0.4138 1.0345 0.0000
0.4138 1.0690 0.0000
0.4138 1.1034 0.0000
0.4138 1.1379 0.0000
0.4138 1.1724 0.0000
0.4138 1.2069 0.0000
0.4138 1.2414 0.0000
0.4138 1.2759 0.0000
0.4138 1.3103 0.0000
0.4138 1.3448 0.0000
0.4138 1.3793 0.0000
0.4138 1.4138 0.0000
0.4138 1.4483 0.0000
0.4138 1.4828 0.0000
0.4138 1.5172 0.0000
0.4138 1.5517 0.0000
0.4138 1.5862 0.0000
0.4138 1.6207 0.0000
0.4138 1.6552 0.0000
0.4138 1.6897 0.0000
0.4138 1.7241 0.0000
0.4138 1.7586 0.0000
0.4138 1.7931 0.0000
0.4138 1.8276 0.0000
0.4138 1.8621 0.0000
0.4138 1.8966 0.0000
0.4138 1.9310 0.0000
0.4138 1.9655 0.0000
0.4138 2.0000 0.0000
0.4828 1.0000 0.0000
0.4828 1.0345 0.0000
0.4828 1.0690 0.0000
0.4828 1.1034 0.0000
0.4828 1.1379 0.0000
0.4828 1.1724 0.0000
0.4828 1.2069 0.0000
0.4828 1.2414 0.0000
0.4828 1.2759 0.0000
0.4828 1.3103 0.0000
0.4828 1.3448 0.0000
0.4828 1.3793 0.0000
0.4828 1.4138 0.0000
0.4828 1.4483 0.0000
0.4828 1.4828 0.0000
0.4828 1.5172 0.0000
0.4828 1.5517 0.0000
0.4828 1.5862 0.0000
0.4828 1.6207 0.0000
0.4828 1.6552 0.0000
0.4828 1.6897 0.0000
0.4828 1.7241 0.0000
0.4828 1.7586 0.0000
0.4828 1.7931 0.0000
0.4828 1.8276 0.0000
0.4828 1.8621 0.0000
0.4828 1.8966 0.0000
0.4828 1.9310 0.0000
0.4828 1.9655 0.0000
0.4828 2.0000 0.0000
0.5517 1.0000 0.0000
0.5517 1.0345 0.0000
0.5517 1.0690 0.0000
0.5517 1.1034 0.0000
0.5517 1.1379 0.0000
0.5517 1.1724 0.0000
0.5517 1.2069 0.0000
0.5517 1.2414 0.0000
0.5517 1.2759 0.0000
0.5517 1.3103 0.0000
0.5517 1.3448 0.0000
0.5517 1.3793 0.0000
0.5517 1.4138 0.0000
0.5517 1.4483 0.0000
0.5517 1.4828 0.0000
0.5517 1.5172 0.0000
0.5517 1.5517 0.0000
0.5517 1.5862 0.0000
0.5517 1.6207 0.0000
0.5517 1.6552 0.0000
0.5517 1.6897 0.0000
0.5517 1.7241 0.0000
0.5517 1.7586 0.0000
0.5517 1.7931 0.0000
0.5517 1.8276 0.0000
0.5517 1.8621 0.0000
0.5517 1.8966 0.0000
0.5517 1.9310 0.0000
0.5517 1.9655 0.0000
0.5517 2.0000 0.0000
0.6207 1.0000 0.0000
0.6207 1.0345 0.0000
0.6207 1.0690 0.0000
0.6207 1.1034 0.0000
0.6207 1.1379 0.0000
0.6207 1.1724 0.0000
0.6207 1.2069 0.0000
0.6207 1.2414 0.0000
0.6207 1.2759 0.0000
0.6207 1.3103 0.0000
0.6207 1.3448 0.0000
0.6207 1.3793 0.0000
0.6207 1.4138 0.0000
0.6207 1.4483 0.0000
0.6207 1.4828 0.0000
0.6207 1.5172 0.0000
0.6207 1.5517 0.0000
0.6207 1.5862 0.0000
0.6207 1.6207 0.0000
0.6207 1.6552 0.0000
0.6207 1.6897 0.0000
0.6207 1.7241 0.0000
0.6207 1.7586 0.0000
0.6207 1.7931 0.0000
0.6207 1.8276 0.0000
0.6207 1.8621 0.0000
0.6207 1.8966 0.0000
0.6207 1.9310 0.0000
0.6207 1.9655 0.0000
0.6207 2.0000 0.0000
0.6897 1.0000 0.0000
0.6897 1.0345 0.0000
0.6897 1.0690 0.0000
0.6897 1.1034 0.0000
0.6897 1.1379 0.0000
0.6897 1.1724 0.0000
0.6897 1.2069 0.0000
0.6897 1.2414 0.0000
0.6897 1.2759 0.0000
0.6897 1.3103 0.0000
0.6897 1.3448 0.0000
0.6897 1.3793 0.0000
0.6897 1.4138 0.0000
0.6897 1.4483 0.0000
0.6897 1.4828 0.0000
0.6897 1.5172 0.0000
0.6897 1.5517 0.0000
0.6897 1.5862 0.0000
0.6897 1.6207 0.0000
0.6897 1.6552 0.0000
0.6897 1.6897 0.0000
0.6897 1.7241 0.0000
0.6897 1.7586 0.0000
0.6897 1.7931 0.0000
0.6897 1.8276 0.0000
0.6897 1.8621 0.0000
0.6897 1.8966 0.0000
0.6897 1.9310 0.0000
0.6897 1.9655 0.0000
0.6897 2.0000 0.0000
0.7586 1.0000 0.0000
0.7586 1.0345 0.0000
0.7586 1.0690 0.0000
0.7586 1.1034 0.0000
0.7586 1.1379 0.0000
0.7586 1.1724 0.0000
0.7586 1.2069 0.0000
0.7586 1.2414 0.0000
0.7586 1.2759 0.0000
0.7586 1.3103 0.0000
0.7586 1.3448 0.0000
0.7586 1.3793 0.0000
0.7586 1.4138 0.0000
0.7586 1.4483 0.0000
0.7586 1.4828 0.0000
0.7586 1.5172 0.0000
0.7586 1.5517 0.0000
0.7586 1.5862 0.0000
0.7586 1.6207 0.0000
0.7586 1.6552 0.0000
0.7586 1.6897 0.0000
0.7586 1.7241 0.0000
0.7586 1.7586 0.0000
0.7586 1.7931 0.0000
0.7586 1.8276 0.0000
0.7586 1.8621 0.0000
0.7586 1.8966 0.0000
0.7586 1.9310 0.0000
0.7586 1.9655 0.0000
0.7586 2.0000 0.0000
0.8276 1.0000 0.0000
0.8276 1.0345 0.0000
0.8276 1.0690 0.0000
0.8276 1.1034 0.0000
0.8276 1.1379 0.0000
0.8276 1.1724 0.0000
0.8276 1.2069 0.0000
0.8276 1.2414 0.0000
0.8276 1.2759 0.0000
0.8276 1.3103 0.0000
0.8276 1.3448 0.0000
0.8276 1.3793 0.0000
0.8276 1.4138 0.0000
0.8276 1.4483 0.0000
0.8276 1.4828 0.0000
0.8276 1.5172 0.0000
0.8276 1.5517 0.0000
0.8276 1.5862 0.0000
0.8276 1.6207 0.0000
0.8276 1.6552 0.0000
0.8276 1.6897 0.0000
0.8276 1.7241 0.0000
0.8276 1.7586 0.0000
0.8276 1.7931 0.0000
0.8276 1.8276 0.0000
0.8276 1.8621 0.0000
0.8276 1.8966 0.0000
0.8276 1.9310 0.0000
0.8276 1.9655 0.0000
0.8276 2.0000 0.0000
0.8966 1.0000 0.0000
0.8966 1.0345 0.0000
0.8966 1.0690 0.0000
0.8966 1.1034 0.0000
0.8966 1.1379 0.0000
0.8966 1.1724 0.0000
0.8966 1.2069 0.0000
0.8966 1.2414 0.0000
0.8966 1.2759 0.0000
0.8966 1.3103 0.0000
0.8966 1.3448 0.0000
0.8966 1.3793 0.0000
0.8966 1.4138 0.0000
0.8966 1.4483 0.0000
0.8966 1.4828 0.0000
0.8966 1.5172 0.0000
0.8966 1.5517 0.0000
0.8966 1.5862 0.0000
0.8966 1.6207 0.0000
0.8966 1.6552 0.0000
0.8966 1.6897 0.0000
0.8966 1.7241 0.0000
0.8966 1.7586 0.0000
0.8966 1.7931 0.0000
0.8966 1.8276 0.0000
0.8966 1.8621 0.0000
0.8966 1.8966 0.0000
0.8966 1.9310 0.0000
0.8966 1.9655 0.0000
0.8966 2.0000 0.0000
0.9655 1.0000 0.0000
0.9655 1.0345 0.0000
0.9655 1.0690 0.0000
0.9655 1.1034 0.0000
0.9655 1.1379 0.0000
0.9655 1.1724 0.0000
0.9655 1.2069 0.0000
0.9655 1.2414 0.0000
0.9655 1.2759 0.0000
0.9655 1.3103 0.0000
0.9655 1.3448 0.0000
0.9655 1.3793 0.0000
0.9655 1.4138 0.0000
0.9655 1.4483 0.0000
0.9655 1.4828 0.0000
0.9655 1.5172 0.0000
0.9655 1.5517 0.0000
0.9655 1.5862 0.0000
0.9655 1.6207 0.0000
0.9655 1.6552 0.0000
0.9655 1.6897 0.0000
0.9655 1.7241 0.0000
0.9655 1.7586 0.0000
0.9655 1.7931 0.0000
0.9655 1.8276 0.0000
0.9655 1.8621 0.0000
0.9655 1.8966 0.0000
0.9655 1.9310 0.0000
0.9655 1.9655 0.0000
0.9655 2.0000 0.0000
1.0345 1.0000 0.0000
1.0345 1.0345 0.0000
1.0345 1.0690 0.0000
1.0345 1.1034 0.0000
1.0345 1.1379 0.0000
1.0345 1.1724 0.0000
1.0345 1.2069 0.0000
1.0345 1.2414 0.0000
1.0345 1.2759 0.0000
1.0345 1.3103 0.0000
1.0345 1.3448 0.0000
[...]
         <PointData>
            <DataArray Name="fValues" NumberOfComponents="3" format="ascii" type="Float64">
 3.53810e-29 -1.61106e-28        00000 
-2.94500e-29        00000        00000 
 1.69440e-28  8.47198e-29        00000 
-2.08631e-27  1.49022e-28        00000 
-1.35552e-27  5.42207e-27        00000 
-1.20519e-27 -3.30435e-26        00000 
-3.18547e-26 -5.55762e-26        00000 
-5.10932e-28 -1.97135e-26        00000 
-1.89772e-26 -1.73506e-25        00000 
-2.56704e-25  1.60948e-25        00000 
 2.12410e-24 -6.72336e-25        00000 
-8.71991e-25  7.06313e-24        00000 
 8.32830e-24  9.71635e-24        00000 
-3.41775e-24 -1.40912e-23        00000 
 2.63729e-23  1.29089e-22        00000 
 8.12696e-23 -2.16341e-22        00000 
-1.33253e-22  2.66506e-22        00000 
 2.29156e-22  2.18295e-21        00000 
-3.55341e-21  5.95196e-21        00000 
       00000  6.60760e-21        00000 
-1.13709e-20  1.98991e-20        00000 
-7.81324e-20  1.30764e-19        00000 
 2.27418e-20 -3.29756e-19        00000 
 2.25016e-20 -2.04657e-19        00000 
-7.95963e-20 -1.94727e-19        00000 
 1.64194e-19 -1.59120e-19        00000 
-1.13709e-20  3.55341e-20        00000 
 3.00580e-20  1.39913e-19        00000 
-7.16777e-22 -1.38696e-19        00000 
 6.03484e-20 -1.23270e-19        00000 
 7.11625e-13  2.21072e-13        00000 
 7.77729e-14  6.03399e-13        00000 
-5.91136e-13  2.17288e-12        00000 
-4.28634e-12  6.06899e-12        00000 
-1.72667e-11  1.39170e-11        00000 
-5.40314e-11  2.40929e-11        00000 
-1.40057e-10  1.68352e-11        00000 
-2.94402e-10 -9.39907e-11        00000 
-4.22843e-10 -5.93165e-10        00000 
 8.64135e-11 -2.27429e-09        00000 
 3.59150e-09 -7.01570e-09        00000 
 1.73389e-08 -1.82841e-08        00000 
 5.99803e-08 -3.88483e-08        00000 
 1.70290e-07 -5.36584e-08        00000 
 3.99818e-07  4.22894e-08        00000 
 7.04060e-07  6.70202e-07        00000 
 4.38725e-07  3.07522e-06        00000 
-3.30127e-06  9.83573e-06        00000 
-1.99995e-05  2.29784e-05        00000 
-7.27243e-05  3.25842e-05        00000 
-2.01211e-04 -1.25309e-05        00000 
-4.10596e-04 -2.16312e-04        00000 
-5.34568e-04 -6.20224e-04        00000 
-2.17034e-04 -9.78723e-04        00000 
 5.75282e-04 -8.44542e-04        00000 
 1.06830e-03 -1.51946e-04        00000 
 6.59617e-04  5.61901e-04        00000 
-4.50867e-05  7.42478e-04        00000 
-2.70308e-04  4.19826e-04        00000 
-8.42933e-04  2.42340e-04        00000 
-5.60190e-13 -3.97740e-13        00000 
-1.40049e-13 -1.16422e-12        00000 
 4.53645e-13 -4.07817e-12        00000 
 3.42238e-12 -1.20168e-11        00000 
 1.40370e-11 -2.91937e-11        00000 
 4.44185e-11 -5.56347e-11        00000 
 1.16052e-10 -5.99612e-11        00000 
 2.45015e-10  1.13979e-10        00000 
 3.50980e-10  1.01328e-09        00000 
-8.20291e-11  4.21961e-09        00000 
-3.00324e-09  1.35938e-08        00000 
-1.42088e-08  3.66192e-08        00000 
-4.79533e-08  8.12081e-08        00000 
-1.32353e-07  1.27336e-07        00000 
-3.03916e-07  4.23315e-09        00000 
-5.43363e-07 -1.00722e-06        00000 
-4.94417e-07 -5.15967e-06        00000 
 1.58347e-06 -1.77861e-05        00000 
 1.21183e-05 -4.66493e-05        00000 
 5.28208e-05 -8.66255e-05        00000 
 1.76566e-04 -6.30303e-05        00000 
 4.96792e-04  2.79137e-04        00000 
 9.15913e-04  1.23857e-03        00000 
 7.31012e-04  2.41552e-03        00000 
-6.71588e-04  2.34206e-03        00000 
-1.68384e-03  3.30367e-04        00000 
-7.68394e-04 -1.72758e-03        00000 
 5.24742e-04 -1.91455e-03        00000 
 7.08061e-04 -9.64728e-04        00000 
 7.78181e-04 -3.58909e-04        00000 
 1.91733e-13  4.69078e-13        00000 
 6.02858e-14  1.42806e-12        00000 
-1.26233e-13  5.02758e-12        00000 
-1.10629e-12  1.50649e-11        00000 
-4.72820e-12  3.72770e-11        00000 
-1.53337e-11  7.28853e-11        00000 
-4.05662e-11  8.47200e-11        00000 
-8.49940e-11 -1.21339e-10        00000 
-1.13278e-10 -1.23537e-09        00000 
 7.69692e-11 -5.25158e-09        00000 
 1.17856e-09 -1.69691e-08        00000 
 4.96193e-09 -4.54072e-08        00000 
 1.48208e-08 -9.94325e-08        00000 
 3.52030e-08 -1.54637e-07        00000 
 6.96623e-08 -1.94909e-08        00000 
 1.29000e-07  1.08393e-06        00000 
 2.84189e-07  5.59413e-06        00000 
 7.72607e-07  1.97534e-05        00000 
 1.05763e-06  5.58521e-05        00000 
-5.78789e-06  1.25924e-04        00000 
-7.14509e-05  1.87522e-04        00000 
-3.19449e-04 -4.53232e-05        00000 
-1.34488e-03 -1.57153e-03        00000 
-2.06698e-03 -4.66988e-03        00000 
-2.76340e-04 -5.78026e-03        00000 
 1.78657e-03 -5.42023e-04        00000 
-2.25046e-04  4.76410e-03        00000 
-1.86754e-03  3.91436e-03        00000 
-1.18761e-03  1.20490e-03        00000 
-2.07219e-04  3.40973e-06        00000 
 2.35852e-13 -4.60609e-13        00000 
 5.90752e-14 -1.40280e-12        00000 
-2.10132e-13 -4.95628e-12        00000 
-1.49056e-12 -1.49038e-11        00000 
-5.95679e-12 -3.70055e-11        00000 
-1.85681e-11 -7.25155e-11        00000 
-4.83555e-11 -8.38167e-11        00000 
-1.04219e-10  1.25921e-10        00000 
-1.63853e-10  1.25288e-09        00000 
-4.24177e-11  5.27797e-09        00000 
 1.06037e-09  1.68188e-08        00000 
 5.89618e-09  4.40133e-08        00000 
 2.23766e-08  9.31300e-08        00000 
 6.85836e-08  1.36497e-07        00000 
 1.69323e-07 -3.72832e-09        00000 
 2.92366e-07 -9.94998e-07        00000 
 4.86400e-08 -4.85807e-06        00000 
-2.17763e-06 -1.69500e-05        00000 
-1.11605e-05 -5.00108e-05        00000 
-3.36894e-05 -1.29698e-04        00000 
-7.46904e-05 -2.84198e-04        00000 
 3.03509e-05 -3.83456e-04        00000 
 2.79219e-04  6.02640e-04        00000 
 5.93580e-03  7.99385e-03        00000 
 5.68110e-03  1.59764e-02        00000 
 5.97993e-03  7.60559e-04        00000 
 5.93210e-03 -1.42620e-02        00000 
 5.76607e-03 -6.97821e-03        00000 
 1.56671e-04 -1.55529e-04        00000 
-4.49238e-04  6.47928e-04        00000 
-5.86615e-13  3.73816e-13        00000 
-1.38731e-13  1.08858e-12        00000 
 5.02255e-13  3.87212e-12        00000 
 3.65886e-12  1.15520e-11        00000 
 1.48430e-11  2.84070e-11        00000 
 4.67068e-11  5.46898e-11        00000 
 1.21772e-10  5.87575e-11        00000 
 2.57728e-10 -1.18944e-10        00000 
 3.74111e-10 -1.03126e-09        00000 
-6.46237e-11 -4.21173e-09        00000 
-3.13427e-09 -1.30887e-08        00000 
-1.51861e-08 -3.32016e-08        00000 
-5.22941e-08 -6.70387e-08        00000 
-1.46618e-07 -8.90322e-08        00000 
-3.36752e-07  3.56142e-08        00000 
-5.71218e-07  7.70642e-07        00000 
-3.12543e-07  3.46098e-06        00000 
 2.72255e-06  1.17268e-05        00000 
 1.54870e-05  3.50811e-05        00000 
 5.73123e-05  9.75270e-05        00000 
 1.57587e-04  2.53138e-04        00000 
 4.46140e-04  5.65084e-04        00000 
 2.37045e-04  6.44018e-04        00000 
 3.44113e-03 -3.92715e-03        00000 
-5.68390e-02 -4.84800e-02        00000 
-4.34304e-02 -5.24888e-04        00000 
-5.84395e-02  4.44391e-02        00000 
 2.83018e-03  2.58234e-03        00000 
 4.27373e-04 -1.34038e-03        00000 
 8.67721e-04 -7.74300e-04        00000 
 6.92522e-13 -1.73518e-13        00000 
 8.03088e-14 -4.43546e-13        00000 
-5.79034e-13 -1.84678e-12        00000 
-4.18775e-12 -5.56801e-12        00000 
-1.69059e-11 -1.37949e-11        00000 
-5.30457e-11 -2.68295e-11        00000 
-1.37640e-10 -2.96587e-11        00000 
-2.87772e-10  5.46665e-11        00000 
-4.00409e-10  4.93494e-10        00000 
 1.63131e-10  2.02499e-09        00000 
 3.79065e-09  6.27828e-09        00000 
 1.75075e-08  1.58138e-08        00000 
 5.82471e-08  3.15884e-08        00000 
 1.57868e-07  4.15285e-08        00000 
 3.50919e-07 -1.45850e-08        00000 
 5.83688e-07 -3.37679e-07        00000 
 3.59080e-07 -1.51396e-06        00000 
-2.35638e-06 -5.24592e-06        00000 
-1.43785e-05 -1.65193e-05        00000 
-5.46923e-05 -4.88594e-05        00000 
-1.82530e-04 -1.23179e-04        00000 
-4.74684e-04 -2.27852e-04        00000 
-1.60464e-03  3.70990e-05        00000 
 1.59117e-03 -5.78217e-06        00000 
-2.86875e-02  6.30668e-03        00000 
 8.62897e-01 -6.57221e-03        00000 
-1.07791e-02  1.20974e-02        00000 
 2.42624e-05  4.69312e-03        00000 
 5.50266e-06  1.33900e-03        00000 
 3.45095e-05  2.09505e-04        00000 
 4.03317e-14 -2.99477e-13        00000 
 1.08039e-15 -7.17610e-13        00000 
-7.43687e-15 -7.42499e-13        00000 
-5.19855e-14  7.81437e-13        00000 
-2.07883e-13  9.10985e-12        00000 
-6.48559e-13  3.94556e-11        00000 
-1.67395e-12  1.28323e-10        00000 
-3.47427e-12  3.43155e-10        00000 
-4.74342e-12  7.44848e-10        00000 
 2.41743e-12  1.13012e-09        00000 
 4.73046e-11  4.46300e-11        00000 
 2.15669e-10 -8.13877e-09        00000 
 7.13169e-10 -4.02387e-08        00000 
 1.92378e-09 -1.37378e-07        00000 
 4.25279e-09 -3.79577e-07        00000 
 6.99694e-09 -8.69133e-07        00000 
 3.96678e-09 -1.56192e-06        00000 
-2.99797e-08 -1.56777e-06        00000 
-1.78517e-07  3.26488e-06        00000 
-6.75517e-07  2.82148e-05        00000 
-2.23193e-06  1.24064e-04        00000 
-5.85342e-06  4.37468e-04        00000 
-1.86763e-05  1.30692e-03        00000 
 1.55616e-05  3.00192e-03        00000 
-2.09327e-04  5.44248e-03        00000 
 1.00881e-02 -2.86816e-18        00000 
 3.91855e-18  1.10349e-18        00000 
-7.28839e-19 -2.30201e-19        00000 
 1.36866e-19  6.88126e-20        00000 
-3.48234e-20  5.68545e-20        00000 
-1.72397e-30 -2.99126e-29        00000 
 3.52809e-30  2.30666e-29        00000 
-1.43634e-29  6.80363e-29        00000 
 3.28342e-29 -4.37029e-28        00000 
-1.82229e-28  5.21390e-28        00000 
 7.55936e-28 -1.21983e-27        00000 
-1.19219e-27  3.71300e-27        00000 
-1.19638e-27  7.59870e-27        00000 
 9.54212e-27  2.46015e-27        00000 
-2.20924e-26  6.98473e-27        00000 
 2.87816e-26 -2.93267e-26        00000 
-7.24522e-26 -5.81382e-26        00000 
 5.04312e-25 -1.01538e-24        00000 
-8.53690e-25 -9.00088e-24        00000 
 4.48782e-25  7.56847e-24        00000 
-5.21655e-24  1.91668e-23        00000 
 3.17402e-23  5.13528e-23        00000 
-1.69852e-22 -1.30893e-23        00000 
 3.19006e-22  3.14456e-22        00000 
-1.11204e-21 -2.68184e-21        00000 
 2.04502e-21  2.67627e-21        00000 
-5.60788e-21  8.83856e-21        00000 
 2.24065e-20  6.05699e-20        00000 
-1.05695e-19 -2.14465e-19        00000 
 7.35136e-19  2.17741e-19        00000 
-1.10181e-18 -8.09392e-20        00000 
 4.50346e-19 -1.08702e-19        00000 
 1.71022e-19  6.43326e-20        00000 
-5.15412e-20 -1.49287e-20        00000 
 2.08816e-20  3.58022e-21        00000 
 5.85851e-31  3.46077e-30        00000 
-1.20270e-30  1.54962e-30        00000 
 3.64923e-30 -2.51632e-29        00000 
-1.40544e-29  6.39703e-29        00000 
 5.26976e-29 -1.13666e-28        00000 
-1.09288e-28  2.50383e-28        00000 
 3.21118e-29 -2.40632e-29        00000 
 5.41893e-28 -4.03376e-28        00000 
-1.90432e-27  1.01162e-27        00000 
 3.86071e-27 -1.50330e-27        00000 
-8.49169e-27  1.18812e-28        00000 
 3.21820e-26 -6.08892e-27        00000 
-8.53690e-26 -3.27488e-25        00000 
 1.48140e-25  9.43632e-25        00000 
-4.91085e-25 -3.75065e-25        00000 
 2.56196e-24  1.32327e-24        00000 
-1.16234e-23 -6.03989e-24        00000 
 3.34721e-23  2.70087e-23        00000 
-9.11409e-23 -1.49597e-22        00000 
 2.25944e-22  3.40017e-22        00000 
-6.03265e-22 -2.49626e-22        00000 
 2.17570e-21  2.83330e-21        00000 
-9.51603e-21 -1.42878e-20        00000 
 4.47670e-20  2.87399e-20        00000 
-1.13550e-19 -2.72572e-20        00000 
 1.31136e-19  7.71593e-21        00000 
-7.50865e-20  1.29311e-20        00000 
 5.97648e-21 -1.16803e-20        00000 
 1.05454e-20  4.28842e-21        00000 
-6.81253e-21 -2.05314e-21        00000 
-1.90009e-31  9.32888e-32        00000 
 3.54445e-31 -1.33585e-30        00000 
-1.16300e-30  5.22914e-30        00000 
 3.89471e-30 -1.17003e-29        00000 
-9.61529e-30  2.13961e-29        00000 
 9.45330e-30 -2.38916e-29        00000 
 2.43612e-29 -7.94768e-30        00000 
-1.40334e-28  7.53647e-29        00000 
 3.80861e-28 -1.36468e-28        00000 
-9.04279e-28  2.36206e-29        00000 
 2.60987e-27  1.18818e-27        00000 
-7.45019e-27 -1.70049e-26        00000 
 1.78665e-26  6.80049e-26        00000 
-5.17393e-26 -1.13302e-25        00000 
 2.13192e-25  1.67129e-25        00000 
-8.84246e-25 -5.49477e-25        00000 
 2.90225e-24  2.36786e-24        00000 
-8.21660e-24 -1.02534e-23        00000 
 2.19052e-23  3.01066e-23        00000 
-6.11798e-23 -6.03598e-23        00000 
 2.05256e-22  2.16793e-22        00000 
-8.06488e-22 -9.53114e-22        00000 
 3.19551e-21  2.56560e-21        00000 
-9.25039e-21 -4.06041e-21        00000 
 1.67145e-20  3.69849e-21        00000 
-1.85187e-20 -1.28031e-21        00000 
 1.21112e-20 -1.09163e-21        00000 
-3.65293e-21  1.56855e-21        00000 
-6.00105e-22 -9.84648e-22        00000 
 1.26157e-21  6.73522e-22        00000 
 5.74068e-32 -1.64640e-31        00000 
-1.05283e-31  3.80865e-31        00000 
 3.09971e-31 -1.03077e-30        00000 
-7.85006e-31  2.05504e-30        00000 
 1.15963e-30 -2.44867e-30        00000 
 5.41100e-31  2.11456e-30        00000 
-9.27930e-30  3.10657e-30        00000 
 3.28717e-29 -1.06247e-29        00000 
-8.78828e-29  2.71837e-30        00000 
 2.35993e-28  1.33464e-28        00000 
-6.61041e-28 -1.10801e-27        00000 
 1.78339e-27  4.78695e-27        00000 
-5.20006e-27 -1.18764e-26        00000 
 1.86389e-26  2.24633e-26        00000 
-7.13714e-26 -5.55810e-26        00000 
 2.43749e-25  2.03386e-25        00000 
-7.30758e-25 -7.91550e-25        00000 
 2.05475e-24  2.53905e-24        00000 
-5.90112e-24 -6.62315e-24        00000 
 1.89989e-23  1.97533e-23        00000 
-6.85181e-23 -7.08882e-23        00000 
 2.47630e-22  2.09148e-22        00000 
-7.45641e-22 -4.29233e-22        00000 
 1.64689e-21  5.93327e-22        00000 
-2.55136e-21 -5.22751e-22        00000 
 2.72929e-21  2.20885e-22        00000 
-1.95541e-21  8.73839e-23        00000 
 8.43870e-22 -2.08509e-22        00000 
-1.04224e-22  1.80053e-22        00000 
-1.14128e-22 -1.48358e-22        00000 
-1.69130e-32  4.33271e-32        00000 
 3.17621e-32 -7.07714e-32        00000 
-7.08274e-32  9.44018e-32        00000 
 1.50046e-31 -2.35843e-31        00000 
-1.02357e-31 -9.87538e-33        00000 
-2.92261e-31 -3.36201e-31        00000 
 2.59000e-30 -1.37064e-30        00000 
-7.91988e-30  1.90053e-31        00000 
 2.17642e-29  1.10543e-29        00000 
-6.01789e-29 -8.00919e-29        00000 
 1.68543e-28  3.50699e-28        00000 
-4.98900e-28 -1.04449e-27        00000 
 1.66964e-27  2.42338e-27        00000 
-5.99639e-27 -5.83103e-27        00000 
 2.05469e-26  1.82343e-26        00000 
-6.41631e-26 -6.52323e-26        00000 
 1.87912e-25  2.17918e-25        00000 
-5.52362e-25 -6.23098e-25        00000 
 1.73589e-24  1.81862e-24        00000 
-5.89309e-24 -5.77671e-24        00000 
 2.00879e-23  1.70783e-23        00000 
-6.09988e-23 -4.00734e-23        00000 
 1.49500e-22  7.00641e-23        00000 
-2.81000e-22 -8.86609e-23        00000 
 3.96731e-22  7.68801e-23        00000 
-4.15473e-22 -3.73304e-23        00000 
 3.15729e-22 -4.98008e-24        00000 
-1.64237e-22  2.73849e-23        00000 
 4.79627e-23 -3.02523e-23        00000 
-7.47890e-24  2.84852e-23        00000 
 4.63649e-33 -1.02633e-32        00000 
-6.89973e-33  1.25505e-32        00000 
 1.34490e-32 -2.07039e-32        00000 
-1.67864e-32  2.32695e-32        00000 
-1.11771e-32 -2.03855e-32        00000 
 1.68111e-31 -2.14325e-32        00000 
-6.63160e-31  9.83090e-33        00000 
 1.97112e-30  8.72977e-31        00000 
-5.52434e-30 -6.03440e-30        00000 
 1.56655e-29  2.66618e-29        00000 
-4.66292e-29 -8.74834e-29        00000 
 1.50664e-28  2.32317e-28        00000 
-5.16993e-28 -5.87219e-28        00000 
 1.75235e-27  1.69375e-27        00000 
-5.59511e-27 -5.59476e-27        00000 
 1.69200e-26  1.85389e-26        00000 
-5.05854e-26 -5.76245e-26        00000 
 1.57158e-25  1.64623e-25        00000 
-5.12258e-25 -4.94007e-25        00000 
 1.67642e-24  1.43047e-24        00000 
-5.07684e-24 -3.58131e-24        00000 
 1.31808e-23  7.22004e-24        00000 
-2.79351e-23 -1.13325e-23        00000 
 4.71394e-23  1.35008e-23        00000 
-6.25509e-23 -1.16436e-23        00000 
 6.46275e-23  6.22507e-24        00000 
-5.11704e-23 -2.17838e-25        00000 
 3.00549e-23 -3.60244e-24        00000 
-1.25953e-23  4.87237e-24        00000 
 6.08770e-24 -5.00566e-24        00000 
-1.05354e-33  2.03910e-33        00000 
 1.38278e-33 -2.44731e-33        00000 
-1.93788e-33  3.27292e-33        00000 
 4.77192e-34 -3.65846e-33        00000 
 1.06933e-32  2.56507e-33        00000 
-5.18979e-32 -6.03886e-33        00000 
 1.71791e-31  7.22550e-32        00000 
-5.02408e-31 -4.66237e-31        00000 
 1.44570e-30  2.08599e-30        00000 
-4.30188e-30 -7.23300e-30        00000 
 1.36119e-29  2.10050e-29        00000 
-4.52687e-29 -5.63505e-29        00000 
 1.51218e-28  1.58701e-28        00000 
-4.87488e-28 -4.93960e-28        00000 
 1.50622e-27  1.59461e-27        00000 
-4.56529e-27 -4.97277e-27        00000 
 1.39783e-26  1.44936e-26        00000 
-4.48341e-26 -4.31507e-26        00000 
 1.42556e-25  1.22647e-25        00000 
-4.28906e-25 -3.16512e-25        00000 
 1.15120e-24  6.96591e-25        00000 
-2.63798e-24 -1.25934e-24        00000 
 5.02669e-24  1.82908e-24        00000 
-7.85185e-24 -2.08806e-24        00000 
 9.96901e-24  1.79930e-24        00000 
-1.02079e-23 -1.03159e-24        00000 
 8.33773e-24  1.55773e-25        00000 
-5.35550e-24  4.74205e-25        00000 
 2.79136e-24 -7.64190e-25        00000 
-1.80424e-24  8.32683e-25        00000 
 2.12473e-34 -3.94947e-34        00000 
-2.35336e-34  4.44159e-34        00000 
 1.66925e-34 -5.49122e-34        00000 
 6.12550e-34  6.60026e-34        00000 
-3.91426e-33 -1.26332e-33        00000 
 1.44515e-32  6.63262e-33        00000 
-4.47960e-32 -3.72299e-32        00000 
 1.31947e-31  1.65612e-31        00000 
-3.94014e-31 -5.99169e-31        00000 
 1.22954e-30  1.84429e-30        00000 
-3.99983e-30 -5.21305e-30        00000 
 1.31739e-29  1.47565e-29        00000 
-4.25647e-29 -4.43383e-29        00000 
 1.33283e-28  1.39064e-28        00000 
-4.08851e-28 -4.32324e-28        00000 
 1.25498e-27  1.28983e-27        00000 
-3.91967e-27 -3.75222e-27        00000 
 1.22682e-26  1.06678e-26        00000 
-3.66713e-26 -2.79739e-26        00000 
 1.00393e-25  6.50550e-26        00000 
-2.42467e-25 -1.29503e-25        00000 
 5.03461e-25  2.15649e-25        00000 
-8.84843e-25 -2.95505e-25        00000 
 1.30427e-24  3.26963e-25        00000 
-1.60221e-24 -2.81822e-25        00000 
 1.63110e-24  1.70408e-25        00000 
-1.36655e-24 -4.00944e-26        00000 
 9.42059e-25 -6.20366e-26        00000 
-5.69648e-25  1.17536e-25        00000 
 4.23945e-25 -1.33616e-25        00000 
-3.68291e-35  7.36129e-35        00000 
 3.07925e-35 -8.09187e-35        00000 
 2.47889e-35  1.06238e-34        00000 
-2.88629e-34 -2.22025e-34        00000 
 1.25362e-33  1.15062e-33        00000 
-3.86812e-33 -3.43694e-33        00000 
 1.19504e-32  1.38046e-32        00000 
-3.58342e-32 -5.01161e-32        00000 
 1.10978e-31  1.59595e-31        00000 
-3.55463e-31 -4.72864e-31        00000 
 1.15622e-30  1.35349e-30        00000 
-3.72621e-30 -3.99044e-30        00000 
 1.17641e-29  1.23397e-29        00000 
-3.64506e-29 -3.74486e-29        00000 
 1.12002e-28  1.11990e-28        00000 
-3.45635e-28 -3.29899e-28        00000 
 1.06401e-27  9.40738e-28        00000 