<?xml version="1.0" encoding="utf-8"?>
<VTKFile byte_order="LittleEndian" type="UnstructuredGrid" version="0.1">
   <UnstructuredGrid>
      <Piece NumberOfCells="3364" NumberOfPoints="1741">
         <Points>
            <DataArray Name="Points" NumberOfComponents="3" format="ascii" type="Float32">
0.0000 1.0000 0.0000
0.0000 1.0345 0.0000
0.0000 1.0690 0.0000
0.0000 1.1034 0.0000
0.0000 1.1379 0.0000
0.0000 1.1724 0.0000
0.0000 1.2069 0.0000
0.0000 1.2414 0.0000
0.0000 1.2759 0.0000
0.0000 1.3103 0.0000
0.0000 1.3448 0.0000
0.0000 1.3793 0.0000
0.0000 1.4138 0.0000
0.0000 1.4483 0.0000
0.0000 1.4828 0.0000
0.0000 1.5172 0.0000
0.0000 1.5517 0.0000
0.0000 1.5862 0.0000
0.0000 1.6207 0.0000
0.0000 1.6552 0.0000
0.0000 1.6897 0.0000
0.0000 1.7241 0.0000
0.0000 1.7586 0.0000
0.0000 1.7931 0.0000
0.0000 1.8276 0.0000
0.0000 1.8621 0.0000
0.0000 1.8966 0.0000
0.0000 1.9310 0.0000
0.0000 1.9655 0.0000
0.0000 2.0000 0.0000
0.0690 1.0000 0.0000
0.0690 1.0345 0.0000
0.0690 1.0690 0.0000
0.0690 1.1034 0.0000
0.0690 1.1379 0.0000
0.0690 1.1724 0.0000
0.0690 1.2069 0.0000
0.0690 1.2414 0.0000
0.0690 1.2759 0.0000
0.0690 1.3103 0.0000
0.0690 1.3448 0.0000
0.0690 1.3793 0.0000
0.0690 1.4138 0.0000
0.0690 1.4483 0.0000
0.0690 1.4828 0.0000
0.0690 1.5172 0.0000
0.0690 1.5517 0.0000
0.0690 1.5862 0.0000
0.0690 1.6207 0.0000
0.0690 1.6552 0.0000
0.0690 1.6897 0.0000
0.0690 1.7241 0.0000
0.0690 1.7586 0.0000
0.0690 1.7931 0.0000
0.0690 1.8276 0.0000
0.0690 1.8621 0.0000
0.0690 1.8966 0.0000
0.0690 1.9310 0.0000
0.0690 1.9655 0.0000
0.0690 2.0000 0.0000
0.1379 1.0000 0.0000
0.1379 1.0345 0.0000
0.1379 1.0690 0.0000
0.1379 1.1034 0.0000
0.1379 1.1379 0.0000
0.1379 1.1724 0.0000
0.1379 1.2069 0.0000
0.1379 1.2414 0.0000
0.1379 1.2759 0.0000
0.1379 1.3103 0.0000
0.1379 1.3448 0.0000
0.1379 1.3793 0.0000
0.1379 1.4138 0.0000
0.1379 1.4483 0.0000
0.1379 1.4828 0.0000
0.1379 1.5172 0.0000
0.1379 1.5517 0.0000
0.1379 1.5862 0.0000
0.1379 1.6207 0.0000
0.1379 1.6552 0.0000
0.1379 1.6897 0.0000
0.1379 1.7241 0.0000
0.1379 1.7586 0.0000
0.1379 1.7931 0.0000
0.1379 1.8276 0.0000
0.1379 1.8621 0.0000
0.1379 1.8966 0.0000
0.1379 1.9310 0.0000
0.1379 1.9655 0.0000
0.1379 2.0000 0.0000
0.2069 1.0000 0.0000
0.2069 1.0345 0.0000
0.2069 1.0690 0.0000
0.2069 1.1034 0.0000
0.2069 1.1379 0.0000
0.2069 1.1724 0.0000
0.2069 1.2069 0.0000
0.2069 1.2414 0.0000
0.2069 1.2759 0.0000
0.2069 1.3103 0.0000
0.2069 1.3448 0.0000
0.2069 1.3793 0.0000
0.2069 1.4138 0.0000
0.2069 1.4483 0.0000
0.2069 1.4828 0.0000
0.2069 1.5172 0.0000
0.2069 1.5517 0.0000
0.2069 1.5862 0.0000
0.2069 1.6207 0.0000
0.2069 1.6552 0.0000
0.2069 1.6897 0.0000
0.2069 1.7241 0.0000
0.2069 1.7586 0.0000
0.2069 1.7931 0.0000
0.2069 1.8276 0.0000
0.2069 1.8621 0.0000
0.2069 1.8966 0.0000
0.2069 1.9310 0.0000
0.2069 1.9655 0.0000
0.2069 2.0000 0.0000
0.2759 1.0000 0.0000
0.2759 1.0345 0.0000
0.2759 1.0690 0.0000
0.2759 1.1034 0.0000
0.2759 1.1379 0.0000
0.2759 1.1724 0.0000
0.2759 1.2069 0.0000
0.2759 1.2414 0.0000
0.2759 1.2759 0.0000
0.2759 1.3103 0.0000
0.2759 1.3448 0.0000
0.2759 1.3793 0.0000
0.2759 1.4138 0.0000
0.2759 1.4483 0.0000
0.2759 1.4828 0.0000
0.2759 1.5172 0.0000
0.2759 1.5517 0.0000
0.2759 1.5862 0.0000
0.2759 1.6207 0.0000
0.2759 1.6552 0.0000
0.2759 1.6897 0.0000
0.2759 1.7241 0.0000
0.2759 1.7586 0.0000
0.2759 1.7931 0.0000
0.2759 1.8276 0.0000
0.2759 1.8621 0.0000
0.2759 1.8966 0.0000
0.2759 1.9310 0.0000
0.2759 1.9655 0.0000
0.2759 2.0000 0.0000
0.3448 1.0000 0.0000
0.3448 1.0345 0.0000
0.3448 1.0690 0.0000
0.3448 1.1034 0.0000
0.3448 1.1379 0.0000
0.3448 1.1724 0.0000
0.3448 1.2069 0.0000
0.3448 1.2414 0.0000
0.3448 1.2759 0.0000
0.3448 1.3103 0.0000
0.3448 1.3448 0.0000
0.3448 1.3793 0.0000
0.3448 1.4138 0.0000
0.3448 1.4483 0.0000
0.3448 1.4828 0.0000
0.3448 1.5172 0.0000
0.3448 1.5517 0.0000
0.3448 1.5862 0.0000
0.3448 1.6207 0.0000
0.3448 1.6552 0.0000
0.3448 1.6897 0.0000
0.3448 1.7241 0.0000
0.3448 1.7586 0.0000
0.3448 1.7931 0.0000
0.3448 1.8276 0.0000
0.3448 1.8621 0.0000
0.3448 1.8966 0.0000
0.3448 1.9310 0.0000
0.3448 1.9655 0.0000
0.3448 2.0000 0.0000
0.4138 1.0000 0.0000
0.4138 1.0345 0.0000
0.4138 1.0690 0.0000
0.4138 1.1034 0.0000
0.4138 1.1379 0.0000
0.4138 1.1724 0.0000
0.4138 1.2069 0.0000
0.4138 1.2414 0.0000
0.4138 1.2759 0.0000
0.4138 1.3103 0.0000
0.4138 1.3448 0.0000
0.4138 1.3793 0.0000
0.4138 1.4138 0.0000
0.4138 1.4483 0.0000
0.4138 1.4828 0.0000
0.4138 1.5172 0.0000
0.4138 1.5517 0.0000
0.4138 1.5862 0.0000
0.4138 1.6207 0.0000
0.4138 1.6552 0.0000
0.4138 1.6897 0.0000
0.4138 1.7241 0.0000
0.4138 1.7586 0.0000
0.4138 1.7931 0.0000
0.4138 1.8276 0.0000
0.4138 1.8621 0.0000
0.4138 1.8966 0.0000
0.4138 1.9310 0.0000
0.4138 1.9655 0.0000
0.4138 2.0000 0.0000
0.4828 1.0000 0.0000
0.4828 1.0345 0.0000
0.4828 1.0690 0.0000
0.4828 1.1034 0.0000
0.4828 1.1379 0.0000
0.4828 1.1724 0.0000
0.4828 1.2069 0.0000
0.4828 1.2414 0.0000
0.4828 1.2759 0.0000
0.4828 1.3103 0.0000
0.4828 1.3448 0.0000
0.4828 1.3793 0.0000
0.4828 1.4138 0.0000
0.4828 1.4483 0.0000
0.4828 1.4828 0.0000
0.4828 1.5172 0.0000
0.4828 1.5517 0.0000
0.4828 1.5862 0.0000
0.4828 1.6207 0.0000
0.4828 1.6552 0.0000
0.4828 1.6897 0.0000
0.4828 1.7241 0.0000
0.4828 1.7586 0.0000
0.4828 1.7931 0.0000
0.4828 1.8276 0.0000
0.4828 1.8621 0.0000
0.4828 1.8966 0.0000
0.4828 1.9310 0.0000
0.4828 1.9655 0.0000
0.4828 2.0000 0.0000
0.5517 1.0000 0.0000
0.5517 1.0345 0.0000
0.5517 1.0690 0.0000
0.5517 1.1034 0.0000
0.5517 1.1379 0.0000
0.5517 1.1724 0.0000
0.5517 1.2069 0.0000
0.5517 1.2414 0.0000
0.5517 1.2759 0.0000
0.5517 1.3103 0.0000
0.5517 1.3448 0.0000
0.5517 1.3793 0.0000
0.5517 1.4138 0.0000
0.5517 1.4483 0.0000
0.5517 1.4828 0.0000
0.5517 1.5172 0.0000
0.5517 1.5517 0.0000
0.5517 1.5862 0.0000
0.5517 1.6207 0.0000
0.5517 1.6552 0.0000
0.5517 1.6897 0.0000
0.5517 1.7241 0.0000
0.5517 1.7586 0.0000
0.5517 1.7931 0.0000
0.5517 1.8276 0.0000
0.5517 1.8621 0.0000
0.5517 1.8966 0.0000
0.5517 1.9310 0.0000
0.5517 1.9655 0.0000
0.5517 2.0000 0.0000
0.6207 1.0000 0.0000
0.6207 1.0345 0.0000
0.6207 1.0690 0.0000
0.6207 1.1034 0.0000
0.6207 1.1379 0.0000
0.6207 1.1724 0.0000
0.6207 1.2069 0.0000
0.6207 1.2414 0.0000
0.6207 1.2759 0.0000
0.6207 1.3103 0.0000
0.6207 1.3448 0.0000
0.6207 1.3793 0.0000
0.6207 1.4138 0.0000
0.6207 1.4483 0.0000
0.6207 1.4828 0.0000
0.6207 1.5172 0.0000
0.6207 1.5517 0.0000
0.6207 1.5862 0.0000
0.6207 1.6207 0.0000
0.6207 1.6552 0.0000
0.6207 1.6897 0.0000
0.6207 1.7241 0.0000
0.6207 1.7586 0.0000
0.6207 1.7931 0.0000
0.6207 1.8276 0.0000
0.6207 1.8621 0.0000
0.6207 1.8966 0.0000
0.6207 1.9310 0.0000
0.6207 1.9655 0.0000
0.6207 2.0000 0.0000
0.6897 1.0000 0.0000
0.6897 1.0345 0.0000
0.6897 1.0690 0.0000
0.6897 1.1034 0.0000
0.6897 1.1379 0.0000
0.6897 1.1724 0.0000
0.6897 1.2069 0.0000
0.6897 1.2414 0.0000
0.6897 1.2759 0.0000
0.6897 1.3103 0.0000
0.6897 1.3448 0.0000
0.6897 1.3793 0.0000
0.6897 1.4138 0.0000
0.6897 1.4483 0.0000
0.6897 1.4828 0.0000
0.6897 1.5172 0.0000
0.6897 1.5517 0.0000
0.6897 1.5862 0.0000
0.6897 1.6207 0.0000
0.6897 1.6552 0.0000
0.6897 1.6897 0.0000
0.6897 1.7241 0.0000
0.6897 1.7586 0.0000
0.6897 1.7931 0.0000
0.6897 1.8276 0.0000
0.6897 1.8621 0.0000
0.6897 1.8966 0.0000
0.6897 1.9310 0.0000
0.6897 1.9655 0.0000
0.6897 2.0000 0.0000
0.7586 1.0000 0.0000
0.7586 1.0345 0.0000
0.7586 1.0690 0.0000
0.7586 1.1034 0.0000
0.7586 1.1379 0.0000
0.7586 1.1724 0.0000
0.7586 1.2069 0.0000
0.7586 1.2414 0.0000
0.7586 1.2759 0.0000
0.7586 1.3103 0.0000
0.7586 1.3448 0.0000
0.7586 1.3793 0.0000
0.7586 1.4138 0.0000
0.7586 1.4483 0.0000
0.7586 1.4828 0.0000
0.7586 1.5172 0.0000
0.7586 1.5517 0.0000
0.7586 1.5862 0.0000
0.7586 1.6207 0.0000
0.7586 1.6552 0.0000
0.7586 1.6897 0.0000
0.7586 1.7241 0.0000
0.7586 1.7586 0.0000
0.7586 1.7931 0.0000
0.7586 1.8276 0.0000
0.7586 1.8621 0.0000
0.7586 1.8966 0.0000
0.7586 1.9310 0.0000
0.7586 1.9655 0.0000
0.7586 2.0000 0.0000
0.8276 1.0000 0.0000
0.8276 1.0345 0.0000
0.8276 1.0690 0.0000
0.8276 1.1034 0.0000
0.8276 1.1379 0.0000
0.8276 1.1724 0.0000
0.8276 1.2069 0.0000
0.8276 1.2414 0.0000
0.8276 1.2759 0.0000
0.8276 1.3103 0.0000
0.8276 1.3448 0.0000
0.8276 1.3793 0.0000
0.8276 1.4138 0.0000
0.8276 1.4483 0.0000
0.8276 1.4828 0.0000
0.8276 1.5172 0.0000
0.8276 1.5517 0.0000
0.8276 1.5862 0.0000
0.8276 1.6207 0.0000
0.8276 1.6552 0.0000
0.8276 1.6897 0.0000
0.8276 1.7241 0.0000
0.8276 1.7586 0.0000
0.8276 1.7931 0.0000
0.8276 1.8276 0.0000
0.8276 1.8621 0.0000
0.8276 1.8966 0.0000
0.8276 1.9310 0.0000
0.8276 1.9655 0.0000
0.8276 2.0000 0.0000
0.8966 1.0000 0.0000
0.8966 1.0345 0.0000
0.8966 1.0690 0.0000
0.8966 1.1034 0.0000
0.8966 1.1379 0.0000
0.8966 1.1724 0.0000
0.8966 1.2069 0.0000
0.8966 1.2414 0.0000
0.8966 1.2759 0.0000
0.8966 1.3103 0.0000
0.8966 1.3448 0.0000
0.8966 1.3793 0.0000
0.8966 1.4138 0.0000
0.8966 1.4483 0.0000
0.8966 1.4828 0.0000
0.8966 1.5172 0.0000
0.8966 1.5517 0.0000
0.8966 1.5862 0.0000
0.8966 1.6207 0.0000
0.8966 1.6552 0.0000
0.8966 1.6897 0.0000
0.8966 1.7241 0.0000
0.8966 1.7586 0.0000
0.8966 1.7931 0.0000
0.8966 1.8276 0.0000
0.8966 1.8621 0.0000
0.8966 1.8966 0.0000
0.8966 1.9310 0.0000
0.8966 1.9655 0.0000
0.8966 2.0000 0.0000
0.9655 1.0000 0.0000
0.9655 1.0345 0.0000
0.9655 1.0690 0.0000
0.9655 1.1034 0.0000
0.9655 1.1379 0.0000
0.9655 1.1724 0.0000
0.9655 1.2069 0.0000
0.9655 1.2414 0.0000
0.9655 1.2759 0.0000
0.9655 1.3103 0.0000
0.9655 1.3448 0.0000
0.9655 1.3793 0.0000
0.9655 1.4138 0.0000
0.9655 1.4483 0.0000
0.9655 1.4828 0.0000
0.9655 1.5172 0.0000
0.9655 1.5517 0.0000
0.9655 1.5862 0.0000
0.9655 1.6207 0.0000
0.9655 1.6552 0.0000
0.9655 1.6897 0.0000
0.9655 1.7241 0.0000
0.9655 1.7586 0.0000
0.9655 1.7931 0.0000
0.9655 1.8276 0.0000
0.9655 1.8621 0.0000
0.9655 1.8966 0.0000
0.9655 1.9310 0.0000
0.9655 1.9655 0.0000
0.9655 2.0000 0.0000
1.0345 1.0000 0.0000
1.0345 1.0345 0.0000
1.0345 1.0690 0.0000
1.0345 1.1034 0.0000
1.0345 1.1379 0.0000
1.0345 1.1724 0.0000
1.0345 1.2069 0.0000
1.0345 1.2414 0.0000
1.0345 1.2759 0.0000
1.0345 1.3103 0.0000
1.0345 1.3448 0.0000
[...]
         <PointData>
            <DataArray Name="fValues" NumberOfComponents="3" format="ascii" type="Float64">
       00000 -1.02555e-18        00000 
       00000 -2.29976e-19        00000 
 9.09672e-20 -4.43465e-19        00000 
 1.30009e-19 -3.09586e-19        00000 
 3.69554e-20 -1.98280e-19        00000 
 4.13002e-20  2.08836e-20        00000 
       00000  2.13204e-20        00000 
 5.71468e-21 -3.16986e-21        00000 
 9.10560e-22  3.55341e-21        00000 
-1.76997e-22  8.98246e-22        00000 
-1.77670e-22        00000        00000 
-5.37147e-23  2.27328e-22        00000 
-4.85817e-23  2.35968e-23        00000 
 4.99081e-24  7.95715e-24        00000 
-1.11044e-23 -2.77610e-24        00000 
 1.74398e-24 -5.23195e-25        00000 
-6.50648e-25 -8.56687e-25        00000 
 3.23485e-25 -4.42341e-25        00000 
       00000        00000        00000 
 3.97463e-26 -1.89343e-25        00000 
 1.38941e-26 -2.94825e-26        00000 
 1.83386e-27  1.19954e-26        00000 
 2.03328e-27 -1.69440e-27        00000 
-2.34177e-28  1.70311e-28        00000 
 5.82449e-29  1.12519e-28        00000 
-6.70601e-29  2.53051e-28        00000 
 2.11800e-29  3.97124e-30        00000 
-1.23306e-29  1.05810e-29        00000 
-2.29471e-30 -2.33643e-30        00000 
 2.10594e-30 -1.60483e-30        00000 
-4.63466e-03 -1.91737e-03        00000 
 7.46856e-04 -1.65177e-03        00000 
 1.36345e-03 -1.57354e-03        00000 
 1.21507e-03 -8.51250e-04        00000 
 7.53161e-04 -2.52369e-04        00000 
 3.48999e-04  1.46026e-05        00000 
 1.22215e-04  6.44977e-05        00000 
 3.04127e-05  4.20451e-05        00000 
 3.11902e-06  1.75304e-05        00000 
-1.96499e-06  5.20085e-06        00000 
-1.64918e-06  9.44250e-07        00000 
-8.07864e-07 -6.13112e-08        00000 
-3.12266e-07 -1.49977e-07        00000 
-1.00009e-07 -8.52488e-08        00000 
-2.52851e-08 -3.55433e-08        00000 
-3.63821e-09 -1.23225e-08        00000 
 9.23344e-10 -3.56997e-09        00000 
 1.10138e-09 -7.72971e-10        00000 
 6.12999e-10 -4.55889e-11        00000 
 2.62243e-10  7.32027e-11        00000 
 9.29634e-11  5.56232e-11        00000 
 2.68523e-11  2.75679e-11        00000 
 5.42766e-12  1.09892e-11        00000 
 1.15393e-14  3.63422e-12        00000 
-7.21899e-13  9.45756e-13        00000 
-4.83105e-13  1.41438e-13        00000 
-2.25489e-13 -3.29287e-14        00000 
-8.61507e-14 -4.12136e-14        00000 
-2.81049e-14 -2.46190e-14        00000 
-6.19357e-15 -1.52998e-14        00000 
 5.92336e-03  4.66465e-03        00000 
-7.41088e-04  4.55617e-03        00000 
-2.23881e-03  3.30936e-03        00000 
-1.71146e-03  1.48582e-03        00000 
-8.75344e-04  2.62578e-04        00000 
-3.22949e-04 -1.57559e-04        00000 
-8.83122e-05 -1.65217e-04        00000 
-1.63621e-05 -8.55753e-05        00000 
 7.25508e-08 -3.13853e-05        00000 
 1.95925e-06 -8.32965e-06        00000 
 1.27608e-06 -1.19479e-06        00000 
 6.01784e-07  2.87756e-07        00000 
 2.36998e-07  3.26191e-07        00000 
 7.88061e-08  1.70920e-07        00000 
 2.08033e-08  6.90445e-08        00000 
 3.20382e-09  2.32850e-08        00000 
-6.95045e-10  6.43526e-09        00000 
-9.01700e-10  1.22548e-09        00000 
-5.08182e-10 -3.55859e-11        00000 
-2.17293e-10 -1.88416e-10        00000 
-7.64649e-11 -1.21845e-10        00000 
-2.17851e-11 -5.63614e-11        00000 
-4.26970e-12 -2.13215e-11        00000 
 6.98384e-14 -6.66106e-12        00000 
 6.16846e-13 -1.57682e-12        00000 
 4.01362e-13 -1.55865e-13        00000 
 1.85032e-13  1.07890e-13        00000 
 7.00857e-14  9.30448e-14        00000 
 2.30979e-14  4.95053e-14        00000 
 4.90390e-15  2.99196e-14        00000 
-6.98999e-03 -7.94367e-03        00000 
 1.98282e-03 -8.40108e-03        00000 
 3.51799e-03 -5.32789e-03        00000 
 2.09819e-03 -1.73578e-03        00000 
 7.18446e-04  5.15267e-05        00000 
 1.35836e-04  3.83675e-04        00000 
 6.76832e-06  2.44891e-04        00000 
-6.96317e-06  1.04203e-04        00000 
-3.21318e-06  3.41752e-05        00000 
-9.64543e-07  8.44953e-06        00000 
-2.91250e-07  1.07284e-06        00000 
-1.19497e-07 -3.85266e-07        00000 
-5.61051e-08 -3.89148e-07        00000 
-2.33087e-08 -2.05261e-07        00000 
-7.53235e-09 -8.44608e-08        00000 
-1.53687e-09 -2.89013e-08        00000 
 9.56712e-11 -8.01297e-09        00000 
 2.86327e-10 -1.48879e-09        00000 
 1.75841e-10  7.79907e-11        00000 
 7.65324e-11  2.51756e-10        00000 
 2.66566e-11  1.57767e-10        00000 
 7.36893e-12  7.15784e-11        00000 
 1.34511e-12  2.66009e-11        00000 
-7.65446e-14  8.13963e-12        00000 
-2.25628e-13  1.85851e-12        00000 
-1.38958e-13  1.47159e-13        00000 
-6.24230e-14 -1.50977e-13        00000 
-2.32614e-14 -1.20459e-13        00000 
-7.60357e-15 -6.22712e-14        00000 
-1.50340e-15 -3.72553e-14        00000 
 6.14904e-03  1.22372e-02        00000 
-6.46438e-03  1.51680e-02        00000 
-5.74925e-03  7.52203e-03        00000 
-2.02407e-03  1.00477e-03        00000 
-9.94057e-05 -8.21715e-04        00000 
 1.14848e-04 -6.03142e-04        00000 
 7.09632e-05 -2.63850e-04        00000 
 2.19775e-05 -9.22341e-05        00000 
 3.71276e-06 -2.75311e-05        00000 
-4.96770e-07 -6.65555e-06        00000 
-7.10245e-07 -8.69341e-07        00000 
-3.57171e-07  3.20557e-07        00000 
-1.30556e-07  3.43101e-07        00000 
-3.79554e-08  1.90134e-07        00000 
-8.31099e-09  8.14570e-08        00000 
-7.78253e-10  2.87425e-08        00000 
 4.97026e-10  8.15585e-09        00000 
 4.20839e-10  1.55516e-09        00000 
 2.15900e-10 -6.13908e-11        00000 
 8.96270e-11 -2.48990e-10        00000 
 3.15474e-11 -1.57181e-10        00000 
 9.15437e-12 -7.11958e-11        00000 
 1.87045e-12 -2.63515e-11        00000 
 6.82529e-15 -8.02400e-12        00000 
-2.51392e-13 -1.82074e-12        00000 
-1.69649e-13 -1.40033e-13        00000 
-7.95243e-14  1.50076e-13        00000 
-3.04331e-14  1.18869e-13        00000 
-1.01463e-14  6.13438e-14        00000 
-2.22738e-15  3.66676e-14        00000 
 7.29923e-03 -1.82247e-02        00000 
 2.15408e-02 -3.02995e-02        00000 
 9.33546e-03 -8.59124e-03        00000 
-7.11574e-04  1.90470e-03        00000 
-6.06599e-04  1.56529e-03        00000 
-3.19177e-04  6.17319e-04        00000 
-1.02225e-04  1.96792e-04        00000 
-2.42082e-05  5.86091e-05        00000 
-2.26930e-06  1.69014e-05        00000 
 1.62107e-06  4.34028e-06        00000 
 1.35474e-06  6.93657e-07        00000 
 6.76780e-07 -1.64941e-07        00000 
 2.67523e-07 -2.27885e-07        00000 
 8.72630e-08 -1.36853e-07        00000 
 2.23377e-08 -6.16479e-08        00000 
 3.24438e-09 -2.25738e-08        00000 
-8.08628e-10 -6.62582e-09        00000 
-9.68004e-10 -1.33773e-09        00000 
-5.36315e-10  5.73929e-12        00000 
-2.28047e-10  1.82595e-10        00000 
-8.03106e-11  1.19917e-10        00000 
-2.30230e-11  5.50656e-11        00000 
-4.59121e-12  2.05517e-11        00000 
 2.61628e-14  6.31803e-12        00000 
 6.33814e-13  1.46364e-12        00000 
 4.19406e-13  1.31933e-13        00000 
 1.94919e-13 -1.07359e-13        00000 
 7.42658e-14 -8.93799e-14        00000 
 2.46042e-14 -4.71259e-14        00000 
 5.38266e-15 -2.82980e-14        00000 
-7.21290e-02  4.38483e-02        00000 
-9.39785e-02  6.19386e-02        00000 
 7.74505e-03 -3.25904e-03        00000 
 2.09058e-03 -4.13927e-03        00000 
 1.00201e-03 -1.29433e-03        00000 
 3.03230e-04 -3.31648e-04        00000 
 8.35727e-05 -8.12809e-05        00000 
 1.72242e-05 -2.19302e-05        00000 
 9.10003e-07 -6.42214e-06        00000 
-1.75792e-06 -1.75358e-06        00000 
-1.35676e-06 -2.98577e-07        00000 
-6.93247e-07  7.18963e-08        00000 
-2.85207e-07  1.03893e-07        00000 
-9.72636e-08  6.39141e-08        00000 
-2.62077e-08  2.92601e-08        00000 
-4.25659e-09  1.08243e-08        00000 
 7.16679e-10  3.19199e-09        00000 
 1.05078e-09  6.41938e-10        00000 
 6.01922e-10 -6.41367e-12        00000 
 2.59131e-10 -9.01018e-11        00000 
 9.17290e-11 -5.85457e-11        00000 
 2.63828e-11 -2.66846e-11        00000 
 5.30725e-12 -9.88318e-12        00000 
 1.10705e-14 -3.00954e-12        00000 
-7.01166e-13 -6.85652e-13        00000 
-4.68549e-13 -5.57035e-14        00000 
-2.18685e-13  5.42027e-14        00000 
-8.36591e-14  4.37154e-14        00000 
-2.73823e-14  2.32012e-14        00000 
-6.14741e-15  1.32637e-14        00000 
 7.73737e-01  2.53856e-02        00000 
-1.92929e-02  3.53954e-02        00000 
 7.63628e-05  1.08852e-02        00000 
 2.55457e-05  2.69615e-03        00000 
 1.21366e-05  6.31767e-04        00000 
 3.74266e-06  1.37154e-04        00000 
 1.03761e-06  2.13832e-05        00000 
 2.17095e-07 -2.93408e-06        00000 
 1.32842e-08 -5.26922e-06        00000 
-2.08008e-08 -3.41012e-06        00000 
-1.63875e-08 -1.66324e-06        00000 
-8.42969e-09 -6.71412e-07        00000 
-3.48361e-09 -2.25408e-07        00000 
-1.19366e-09 -5.89148e-08        00000 
-3.24080e-10 -8.39280e-09        00000 
-5.39206e-11  2.47952e-09        00000 
 7.99973e-12  2.79774e-09        00000 
 1.25939e-11  1.52596e-09        00000 
 7.29415e-12  6.37601e-10        00000 
 3.15908e-12  2.19080e-10        00000 
 1.12417e-12  6.03688e-11        00000 
 3.25546e-13  1.09101e-11        00000 
 6.65076e-14 -7.86258e-13        00000 
 8.12542e-16 -1.97507e-12        00000 
-8.33861e-15 -1.20902e-12        00000 
-5.66326e-15 -5.41166e-13        00000 
-2.66142e-15 -1.98631e-13        00000 
-1.02330e-15 -5.92425e-14        00000 
-3.37186e-16 -1.13447e-14        00000 
 4.32065e-17  1.48487e-15        00000 
 9.08474e-03  3.26933e-02        00000 
 5.67845e-18  1.10196e-17        00000 
-2.83207e-19 -1.74449e-18        00000 
-4.63238e-20  4.38911e-19        00000 
 9.35135e-21 -4.91781e-20        00000 
 1.88176e-21 -1.92098e-21        00000 
-1.49833e-21 -1.21263e-21        00000 
 3.60189e-22  5.04260e-22        00000 
-5.70263e-23 -5.91122e-23        00000 
 3.69976e-23  8.09412e-23        00000 
-1.07441e-23 -3.12700e-23        00000 
 6.36989e-24  5.69507e-24        00000 
-2.74959e-24 -8.07245e-24        00000 
 6.71678e-25 -8.63839e-24        00000 
 5.31094e-26  1.03320e-24        00000 
-1.29414e-25 -2.61431e-25        00000 
 2.69850e-26 -4.75371e-26        00000 
-2.12255e-27  6.55516e-26        00000 
 2.40901e-27  4.05491e-27        00000 
-1.10213e-27  9.11857e-27        00000 
-2.04227e-28  3.78374e-28        00000 
 8.64039e-28 -1.97154e-27        00000 
-2.32895e-28  3.04192e-28        00000 
 4.38145e-29 -7.64048e-29        00000 
-7.81222e-30  2.63365e-30        00000 
-4.46155e-31  3.71377e-29        00000 
 1.99012e-30 -5.30924e-30        00000 
-1.84409e-30  4.83728e-30        00000 
 1.11126e-30 -1.84867e-30        00000 
-7.43574e-31  1.02988e-30        00000 
 1.04237e-18  2.60646e-18        00000 
-5.81549e-19 -1.43857e-18        00000 
 2.76031e-19  6.93838e-19        00000 
-2.96054e-20 -1.56688e-19        00000 
 6.33388e-22  3.29603e-20        00000 
-3.04574e-23 -4.70470e-21        00000 
 2.11303e-22  5.13384e-22        00000 
-1.02066e-22 -1.43376e-22        00000 
 2.73262e-23  4.00746e-23        00000 
-7.72303e-24 -1.33118e-23        00000 
 3.10976e-24  6.73668e-24        00000 
-1.25358e-24 -2.44141e-24        00000 
 5.72549e-25  6.54241e-25        00000 
-1.95639e-25  3.45408e-25        00000 
 3.15010e-26 -4.27292e-25        00000 
 9.86919e-27  8.90127e-26        00000 
-7.49840e-27 -1.09551e-26        00000 
 1.84189e-27 -5.42830e-27        00000 
-4.63013e-28  2.83971e-27        00000 
 1.99650e-28 -7.46454e-28        00000 
-4.20684e-30  2.81948e-28        00000 
-8.16902e-29  1.51371e-28        00000 
 5.71158e-29 -1.08877e-28        00000 
-1.66154e-29  2.58832e-29        00000 
 2.31872e-30 -8.50779e-30        00000 
-4.15173e-31 -2.19246e-30        00000 
-1.42823e-31  8.92727e-31        00000 
 2.24496e-31 -7.48821e-31        00000 
-2.02172e-31  3.97926e-31        00000 
 1.66011e-31 -2.73209e-31        00000 
-1.37879e-19 -3.31177e-19        00000 
 1.20622e-19  2.74178e-19        00000 
-5.76920e-20 -1.48473e-19        00000 
 1.70467e-20  5.06378e-20        00000 
-2.62951e-21 -1.24258e-20        00000 
 2.85352e-22  2.67488e-21        00000 
-5.27125e-23 -4.59873e-22        00000 
 2.20578e-23  7.54300e-23        00000 
-8.01770e-24 -1.66276e-23        00000 
 2.40495e-24  4.35823e-24        00000 
-7.79734e-25 -1.49964e-24        00000 
 2.99843e-25  5.86719e-25        00000 
-1.22584e-25 -1.72040e-25        00000 
 4.71759e-26 -5.66049e-27        00000 
-1.30267e-26  4.85078e-26        00000 
 1.21296e-27 -2.64247e-26        00000 
 8.72696e-28  5.97679e-27        00000 
-4.94133e-28 -3.91001e-28        00000 
 1.50001e-28 -3.96681e-28        00000 
-4.44773e-29  1.99576e-28        00000 
 7.75593e-30 -5.77264e-29        00000 
 7.75079e-30 -9.35340e-31        00000 
-8.56128e-30  1.47394e-29        00000 
 4.11490e-30 -7.31411e-30        00000 
-1.23607e-30  9.55707e-31        00000 
 2.14249e-31 -1.98724e-31        00000 
-1.38971e-32 -1.60846e-31        00000 
-2.95856e-32  1.20946e-31        00000 
 3.19424e-32 -8.89827e-32        00000 
-3.30342e-32  6.15400e-32        00000 
 2.15985e-20  5.11347e-20        00000 
-1.90829e-20 -4.84417e-20        00000 
 1.07948e-20  2.79446e-20        00000 
-4.38234e-21 -1.19730e-20        00000 
 1.23140e-21  3.99849e-21        00000 
-2.26083e-22 -1.01006e-21        00000 
 3.62220e-23  2.23766e-22        00000 
-7.47537e-24 -4.33852e-23        00000 
 2.22409e-24  8.29114e-24        00000 
-7.08058e-25 -1.79169e-24        00000 
 2.21586e-25  4.66565e-25        00000 
-7.56125e-26 -1.48727e-25        00000 
 2.86897e-26  4.69983e-26        00000 
-1.10050e-26 -7.78426e-27        00000 
 3.67644e-27 -4.25861e-27        00000 
-8.40933e-28  4.31216e-27        00000 
 3.21371e-29 -1.76786e-27        00000 
 7.04513e-29  3.75996e-28        00000 
-3.63768e-29 -9.16894e-30        00000 
 1.20467e-29 -3.00902e-29        00000 
-2.85959e-30  1.37452e-29        00000 
-4.25926e-31 -2.49770e-30        00000 
 1.12992e-30 -1.23327e-30        00000 
-7.61413e-31  1.22713e-30        00000 
 3.04448e-31 -5.65895e-31        00000 
-8.67059e-32  9.02287e-32        00000 
 1.49329e-32  1.95507e-33        00000 
 1.80888e-33 -1.88270e-32        00000 
-5.08833e-33  1.55037e-32        00000 
 5.47376e-33 -1.33287e-32        00000 
-2.66503e-21 -7.36218e-21        00000 
 3.04713e-21  6.28584e-21        00000 
-2.05978e-21 -4.21213e-21        00000 
 9.19718e-22  2.03275e-21        00000 
-3.38935e-22 -9.06972e-22        00000 
 9.19574e-23  3.06555e-22        00000 
-1.92889e-23 -8.15261e-23        00000 
 3.73159e-24  1.89043e-23        00000 
-8.20182e-25 -3.97707e-24        00000 
 2.20514e-25  8.23644e-25        00000 
-6.57330e-26 -1.83884e-25        00000 
 2.08277e-26  4.73286e-26        00000 
-7.20604e-27 -1.35763e-26        00000 
 2.65061e-27  3.31004e-27        00000 
-9.38650e-28 -7.26317e-29        00000 
 2.78178e-28 -5.39718e-28        00000 
-5.40132e-29  3.46812e-28        00000 
-7.49906e-31 -1.20849e-28        00000 
 5.70644e-30  2.32124e-29        00000 
-2.77964e-30  4.15776e-31        00000 
 8.57377e-31 -2.19225e-30        00000 
-9.42902e-32  7.96738e-31        00000 
-1.24300e-31 -9.65107e-33        00000 
 1.20435e-31 -1.60540e-31        00000 
-5.85032e-32  1.26411e-31        00000 
 2.29676e-32 -3.71861e-32        00000 
-6.10070e-33  5.43206e-33        00000 
 7.01982e-34  1.68139e-33        00000 
 6.26021e-34 -2.58784e-33        00000 
-8.53346e-34  2.48418e-33        00000 
 4.84000e-22  1.14504e-21        00000 
-4.55527e-22 -1.01796e-21        00000 
 3.42540e-22  7.16762e-22        00000 
-1.86486e-22 -4.03733e-22        00000 
 7.82132e-23  1.88530e-22        00000 
-2.66011e-23 -7.51929e-23        00000 
 7.21938e-24  2.44071e-23        00000 
-1.64862e-24 -6.64653e-24        00000 
 3.55421e-25  1.60427e-24        00000 
-8.19660e-26 -3.58118e-25        00000 
 2.14112e-26  7.85319e-26        00000 
-6.20897e-27 -1.80894e-26        00000 
 1.96639e-27  4.55158e-27        00000 
-6.73968e-28 -1.15839e-27        00000 
 2.37083e-28  2.06574e-28        00000 
-7.76557e-29  3.33666e-29        00000 
 2.08081e-29 -5.27900e-29        00000 
-3.48512e-30  2.67995e-29        00000 
-2.46999e-31 -8.30634e-30        00000 
 4.60564e-31  1.42497e-30        00000 
-2.04418e-31  8.16324e-32        00000 
 4.93263e-32 -1.41304e-31        00000 
 6.92035e-33  3.32557e-32        00000 
-1.64220e-32  1.40134e-32        00000 
 9.60464e-33 -1.33991e-32        00000 
-4.88203e-33  8.67262e-33        00000 
 1.72251e-33 -2.38363e-33        00000 
-3.90604e-34  1.56833e-34        00000 
-2.44359e-35  3.51688e-34        00000 
 1.08270e-34 -4.18734e-34        00000 
-7.93720e-23 -1.82017e-22        00000 
 7.34069e-23  1.64610e-22        00000 
-5.64177e-23 -1.21963e-22        00000 
 3.44559e-23  7.45692e-23        00000 
-1.66305e-23 -3.82251e-23        00000 
 6.53233e-24  1.67213e-23        00000 
-2.13008e-24 -6.25103e-24        00000 
 5.84082e-25  1.98457e-24        00000 
-1.41297e-25 -5.48290e-25        00000 
 3.26577e-26  1.36645e-25        00000 
-7.82737e-27 -3.18938e-26        00000 
 2.04362e-27  7.30270e-27        00000 
-5.87191e-28 -1.71812e-27        00000 
 1.84620e-28  4.18610e-28        00000 
-6.18393e-29 -9.42361e-29        00000 
 2.07002e-29  1.13524e-29        00000 
-6.31823e-30  5.15677e-30        00000 
 1.55485e-30 -4.64445e-30        00000 
-2.26370e-31  2.02691e-30        00000 
-3.02658e-32 -5.72676e-31        00000 
 3.57033e-32  8.89120e-32        00000 
-1.35561e-32  6.52788e-33        00000 
 1.66728e-33 -7.21147e-33        00000 
 1.72479e-33  1.27764e-34        00000 
-1.31185e-33  1.71660e-33        00000 
 8.97569e-34 -1.36362e-33        00000 
-3.96481e-34  6.08903e-34        00000 
 1.23560e-34 -1.32415e-34        00000 
-1.85205e-35 -2.77456e-35        00000 
-6.06813e-36  5.91304e-35        00000 
 1.29111e-23  2.92357e-23        00000 
-1.19573e-23 -2.67806e-23        00000 
 9.39456e-24  2.06119e-23        00000 
-6.13087e-24 -1.33913e-23        00000 
 3.28747e-24  7.40849e-24        00000 
-1.45874e-24 -3.52800e-24        00000 
 5.44415e-25  1.45662e-24        00000 
-1.73454e-25 -5.22283e-25        00000 
 4.81650e-26  1.63614e-25        00000 
-1.21454e-26 -4.56788e-26        00000 
 2.94592e-27  1.16797e-26        00000 
-7.29219e-28 -2.82137e-27        00000 
 1.92369e-28  6.66987e-28        00000 
-5.51857e-29 -1.58602e-28        00000 
 1.71529e-29  3.72313e-29        00000 
-5.57876e-30 -7.45220e-30        00000 
 1.77815e-30  5.21427e-31        00000 
-5.10148e-31  5.58568e-31        00000 
 1.16777e-31 -3.86098e-31        00000 
-1.49225e-32  1.51370e-31        00000 
-2.85080e-33 -3.97964e-32        00000 
 2.54481e-33  5.87559e-33        00000 
-7.39597e-34  2.33554e-34        00000 
-6.63588e-35 -2.16651e-34        00000 
 2.42806e-34  9.09681e-35        00000 
-1.50662e-34  1.88716e-34        00000 
 7.99228e-35 -1.15823e-34        00000 
-3.10522e-35  4.01444e-35        00000 
 8.36582e-36 -3.59820e-36        00000 
-2.34566e-36 -5.51073e-36        00000 
-2.10355e-24 -4.73315e-24        00000 
 1.95782e-24  4.37889e-24        00000 
-1.57056e-24 -3.47071e-24        00000 
 1.07421e-24  2.36396e-24        00000 
-6.21284e-25 -1.39113e-24        00000 
 3.03841e-25  7.12219e-25        00000 
-1.26643e-25 -3.19308e-25        00000 
 4.55216e-26  1.25922e-25        00000 
-1.43144e-26 -4.38625e-26        00000 
 4.02414e-27  1.36232e-26        00000 
-1.04657e-27 -3.83646e-27        00000 
 2.63116e-28  1.00132e-27        00000 
-6.69429e-29 -2.48388e-28        00000 
 1.79019e-29  6.00640e-29        00000 
-5.13874e-30 -1.43166e-29        00000 
 1.57498e-30  3.23649e-30        00000 
-4.96466e-31 -5.82597e-31        00000 