<?xml version="1.0" encoding="utf-8"?>
<VTKFile byte_order="LittleEndian" type="UnstructuredGrid" version="0.1">
   <UnstructuredGrid>
      <Piece NumberOfCells="3364" NumberOfPoints="1741">
         <Points>
            <DataArray Name="Points" NumberOfComponents="3" format="ascii" type="Float32">
0.0000 1.0000 0.0000
0.0000 1.0345 0.0000
0.0000 1.0690 0.0000
0.0000 1.1034 0.0000
0.0000 1.1379 0.0000
0.0000 1.1724 0.0000
0.0000 1.2069 0.0000
0.0000 1.2414 0.0000
0.0000 1.2759 0.0000
0.0000 1.3103 0.0000
0.0000 1.3448 0.0000
0.0000 1.3793 0.0000
0.0000 1.4138 0.0000
0.0000 1.4483 0.0000
0.0000 1.4828 0.0000
0.0000 1.5172 0.0000
0.0000 1.5517 0.0000
0.0000 1.5862 0.0000
0.0000 1.6207 0.0000
0.0000 1.6552 0.0000
0.0000 1.6897 0.0000
0.0000 1.7241 0.0000
0.0000 1.7586 0.0000
0.0000 1.7931 0.0000
0.0000 1.8276 0.0000
0.0000 1.8621 0.0000
0.0000 1.8966 0.0000
0.0000 1.9310 0.0000
0.0000 1.9655 0.0000
0.0000 2.0000 0.0000
0.0690 1.0000 0.0000
0.0690 1.0345 0.0000
0.0690 1.0690 0.0000
0.0690 1.1034 0.0000
0.0690 1.1379 0.0000
0.0690 1.1724 0.0000
0.0690 1.2069 0.0000
0.0690 1.2414 0.0000
0.0690 1.2759 0.0000
0.0690 1.3103 0.0000
0.0690 1.3448 0.0000
0.0690 1.3793 0.0000
0.0690 1.4138 0.0000
0.0690 1.4483 0.0000
0.0690 1.4828 0.0000
0.0690 1.5172 0.0000
0.0690 1.5517 0.0000
0.0690 1.5862 0.0000
0.0690 1.6207 0.0000
0.0690 1.6552 0.0000
0.0690 1.6897 0.0000
0.0690 1.7241 0.0000
0.0690 1.7586 0.0000
0.0690 1.7931 0.0000
0.0690 1.8276 0.0000
0.0690 1.8621 0.0000
0.0690 1.8966 0.0000
0.0690 1.9310 0.0000
0.0690 1.9655 0.0000
0.0690 2.0000 0.0000
0.1379 1.0000 0.0000
0.1379 1.0345 0.0000
0.1379 1.0690 0.0000
0.1379 1.1034 0.0000
0.1379 1.1379 0.0000
0.1379 1.1724 0.0000
0.1379 1.2069 0.0000
0.1379 1.2414 0.0000
0.1379 1.2759 0.0000
0.1379 1.3103 0.0000
0.1379 1.3448 0.0000
0.1379 1.3793 0.0000
0.1379 1.4138 0.0000
0.1379 1.4483 0.0000
0.1379 1.4828 0.0000
0.1379 1.5172 0.0000
0.1379 1.5517 0.0000
0.1379 1.5862 0.0000
0.1379 1.6207 0.0000
0.1379 1.6552 0.0000
0.1379 1.6897 0.0000
0.1379 1.7241 0.0000
0.1379 1.7586 0.0000
0.1379 1.7931 0.0000
0.1379 1.8276 0.0000
0.1379 1.8621 0.0000
0.1379 1.8966 0.0000
0.1379 1.9310 0.0000
0.1379 1.9655 0.0000
0.1379 2.0000 0.0000
0.2069 1.0000 0.0000
0.2069 1.0345 0.0000
0.2069 1.0690 0.0000
0.2069 1.1034 0.0000
0.2069 1.1379 0.0000
0.2069 1.1724 0.0000
0.2069 1.2069 0.0000
0.2069 1.2414 0.0000
0.2069 1.2759 0.0000
0.2069 1.3103 0.0000
0.2069 1.3448 0.0000
0.2069 1.3793 0.0000
0.2069 1.4138 0.0000
0.2069 1.4483 0.0000
0.2069 1.4828 0.0000
0.2069 1.5172 0.0000
0.2069 1.5517 0.0000
0.2069 1.5862 0.0000
0.2069 1.6207 0.0000
0.2069 1.6552 0.0000
0.2069 1.6897 0.0000
0.2069 1.7241 0.0000
0.2069 1.7586 0.0000
0.2069 1.7931 0.0000
0.2069 1.8276 0.0000
0.2069 1.8621 0.0000
0.2069 1.8966 0.0000
0.2069 1.9310 0.0000
0.2069 1.9655 0.0000
0.2069 2.0000 0.0000
0.2759 1.0000 0.0000
0.2759 1.0345 0.0000
0.2759 1.0690 0.0000
0.2759 1.1034 0.0000
0.2759 1.1379 0.0000
0.2759 1.1724 0.0000
0.2759 1.2069 0.0000
0.2759 1.2414 0.0000
0.2759 1.2759 0.0000
0.2759 1.3103 0.0000
0.2759 1.3448 0.0000
0.2759 1.3793 0.0000
0.2759 1.4138 0.0000
0.2759 1.4483 0.0000
0.2759 1.4828 0.0000
0.2759 1.5172 0.0000
0.2759 1.5517 0.0000
0.2759 1.5862 0.0000
0.2759 1.6207 0.0000
0.2759 1.6552 0.0000
0.2759 1.6897 0.0000
0.2759 1.7241 0.0000
0.2759 1.7586 0.0000
0.2759 1.7931 0.0000
0.2759 1.8276 0.0000
0.2759 1.8621 0.0000
0.2759 1.8966 0.0000
0.2759 1.9310 0.0000
0.2759 1.9655 0.0000
0.2759 2.0000 0.0000
0.3448 1.0000 0.0000
0.3448 1.0345 0.0000
0.3448 1.0690 0.0000
0.3448 1.1034 0.0000
0.3448 1.1379 0.0000
0.3448 1.1724 0.0000
0.3448 1.2069 0.0000
0.3448 1.2414 0.0000
0.3448 1.2759 0.0000
0.3448 1.3103 0.0000
0.3448 1.3448 0.0000
0.3448 1.3793 0.0000
0.3448 1.4138 0.0000
0.3448 1.4483 0.0000
0.3448 1.4828 0.0000
0.3448 1.5172 0.0000
0.3448 1.5517 0.0000
0.3448 1.5862 0.0000
0.3448 1.6207 0.0000
0.3448 1.6552 0.0000
0.3448 1.6897 0.0000
0.3448 1.7241 0.0000
0.3448 1.7586 0.0000
0.3448 1.7931 0.0000
0.3448 1.8276 0.0000
0.3448 1.8621 0.0000
0.3448 1.8966 0.0000
0.3448 1.9310 0.0000
0.3448 1.9655 0.0000
0.3448 2.0000 0.0000
0.4138 1.0000 0.0000
0.4138 1.0345 0.0000
0.4138 1.0690 0.0000
0.4138 1.1034 0.0000
0.4138 1.1379 0.0000
0.4138 1.1724 0.0000
0.4138 1.2069 0.0000
0.4138 1.2414 0.0000
0.4138 1.2759 0.0000
0.4138 1.3103 0.0000
0.4138 1.3448 0.0000
0.4138 1.3793 0.0000
0.4138 1.4138 0.0000
0.4138 1.4483 0.0000
0.4138 1.4828 0.0000
0.4138 1.5172 0.0000
0.4138 1.5517 0.0000
0.4138 1.5862 0.0000
0.4138 1.6207 0.0000
0.4138 1.6552 0.0000
0.4138 1.6897 0.0000
0.4138 1.7241 0.0000
0.4138 1.7586 0.0000
0.4138 1.7931 0.0000
0.4138 1.8276 0.0000
0.4138 1.8621 0.0000
0.4138 1.8966 0.0000
0.4138 1.9310 0.0000
0.4138 1.9655 0.0000
0.4138 2.0000 0.0000
0.4828 1.0000 0.0000
0.4828 1.0345 0.0000
0.4828 1.0690 0.0000
0.4828 1.1034 0.0000
0.4828 1.1379 0.0000
0.4828 1.1724 0.0000
0.4828 1.2069 0.0000
0.4828 1.2414 0.0000
0.4828 1.2759 0.0000
0.4828 1.3103 0.0000
0.4828 1.3448 0.0000
0.4828 1.3793 0.0000
0.4828 1.4138 0.0000
0.4828 1.4483 0.0000
0.4828 1.4828 0.0000
0.4828 1.5172 0.0000
0.4828 1.5517 0.0000
0.4828 1.5862 0.0000
0.4828 1.6207 0.0000
0.4828 1.6552 0.0000
0.4828 1.6897 0.0000
0.4828 1.7241 0.0000
0.4828 1.7586 0.0000
0.4828 1.7931 0.0000
0.4828 1.8276 0.0000
0.4828 1.8621 0.0000
0.4828 1.8966 0.0000
0.4828 1.9310 0.0000
0.4828 1.9655 0.0000
0.4828 2.0000 0.0000
0.5517 1.0000 0.0000
0.5517 1.0345 0.0000
0.5517 1.0690 0.0000
0.5517 1.1034 0.0000
0.5517 1.1379 0.0000
0.5517 1.1724 0.0000
0.5517 1.2069 0.0000
0.5517 1.2414 0.0000
0.5517 1.2759 0.0000
0.5517 1.3103 0.0000
0.5517 1.3448 0.0000
0.5517 1.3793 0.0000
0.5517 1.4138 0.0000
0.5517 1.4483 0.0000
0.5517 1.4828 0.0000
0.5517 1.5172 0.0000
0.5517 1.5517 0.0000
0.5517 1.5862 0.0000
0.5517 1.6207 0.0000
0.5517 1.6552 0.0000
0.5517 1.6897 0.0000
0.5517 1.7241 0.0000
0.5517 1.7586 0.0000
0.5517 1.7931 0.0000
0.5517 1.8276 0.0000
0.5517 1.8621 0.0000
0.5517 1.8966 0.0000
0.5517 1.9310 0.0000
0.5517 1.9655 0.0000
0.5517 2.0000 0.0000
0.6207 1.0000 0.0000
0.6207 1.0345 0.0000
0.6207 1.0690 0.0000
0.6207 1.1034 0.0000
0.6207 1.1379 0.0000
0.6207 1.1724 0.0000
0.6207 1.2069 0.0000
0.6207 1.2414 0.0000
0.6207 1.2759 0.0000
0.6207 1.3103 0.0000
0.6207 1.3448 0.0000
0.6207 1.3793 0.0000
0.6207 1.4138 0.0000
0.6207 1.4483 0.0000
0.6207 1.4828 0.0000
0.6207 1.5172 0.0000
0.6207 1.5517 0.0000
0.6207 1.5862 0.0000
0.6207 1.6207 0.0000
0.6207 1.6552 0.0000
0.6207 1.6897 0.0000
0.6207 1.7241 0.0000
0.6207 1.7586 0.0000
0.6207 1.7931 0.0000
0.6207 1.8276 0.0000
0.6207 1.8621 0.0000
0.6207 1.8966 0.0000
0.6207 1.9310 0.0000
0.6207 1.9655 0.0000
0.6207 2.0000 0.0000
0.6897 1.0000 0.0000
0.6897 1.0345 0.0000
0.6897 1.0690 0.0000
0.6897 1.1034 0.0000
0.6897 1.1379 0.0000
0.6897 1.1724 0.0000
0.6897 1.2069 0.0000
0.6897 1.2414 0.0000
0.6897 1.2759 0.0000
0.6897 1.3103 0.0000
0.6897 1.3448 0.0000
0.6897 1.3793 0.0000
0.6897 1.4138 0.0000
0.6897 1.4483 0.0000
0.6897 1.4828 0.0000
0.6897 1.5172 0.0000
0.6897 1.5517 0.0000
0.6897 1.5862 0.0000
0.6897 1.6207 0.0000
0.6897 1.6552 0.0000
0.6897 1.6897 0.0000
0.6897 1.7241 0.0000
0.6897 1.7586 0.0000
0.6897 1.7931 0.0000
0.6897 1.8276 0.0000
0.6897 1.8621 0.0000
0.6897 1.8966 0.0000
0.6897 1.9310 0.0000
0.6897 1.9655 0.0000
0.6897 2.0000 0.0000
0.7586 1.0000 0.0000
0.7586 1.0345 0.0000
0.7586 1.0690 0.0000
0.7586 1.1034 0.0000
0.7586 1.1379 0.0000
0.7586 1.1724 0.0000
0.7586 1.2069 0.0000
0.7586 1.2414 0.0000
0.7586 1.2759 0.0000
0.7586 1.3103 0.0000
0.7586 1.3448 0.0000
0.7586 1.3793 0.0000
0.7586 1.4138 0.0000
0.7586 1.4483 0.0000
0.7586 1.4828 0.0000
0.7586 1.5172 0.0000
0.7586 1.5517 0.0000
0.7586 1.5862 0.0000
0.7586 1.6207 0.0000
0.7586 1.6552 0.0000
0.7586 1.6897 0.0000
0.7586 1.7241 0.0000
0.7586 1.7586 0.0000
0.7586 1.7931 0.0000
0.7586 1.8276 0.0000
0.7586 1.8621 0.0000
0.7586 1.8966 0.0000
0.7586 1.9310 0.0000
0.7586 1.9655 0.0000
0.7586 2.0000 0.0000
0.8276 1.0000 0.0000
0.8276 1.0345 0.0000
0.8276 1.0690 0.0000
0.8276 1.1034 0.0000
0.8276 1.1379 0.0000
0.8276 1.1724 0.0000
0.8276 1.2069 0.0000
0.8276 1.2414 0.0000
0.8276 1.2759 0.0000
0.8276 1.3103 0.0000
0.8276 1.3448 0.0000
0.8276 1.3793 0.0000
0.8276 1.4138 0.0000
0.8276 1.4483 0.0000
0.8276 1.4828 0.0000
0.8276 1.5172 0.0000
0.8276 1.5517 0.0000
0.8276 1.5862 0.0000
0.8276 1.6207 0.0000
0.8276 1.6552 0.0000
0.8276 1.6897 0.0000
0.8276 1.7241 0.0000
0.8276 1.7586 0.0000
0.8276 1.7931 0.0000
0.8276 1.8276 0.0000
0.8276 1.8621 0.0000
0.8276 1.8966 0.0000
0.8276 1.9310 0.0000
0.8276 1.9655 0.0000
0.8276 2.0000 0.0000
0.8966 1.0000 0.0000
0.8966 1.0345 0.0000
0.8966 1.0690 0.0000
0.8966 1.1034 0.0000
0.8966 1.1379 0.0000
0.8966 1.1724 0.0000
0.8966 1.2069 0.0000
0.8966 1.2414 0.0000
0.8966 1.2759 0.0000
0.8966 1.3103 0.0000
0.8966 1.3448 0.0000
0.8966 1.3793 0.0000
0.8966 1.4138 0.0000
0.8966 1.4483 0.0000
0.8966 1.4828 0.0000
0.8966 1.5172 0.0000
0.8966 1.5517 0.0000
0.8966 1.5862 0.0000
0.8966 1.6207 0.0000
0.8966 1.6552 0.0000
0.8966 1.6897 0.0000
0.8966 1.7241 0.0000
0.8966 1.7586 0.0000
0.8966 1.7931 0.0000
0.8966 1.8276 0.0000
0.8966 1.8621 0.0000
0.8966 1.8966 0.0000
0.8966 1.9310 0.0000
0.8966 1.9655 0.0000
0.8966 2.0000 0.0000
0.9655 1.0000 0.0000
0.9655 1.0345 0.0000
0.9655 1.0690 0.0000
0.9655 1.1034 0.0000
0.9655 1.1379 0.0000
0.9655 1.1724 0.0000
0.9655 1.2069 0.0000
0.9655 1.2414 0.0000
0.9655 1.2759 0.0000
0.9655 1.3103 0.0000
0.9655 1.3448 0.0000
0.9655 1.3793 0.0000
0.9655 1.4138 0.0000
0.9655 1.4483 0.0000
0.9655 1.4828 0.0000
0.9655 1.5172 0.0000
0.9655 1.5517 0.0000
0.9655 1.5862 0.0000
0.9655 1.6207 0.0000
0.9655 1.6552 0.0000
0.9655 1.6897 0.0000
0.9655 1.7241 0.0000
0.9655 1.7586 0.0000
0.9655 1.7931 0.0000
0.9655 1.8276 0.0000
0.9655 1.8621 0.0000
0.9655 1.8966 0.0000
0.9655 1.9310 0.0000
0.9655 1.9655 0.0000
0.9655 2.0000 0.0000
1.0345 1.0000 0.0000
1.0345 1.0345 0.0000
1.0345 1.0690 0.0000
1.0345 1.1034 0.0000
1.0345 1.1379 0.0000
1.0345 1.1724 0.0000
1.0345 1.2069 0.0000
1.0345 1.2414 0.0000
1.0345 1.2759 0.0000
1.0345 1.3103 0.0000
1.0345 1.3448 0.0000
[...]
         <PointData>
            <DataArray Name="fValues" NumberOfComponents="3" format="ascii" type="Float64">
 7.18676e-22  2.34668e-20        00000 
-2.87470e-21  2.06979e-19        00000 
-2.27418e-20  7.39109e-20        00000 
-3.50024e-20 -4.21458e-20        00000 
 2.27418e-20  5.68545e-21        00000 
-6.83856e-20  1.10437e-19        00000 
 2.27418e-20 -6.25400e-20        00000 
-1.17865e-20 -1.08936e-19        00000 
 7.10681e-21 -4.12195e-20        00000 
 1.88653e-20 -2.73233e-20        00000 
-8.52818e-21  7.10681e-21        00000 
 6.17963e-21 -1.02351e-20        00000 
-8.96680e-22  1.93216e-21        00000 
 2.59513e-22  3.05723e-22        00000 
-5.82981e-23  1.33253e-22        00000 
 1.92710e-23 -6.69689e-23        00000 
-2.35968e-23 -1.76976e-23        00000 
-1.43023e-24 -4.06593e-24        00000 
-3.47012e-24 -6.94025e-25        00000 
-2.85271e-25  3.23591e-26        00000 
-1.43685e-25 -1.35552e-25        00000 
-2.39164e-26 -6.07506e-26        00000 
 3.79545e-26 -3.79545e-26        00000 
 6.98274e-27 -1.77123e-26        00000 
-1.69440e-28 -1.05053e-26        00000 
 1.77219e-27 -6.49119e-27        00000 
 3.38879e-28 -1.10136e-27        00000 
 1.38636e-28  3.94578e-28        00000 
 9.34571e-30 -1.28170e-28        00000 
 1.16728e-29 -1.29064e-28        00000 
 9.87632e-04  3.34657e-04        00000 
 1.17677e-04  3.99382e-04        00000 
-6.47515e-05  5.83378e-04        00000 
-4.21639e-04  4.62886e-04        00000 
-6.21550e-04  9.76782e-05        00000 
-4.26492e-04 -2.79984e-04        00000 
-4.28763e-05 -4.37728e-04        00000 
 1.93114e-04 -3.46241e-04        00000 
 2.08778e-04 -1.65886e-04        00000 
 1.27312e-04 -3.93567e-05        00000 
 5.47978e-05  7.97329e-06        00000 
 1.75152e-05  1.27777e-05        00000 
 3.82086e-06  7.04310e-06        00000 
 1.48865e-07  2.60951e-06        00000 
-3.89198e-07  6.83073e-07        00000 
-2.66478e-07  9.40408e-08        00000 
-1.22066e-07 -2.38154e-08        00000 
-4.53034e-08 -2.54787e-08        00000 
-1.39656e-08 -1.30021e-08        00000 
-3.31912e-09 -5.17848e-09        00000 
-3.64690e-10 -1.74381e-09        00000 
 1.98291e-10 -4.88559e-10        00000 
 1.81558e-10 -9.75014e-11        00000 
 9.49462e-11 -1.73702e-13        00000 
 3.91277e-11  1.31280e-11        00000 
 1.33933e-11  8.89952e-12        00000 
 3.69932e-12  4.20807e-12        00000 
 7.04950e-13  1.61306e-12        00000 
 4.64139e-14  4.95683e-13        00000 
-4.61486e-13  2.04397e-13        00000 
-1.11270e-03 -6.83564e-04        00000 
-4.41870e-04 -1.00091e-03        00000 
-9.68565e-05 -1.38501e-03        00000 
 5.91733e-04 -1.16362e-03        00000 
 1.02890e-03 -2.06561e-04        00000 
 6.14428e-04  7.90031e-04        00000 
-9.70384e-05  1.09945e-03        00000 
-3.91403e-04  7.51553e-04        00000 
-2.98495e-04  2.84635e-04        00000 
-1.36869e-04  2.83790e-05        00000 
-4.49283e-05 -3.72879e-05        00000 
-1.13123e-05 -2.95781e-05        00000 
-1.79533e-06 -1.35295e-05        00000 
 1.66189e-07 -4.49227e-06        00000 
 3.26617e-07 -1.05814e-06        00000 
 1.97747e-07 -1.00235e-07        00000 
 9.09628e-08  6.60328e-08        00000 
 3.50213e-08  5.35165e-08        00000 
 1.12688e-08  2.59335e-08        00000 
 2.79345e-09  1.00683e-08        00000 
 3.33352e-10  3.28988e-09        00000 
-1.57593e-10  8.70201e-10        00000 
-1.50453e-10  1.45878e-10        00000 
-7.90352e-11 -1.87425e-11        00000 
-3.24073e-11 -3.23262e-11        00000 
-1.09782e-11 -1.92020e-11        00000 
-2.98334e-12 -8.50297e-12        00000 
-5.55185e-13 -3.08789e-12        00000 
 1.44389e-14 -9.64163e-13        00000 
 3.63947e-13 -3.76007e-13        00000 
 9.86148e-04  8.11395e-04        00000 
 8.53167e-04  1.55834e-03        00000 
 6.75641e-04  2.63586e-03        00000 
-6.36404e-04  2.49757e-03        00000 
-1.59628e-03  3.44520e-04        00000 
-6.87248e-04 -1.88311e-03        00000 
 5.84277e-04 -2.17876e-03        00000 
 7.21529e-04 -1.15595e-03        00000 
 3.37814e-04 -2.72693e-04        00000 
 8.31908e-05  4.70579e-05        00000 
 1.17659e-05  7.25599e-05        00000 
-1.15164e-06  3.96040e-05        00000 
-1.12757e-06  1.54712e-05        00000 
-3.73853e-07  4.75115e-06        00000 
-9.84798e-08  1.07555e-06        00000 
-3.57236e-08  8.97166e-08        00000 
-1.85902e-08 -7.93407e-08        00000 
-9.25409e-09 -6.34903e-08        00000 
-3.69879e-09 -3.14507e-08        00000 
-1.09893e-09 -1.24642e-08        00000 
-1.82153e-10 -4.11739e-09        00000 
 3.83132e-11 -1.08420e-09        00000 
 5.06599e-11 -1.73346e-10        00000 
 2.78984e-11  2.95389e-11        00000 
 1.14374e-11  4.30328e-11        00000 
 3.79129e-12  2.47831e-11        00000 
 9.90484e-13  1.07521e-11        00000 
 1.68201e-13  3.83576e-12        00000 
-1.55849e-14  1.18882e-12        00000 
-1.26198e-13  4.49830e-13        00000 
-3.96558e-04 -4.49987e-04        00000 
-1.37790e-03 -1.83271e-03        00000 
-2.08301e-03 -4.78422e-03        00000 
-3.26043e-04 -5.84584e-03        00000 
 1.71620e-03 -5.31817e-04        00000 
-2.80468e-04  4.87595e-03        00000 
-1.87394e-03  4.09988e-03        00000 
-1.11370e-03  1.30893e-03        00000 
-1.53893e-04 -1.62367e-05        00000 
 1.40256e-05 -1.65991e-04        00000 
 2.64487e-05 -9.46144e-05        00000 
 1.09164e-05 -3.79687e-05        00000 
 2.82672e-06 -1.28947e-05        00000 
 2.95086e-07 -3.80158e-06        00000 
-1.53054e-07 -8.87978e-07        00000 
-1.21223e-07 -8.89918e-08        00000 
-5.35429e-08  6.37448e-08        00000 
-1.82168e-08  5.65197e-08        00000 
-4.99398e-09  2.96362e-08        00000 
-1.00446e-09  1.22127e-08        00000 
-4.89004e-11  4.14132e-09        00000 
 9.08930e-11  1.10990e-09        00000 
 6.64856e-11  1.81365e-10        00000 
 3.28027e-11 -2.81390e-11        00000 
 1.32977e-11 -4.28921e-11        00000 
 4.55978e-12 -2.47145e-11        00000 
 1.27349e-12 -1.06800e-11        00000 
 2.48724e-13 -3.79131e-12        00000 
-3.38037e-15 -1.16911e-12        00000 
-1.51426e-13 -4.41325e-13        00000 
-3.33940e-04 -2.63967e-04        00000 
 3.49136e-04  8.16326e-04        00000 
 6.01860e-03  8.06265e-03        00000 
 5.74247e-03  1.60004e-02        00000 
 6.03407e-03  7.40813e-04        00000 
 5.96189e-03 -1.43312e-02        00000 
 5.72413e-03 -7.07977e-03        00000 
 4.49958e-05 -2.04724e-04        00000 
-1.31108e-04  4.53436e-04        00000 
-1.20714e-04  2.30692e-04        00000 
-4.68691e-05  8.08355e-05        00000 
-1.42478e-05  2.54703e-05        00000 
-2.98711e-06  7.94442e-06        00000 
-1.16281e-07  2.41221e-06        00000 
 3.11682e-07  6.27327e-07        00000 
 2.19227e-07  8.88336e-08        00000 
 1.03309e-07 -3.42750e-08        00000 
 3.92268e-08 -3.83479e-08        00000 
 1.22740e-08 -2.17420e-08        00000 
 2.93640e-09 -9.38488e-09        00000 
 3.21478e-10 -3.28967e-09        00000 
-1.76067e-10 -9.09806e-10        00000 
-1.59842e-10 -1.59155e-10        00000 
-8.29720e-11  1.64443e-11        00000 
-3.39506e-11  3.19978e-11        00000 
-1.15420e-11  1.89414e-11        00000 
-3.16462e-12  8.27313e-12        00000 
-6.00855e-13  2.95634e-12        00000 
 7.90574e-15  9.06145e-13        00000 
 3.79638e-13  3.52655e-13        00000 
 1.19511e-03  6.55329e-04        00000 
 1.47744e-04  5.23836e-04        00000 
 3.31994e-03 -3.97092e-03        00000 
-5.69042e-02 -4.84902e-02        00000 
-4.34726e-02 -4.96502e-04        00000 
-5.84552e-02  4.44675e-02        00000 
 2.87009e-03  2.60884e-03        00000 
 5.60601e-04 -1.28156e-03        00000 
 3.98723e-04 -5.28233e-04        00000 
 1.32436e-04 -1.50045e-04        00000 
 4.21068e-05 -3.73790e-05        00000 
 1.11894e-05 -9.95468e-06        00000 
 2.24700e-06 -3.02181e-06        00000 
 1.99208e-08 -9.68469e-07        00000 
-3.05854e-07 -2.69843e-07        00000 
-2.17511e-07 -4.17517e-08        00000 
-1.07055e-07  1.46650e-08        00000 
-4.26094e-08  1.75968e-08        00000 
-1.39612e-08  1.02374e-08        00000 
-3.52137e-09  4.48511e-09        00000 
-4.52311e-10  1.58477e-09        00000 
 1.74271e-10  4.38971e-10        00000 
 1.76380e-10  7.59159e-11        00000 
 9.37143e-11 -8.68442e-12        00000 
 3.86514e-11 -1.57871e-11        00000 
 1.31761e-11 -9.24118e-12        00000 
 3.61970e-12 -4.00436e-12        00000 
 6.86166e-13 -1.41617e-12        00000 
 4.07066e-14 -3.83523e-13        00000 
-4.49761e-13 -1.64049e-13        00000 
-1.23885e-03 -2.44009e-04        00000 
-1.46648e-03 -5.90963e-05        00000 
 1.69076e-03  1.83007e-06        00000 
-2.86265e-02  6.31148e-03        00000 
 8.62913e-01 -6.66231e-03        00000 
-1.07795e-02  1.20950e-02        00000 
 2.47485e-05  4.68291e-03        00000 
 6.87959e-06  1.27557e-03        00000 
 4.77680e-06  3.22761e-04        00000 
 1.62643e-06  7.96884e-05        00000 
 5.19389e-07  1.84506e-05        00000 
 1.39215e-07  2.90307e-06        00000 
 2.83304e-08 -5.42520e-07        00000 
 5.42397e-10 -8.48458e-07        00000 
-3.64174e-09 -5.36750e-07        00000 
-2.63058e-09 -2.56074e-07        00000 
-1.30258e-09 -1.00484e-07        00000 
-5.20771e-10 -3.24074e-08        00000 
-1.71512e-10 -7.87178e-09        00000 
-4.36496e-11 -8.09366e-10        00000 
-5.82130e-12  5.34159e-10        00000 
 2.01728e-12  4.64492e-10        00000 
 2.12052e-12  2.36398e-10        00000 
 1.13721e-12  9.46238e-11        00000 
 4.71702e-13  3.12293e-11        00000 
 1.61666e-13  8.12292e-12        00000 
 4.47474e-14  1.22736e-12        00000 
 8.63494e-15 -2.99909e-13        00000 
 4.39285e-16 -4.49301e-13        00000 
-2.75997e-14 -2.09021e-13        00000 
-6.07429e-05  4.16388e-04        00000 
-1.73414e-05  1.54289e-03        00000 
 1.67666e-05  3.12618e-03        00000 
-2.08589e-04  5.49748e-03        00000 
 1.00883e-02  6.68243e-18        00000 
 2.93345e-17  4.67299e-18        00000 
-5.54199e-18 -1.91773e-19        00000 
 7.57169e-19  1.93554e-20        00000 
-1.20718e-19  3.56817e-20        00000 
 2.03706e-20 -7.46283e-21        00000 
-4.04169e-21  1.71433e-21        00000 
 8.29998e-22 -2.51095e-22        00000 
-1.49637e-22  3.84427e-23        00000 
 2.68766e-23  8.26158e-24        00000 
-3.56258e-24 -2.63902e-23        00000 
 1.33456e-24 -3.30727e-25        00000 
-6.33820e-27 -5.81817e-24        00000 
-1.76747e-25 -7.41837e-25        00000 
 2.51558e-26 -1.75628e-25        00000 
 1.78985e-26 -1.53760e-25        00000 
-1.34247e-26  6.85324e-26        00000 
 1.36789e-27 -2.57876e-26        00000 
-1.17361e-27  7.54207e-27        00000 
 5.87324e-29  5.66893e-27        00000 
 7.96882e-29 -2.23215e-27        00000 
 2.71112e-29 -2.95882e-28        00000 
-9.46053e-29  2.49887e-28        00000 
 5.39150e-29 -1.49405e-29        00000 
-1.26187e-29  7.66363e-30        00000 
 1.33627e-30 -2.14564e-29        00000 
 1.47289e-19  2.27418e-20        00000 
-3.96178e-19 -3.23824e-20        00000 
 1.59047e-18  2.46974e-19        00000 
-3.43441e-18  1.79262e-21        00000 
 4.50901e-18 -2.77577e-19        00000 
-3.66931e-18 -9.62034e-20        00000 
 1.80835e-18  1.91603e-19        00000 
-4.12834e-19 -2.20974e-20        00000 
 7.40011e-20 -8.69434e-23        00000 
-1.30183e-20  1.86528e-21        00000 
 2.34175e-21 -5.50673e-22        00000 
-4.46757e-22  1.28635e-22        00000 
 8.66652e-23 -2.28822e-23        00000 
-1.61635e-23  1.79511e-24        00000 
 2.90965e-24  2.07969e-24        00000 
-5.23182e-25 -1.32833e-24        00000 
 9.46143e-26  5.02871e-25        00000 
 4.39454e-27 -2.04057e-25        00000 
-7.43222e-27 -3.19960e-27        00000 
-4.60778e-28  7.98462e-27        00000 
 1.74988e-27 -1.24423e-26        00000 
-7.77553e-28  5.71508e-27        00000 
 2.04747e-28 -1.72896e-27        00000 
-6.23857e-29 -1.00347e-28        00000 
 1.42780e-29  3.88142e-28        00000 
-3.41928e-30 -1.20106e-28        00000 
 6.27197e-30  4.15927e-29        00000 
-8.16988e-30  2.28350e-30        00000 
 3.68770e-30 -2.20813e-30        00000 
-1.60282e-30  2.41290e-30        00000 
-5.93031e-20 -7.14827e-21        00000 
 1.20798e-19  1.42448e-20        00000 
-3.03786e-19 -2.23971e-20        00000 
 5.42934e-19 -1.74875e-21        00000 
-6.94645e-19  1.68504e-20        00000 
 5.66977e-19  4.01245e-21        00000 
-3.32010e-19 -1.91410e-20        00000 
 1.26837e-19  1.01102e-20        00000 
-3.19100e-20 -1.53188e-21        00000 
 6.57280e-21 -2.54860e-23        00000 
-1.26998e-21  1.11943e-22        00000 
 2.42173e-22 -3.90365e-23        00000 
-4.67199e-23  9.68450e-24        00000 
 9.02305e-24 -1.71690e-24        00000 
-1.70995e-24  1.03666e-26        00000 
 3.17528e-25  1.91208e-25        00000 
-5.75120e-26 -1.09158e-25        00000 
 8.58414e-27  4.23151e-26        00000 
-2.20595e-28 -1.03245e-26        00000 
-9.96606e-29 -3.54866e-28        00000 
-1.79160e-28  1.47483e-27        00000 
 1.45404e-28 -1.06837e-27        00000 
-5.81279e-29  4.18376e-28        00000 
 1.75559e-29 -7.35478e-29        00000 
-4.12739e-30 -2.88845e-29        00000 
 1.44753e-30  2.69275e-29        00000 
-1.07995e-30 -9.53950e-30        00000 
 1.07563e-30  2.10550e-30        00000 
-6.76955e-31  6.48918e-32        00000 
 4.32128e-31 -1.79364e-31        00000 
 1.74648e-20  1.93181e-21        00000 
-2.76683e-20 -2.34929e-21        00000 
 5.53585e-20  1.40729e-21        00000 
-8.74897e-20 -7.40432e-23        00000 
 9.98595e-20 -1.54432e-21        00000 
-9.04304e-20 -4.14048e-22        00000 
 5.83690e-20  2.04999e-21        00000 
-2.77541e-20 -1.68205e-21        00000 
 9.67265e-21  6.15272e-22        00000 
-2.52990e-21 -1.00566e-22        00000 
 5.66663e-22 -1.70853e-24        00000 
-1.17622e-22  7.23729e-24        00000 
 2.36078e-23 -2.76008e-24        00000 
-4.67916e-24  7.07409e-25        00000 
 9.17582e-25 -1.15976e-25        00000 
-1.77083e-25 -7.87990e-27        00000 
 3.34864e-26  1.72250e-26        00000 
-6.04087e-27 -8.91354e-27        00000 
 9.29387e-28  3.02132e-27        00000 
-1.06256e-28 -5.37672e-28        00000 
 2.88811e-29 -1.21162e-28        00000 
-2.28980e-29  1.59794e-28        00000 
 1.23381e-29 -8.58921e-29        00000 
-4.65406e-30  2.64422e-29        00000 
 1.61120e-30 -1.45537e-30        00000 
-4.47621e-31 -3.29839e-30        00000 
 2.21128e-31  2.03391e-30        00000 
-1.69192e-31 -6.66352e-31        00000 
 1.24886e-31  1.21501e-31        00000 
-1.00115e-31 -4.47436e-33        00000 
-3.42384e-21 -5.39013e-22        00000 
 5.64611e-21  4.14629e-22        00000 
-9.68151e-21 -2.43173e-22        00000 
 1.45629e-20  7.79515e-23        00000 
-1.61696e-20  1.00966e-22        00000 
 1.43296e-20  5.96922e-23        00000 
-1.01569e-20 -2.48068e-22        00000 
 5.48443e-21  2.46794e-22        00000 
-2.30993e-21 -1.31790e-22        00000 
 7.59268e-22  4.06458e-23        00000 
-2.04483e-22 -6.68303e-24        00000 
 4.83716e-23 -1.01157e-25        00000 
-1.05944e-23  4.87288e-25        00000 
 2.22078e-24 -1.94696e-25        00000 
-4.53786e-25  4.99752e-26        00000 
 9.09874e-26 -7.18618e-27        00000 
-1.79053e-26 -1.27948e-27        00000 
 3.43862e-27  1.50160e-27        00000 
-6.29407e-28 -6.91119e-28        00000 
 1.05480e-28  2.01382e-28        00000 
-1.78270e-29 -2.06313e-29        00000 
 5.16570e-30 -1.80323e-29        00000 
-2.44960e-30  1.47231e-29        00000 
 1.08130e-30 -6.35568e-30        00000 
-4.35825e-31  1.66660e-30        00000 
 1.39012e-31  1.38780e-31        00000 
-5.24917e-32 -3.08023e-31        00000 
 3.09226e-32  1.53268e-31        00000 
-2.28431e-32 -4.68614e-32        00000 
 1.99135e-32  1.70337e-32        00000 
 8.29567e-22  7.94348e-23        00000 
-1.08317e-21 -6.76750e-23        00000 
 1.69811e-21  4.18126e-23        00000 
-2.32079e-21 -1.41591e-23        00000 
 2.57493e-21 -1.02461e-25        00000 
-2.32205e-21 -1.22488e-23        00000 
 1.71261e-21  3.27216e-23        00000 
-1.02121e-21 -3.59005e-23        00000 
 4.89573e-22  2.35404e-23        00000 
-1.90460e-22 -1.00451e-23        00000 
 6.10874e-23  2.81056e-24        00000 
-1.67651e-23 -4.57192e-25        00000 
 4.11842e-24 -5.64253e-27        00000 
-9.39585e-25  3.34173e-26        00000 
 2.04247e-25 -1.36162e-26        00000 
-4.29794e-26  3.41001e-27        00000 
 8.82460e-27 -3.94527e-28        00000 
-1.77169e-27 -1.49761e-28        00000 
 3.46271e-28  1.25361e-28        00000 
-6.50630e-29 -5.10206e-29        00000 
 1.17839e-29  1.22892e-29        00000 
-2.31920e-30  1.75541e-31        00000 
 6.48939e-31 -2.01872e-30        00000 
-2.49558e-31  1.23893e-30        00000 
 1.00063e-31 -4.51000e-31        00000 
-3.72422e-32  7.46527e-32        00000 
 1.35747e-32  2.79476e-32        00000 
-6.43729e-33 -2.67453e-32        00000 
 4.31732e-33  1.21699e-32        00000 
-3.78411e-33 -6.60386e-33        00000 
-1.71231e-22 -1.23102e-23        00000 
 2.06425e-22  1.07848e-23        00000 
-2.91711e-22 -7.08076e-24        00000 
 3.77298e-22  3.21332e-24        00000 
-4.12844e-22 -1.41825e-24        00000 
 3.77619e-22  2.55387e-24        00000 
-2.88670e-22 -4.71590e-24        00000 
 1.83876e-22  5.29751e-24        00000 
-9.72371e-23 -3.93175e-24        00000 
 4.27789e-23  2.05046e-24        00000 
-1.58084e-23 -7.64647e-25        00000 
 4.99603e-24  2.00600e-25        00000 
-1.38924e-24 -3.22659e-26        00000 
 3.50747e-25 -2.41932e-28        00000 
-8.25957e-26  2.29357e-27        00000 
 1.85087e-26 -9.36957e-28        00000 
-4.00039e-27  2.23279e-28        00000 
 8.40499e-28 -1.70236e-29        00000 
-1.72172e-28 -1.51623e-29        00000 
 3.43232e-29  1.00166e-29        00000 
-6.64343e-30 -3.56811e-30        00000 
 1.27582e-30  6.42951e-31        00000 
-2.68930e-31  1.53651e-31        00000 
 7.28819e-32 -1.96475e-31        00000 
-2.69043e-32  1.02813e-31        00000 
 9.39361e-33 -2.91987e-32        00000 
-3.47426e-33  1.94616e-33        00000 
 1.47227e-33  3.34478e-33        00000 
-8.61245e-34 -2.47067e-33        00000 
 7.25093e-34  1.74844e-33        00000 
 3.33882e-23  1.93809e-24        00000 
-3.82675e-23 -1.72571e-24        00000 
 5.00647e-23  1.20596e-24        00000 
-6.18841e-23 -6.67915e-25        00000 
 6.67789e-23  4.04751e-25        00000 
-6.16668e-23 -4.96246e-25        00000 
 4.85475e-23  7.26042e-25        00000 
-3.25266e-23 -8.01763e-25        00000 
 1.85156e-23  6.42510e-25        00000 
-8.95922e-24 -3.82188e-25        00000 
 3.70280e-24  1.71920e-25        00000 
-1.32074e-24 -5.85372e-26        00000 
 4.13376e-25  1.46768e-26        00000 
-1.16059e-25 -2.34765e-27        00000 
 2.99137e-26  2.51900e-30        00000 
-7.22362e-27  1.55013e-28        00000 
 1.66057e-27 -6.28560e-29        00000 
-3.67563e-28  1.38365e-29        00000 
 7.89088e-29 -2.54700e-31        00000 
-1.64874e-29 -1.40123e-30        00000 
 3.35596e-30  7.65090e-31        00000 
-6.68535e-31 -2.33060e-31        00000 
 1.34042e-31  2.30720e-32        00000 
-2.93817e-32  2.24814e-32        00000 
 8.09914e-33 -1.89155e-32        00000 
-2.57378e-33  7.54187e-33        00000 
 8.95542e-34 -1.68684e-33        00000 
-3.53861e-34 -1.43008e-34        00000 
 1.82828e-34  3.97351e-34        00000 
-1.44550e-34 -3.65708e-34        00000 
-6.28415e-24 -3.08263e-25        00000 
 6.95940e-24  2.78530e-25        00000 
-8.59064e-24 -2.05792e-25        00000 
 1.02219e-23  1.29906e-25        00000 
-1.08828e-23 -8.89477e-26        00000 
 1.01149e-23  9.32054e-26        00000 
-8.15302e-24 -1.16041e-25        00000 
 5.68743e-24  1.24690e-25        00000 
-3.43033e-24 -1.04185e-25        00000 
 1.78925e-24  6.80075e-26        00000 
-8.09170e-25 -3.48972e-26        00000 
 3.19216e-25  1.41601e-26        00000 
-1.10982e-25 -4.51766e-27        00000 
 3.45004e-26  1.09665e-27        00000 
-9.75772e-27 -1.76020e-28        00000 
 2.55584e-27  2.59202e-30        00000 
-6.29890e-28  1.01286e-29        00000 