<?xml version="1.0" encoding="utf-8"?>
<VTKFile byte_order="LittleEndian" type="UnstructuredGrid" version="0.1">
   <UnstructuredGrid>
      <Piece NumberOfCells="3364" NumberOfPoints="1741">
         <Points>
            <DataArray Name="Points" NumberOfComponents="3" format="ascii" type="Float32">
0.0000 1.0000 0.0000
0.0000 1.0345 0.0000
0.0000 1.0690 0.0000
0.0000 1.1034 0.0000
0.0000 1.1379 0.0000
0.0000 1.1724 0.0000
0.0000 1.2069 0.0000
0.0000 1.2414 0.0000
0.0000 1.2759 0.0000
0.0000 1.3103 0.0000
0.0000 1.3448 0.0000
0.0000 1.3793 0.0000
0.0000 1.4138 0.0000
0.0000 1.4483 0.0000
0.0000 1.4828 0.0000
0.0000 1.5172 0.0000
0.0000 1.5517 0.0000
0.0000 1.5862 0.0000
0.0000 1.6207 0.0000
0.0000 1.6552 0.0000
0.0000 1.6897 0.0000
0.0000 1.7241 0.0000
0.0000 1.7586 0.0000
0.0000 1.7931 0.0000
0.0000 1.8276 0.0000
0.0000 1.8621 0.0000
0.0000 1.8966 0.0000
0.0000 1.9310 0.0000
0.0000 1.9655 0.0000
0.0000 2.0000 0.0000
0.0690 1.0000 0.0000
0.0690 1.0345 0.0000
0.0690 1.0690 0.0000
0.0690 1.1034 0.0000
0.0690 1.1379 0.0000
0.0690 1.1724 0.0000
0.0690 1.2069 0.0000
0.0690 1.2414 0.0000
0.0690 1.2759 0.0000
0.0690 1.3103 0.0000
0.0690 1.3448 0.0000
0.0690 1.3793 0.0000
0.0690 1.4138 0.0000
0.0690 1.4483 0.0000
0.0690 1.4828 0.0000
0.0690 1.5172 0.0000
0.0690 1.5517 0.0000
0.0690 1.5862 0.0000
0.0690 1.6207 0.0000
0.0690 1.6552 0.0000
0.0690 1.6897 0.0000
0.0690 1.7241 0.0000
0.0690 1.7586 0.0000
0.0690 1.7931 0.0000
0.0690 1.8276 0.0000
0.0690 1.8621 0.0000
0.0690 1.8966 0.0000
0.0690 1.9310 0.0000
0.0690 1.9655 0.0000
0.0690 2.0000 0.0000
0.1379 1.0000 0.0000
0.1379 1.0345 0.0000
0.1379 1.0690 0.0000
0.1379 1.1034 0.0000
0.1379 1.1379 0.0000
0.1379 1.1724 0.0000
0.1379 1.2069 0.0000
0.1379 1.2414 0.0000
0.1379 1.2759 0.0000
0.1379 1.3103 0.0000
0.1379 1.3448 0.0000
0.1379 1.3793 0.0000
0.1379 1.4138 0.0000
0.1379 1.4483 0.0000
0.1379 1.4828 0.0000
0.1379 1.5172 0.0000
0.1379 1.5517 0.0000
0.1379 1.5862 0.0000
0.1379 1.6207 0.0000
0.1379 1.6552 0.0000
0.1379 1.6897 0.0000
0.1379 1.7241 0.0000
0.1379 1.7586 0.0000
0.1379 1.7931 0.0000
0.1379 1.8276 0.0000
0.1379 1.8621 0.0000
0.1379 1.8966 0.0000
0.1379 1.9310 0.0000
0.1379 1.9655 0.0000
0.1379 2.0000 0.0000
0.2069 1.0000 0.0000
0.2069 1.0345 0.0000
0.2069 1.0690 0.0000
0.2069 1.1034 0.0000
0.2069 1.1379 0.0000
0.2069 1.1724 0.0000
0.2069 1.2069 0.0000
0.2069 1.2414 0.0000
0.2069 1.2759 0.0000
0.2069 1.3103 0.0000
0.2069 1.3448 0.0000
0.2069 1.3793 0.0000
0.2069 1.4138 0.0000
0.2069 1.4483 0.0000
0.2069 1.4828 0.0000
0.2069 1.5172 0.0000
0.2069 1.5517 0.0000
0.2069 1.5862 0.0000
0.2069 1.6207 0.0000
0.2069 1.6552 0.0000
0.2069 1.6897 0.0000
0.2069 1.7241 0.0000
0.2069 1.7586 0.0000
0.2069 1.7931 0.0000
0.2069 1.8276 0.0000
0.2069 1.8621 0.0000
0.2069 1.8966 0.0000
0.2069 1.9310 0.0000
0.2069 1.9655 0.0000
0.2069 2.0000 0.0000
0.2759 1.0000 0.0000
0.2759 1.0345 0.0000
0.2759 1.0690 0.0000
0.2759 1.1034 0.0000
0.2759 1.1379 0.0000
0.2759 1.1724 0.0000
0.2759 1.2069 0.0000
0.2759 1.2414 0.0000
0.2759 1.2759 0.0000
0.2759 1.3103 0.0000
0.2759 1.3448 0.0000
0.2759 1.3793 0.0000
0.2759 1.4138 0.0000
0.2759 1.4483 0.0000
0.2759 1.4828 0.0000
0.2759 1.5172 0.0000
0.2759 1.5517 0.0000
0.2759 1.5862 0.0000
0.2759 1.6207 0.0000
0.2759 1.6552 0.0000
0.2759 1.6897 0.0000
0.2759 1.7241 0.0000
0.2759 1.7586 0.0000
0.2759 1.7931 0.0000
0.2759 1.8276 0.0000
0.2759 1.8621 0.0000
0.2759 1.8966 0.0000
0.2759 1.9310 0.0000
0.2759 1.9655 0.0000
0.2759 2.0000 0.0000
0.3448 1.0000 0.0000
0.3448 1.0345 0.0000
0.3448 1.0690 0.0000
0.3448 1.1034 0.0000
0.3448 1.1379 0.0000
0.3448 1.1724 0.0000
0.3448 1.2069 0.0000
0.3448 1.2414 0.0000
0.3448 1.2759 0.0000
0.3448 1.3103 0.0000
0.3448 1.3448 0.0000
0.3448 1.3793 0.0000
0.3448 1.4138 0.0000
0.3448 1.4483 0.0000
0.3448 1.4828 0.0000
0.3448 1.5172 0.0000
0.3448 1.5517 0.0000
0.3448 1.5862 0.0000
0.3448 1.6207 0.0000
0.3448 1.6552 0.0000
0.3448 1.6897 0.0000
0.3448 1.7241 0.0000
0.3448 1.7586 0.0000
0.3448 1.7931 0.0000
0.3448 1.8276 0.0000
0.3448 1.8621 0.0000
0.3448 1.8966 0.0000
0.3448 1.9310 0.0000
0.3448 1.9655 0.0000
0.3448 2.0000 0.0000
0.4138 1.0000 0.0000
0.4138 1.0345 0.0000
0.4138 1.0690 0.0000
0.4138 1.1034 0.0000
0.4138 1.1379 0.0000
0.4138 1.1724 0.0000
0.4138 1.2069 0.0000
0.4138 1.2414 0.0000
0.4138 1.2759 0.0000
0.4138 1.3103 0.0000
0.4138 1.3448 0.0000
0.4138 1.3793 0.0000
0.4138 1.4138 0.0000
0.4138 1.4483 0.0000
0.4138 1.4828 0.0000
0.4138 1.5172 0.0000
0.4138 1.5517 0.0000
0.4138 1.5862 0.0000
0.4138 1.6207 0.0000
0.4138 1.6552 0.0000
0.4138 1.6897 0.0000
0.4138 1.7241 0.0000
0.4138 1.7586 0.0000
0.4138 1.7931 0.0000
0.4138 1.8276 0.0000
0.4138 1.8621 0.0000
0.4138 1.8966 0.0000
0.4138 1.9310 0.0000
0.4138 1.9655 0.0000
0.4138 2.0000 0.0000
0.4828 1.0000 0.0000
0.4828 1.0345 0.0000
0.4828 1.0690 0.0000
0.4828 1.1034 0.0000
0.4828 1.1379 0.0000
0.4828 1.1724 0.0000
0.4828 1.2069 0.0000
0.4828 1.2414 0.0000
0.4828 1.2759 0.0000
0.4828 1.3103 0.0000
0.4828 1.3448 0.0000
0.4828 1.3793 0.0000
0.4828 1.4138 0.0000
0.4828 1.4483 0.0000
0.4828 1.4828 0.0000
0.4828 1.5172 0.0000
0.4828 1.5517 0.0000
0.4828 1.5862 0.0000
0.4828 1.6207 0.0000
0.4828 1.6552 0.0000
0.4828 1.6897 0.0000
0.4828 1.7241 0.0000
0.4828 1.7586 0.0000
0.4828 1.7931 0.0000
0.4828 1.8276 0.0000
0.4828 1.8621 0.0000
0.4828 1.8966 0.0000
0.4828 1.9310 0.0000
0.4828 1.9655 0.0000
0.4828 2.0000 0.0000
0.5517 1.0000 0.0000
0.5517 1.0345 0.0000
0.5517 1.0690 0.0000
0.5517 1.1034 0.0000
0.5517 1.1379 0.0000
0.5517 1.1724 0.0000
0.5517 1.2069 0.0000
0.5517 1.2414 0.0000
0.5517 1.2759 0.0000
0.5517 1.3103 0.0000
0.5517 1.3448 0.0000
0.5517 1.3793 0.0000
0.5517 1.4138 0.0000
0.5517 1.4483 0.0000
0.5517 1.4828 0.0000
0.5517 1.5172 0.0000
0.5517 1.5517 0.0000
0.5517 1.5862 0.0000
0.5517 1.6207 0.0000
0.5517 1.6552 0.0000
0.5517 1.6897 0.0000
0.5517 1.7241 0.0000
0.5517 1.7586 0.0000
0.5517 1.7931 0.0000
0.5517 1.8276 0.0000
0.5517 1.8621 0.0000
0.5517 1.8966 0.0000
0.5517 1.9310 0.0000
0.5517 1.9655 0.0000
0.5517 2.0000 0.0000
0.6207 1.0000 0.0000
0.6207 1.0345 0.0000
0.6207 1.0690 0.0000
0.6207 1.1034 0.0000
0.6207 1.1379 0.0000
0.6207 1.1724 0.0000
0.6207 1.2069 0.0000
0.6207 1.2414 0.0000
0.6207 1.2759 0.0000
0.6207 1.3103 0.0000
0.6207 1.3448 0.0000
0.6207 1.3793 0.0000
0.6207 1.4138 0.0000
0.6207 1.4483 0.0000
0.6207 1.4828 0.0000
0.6207 1.5172 0.0000
0.6207 1.5517 0.0000
0.6207 1.5862 0.0000
0.6207 1.6207 0.0000
0.6207 1.6552 0.0000
0.6207 1.6897 0.0000
0.6207 1.7241 0.0000
0.6207 1.7586 0.0000
0.6207 1.7931 0.0000
0.6207 1.8276 0.0000
0.6207 1.8621 0.0000
0.6207 1.8966 0.0000
0.6207 1.9310 0.0000
0.6207 1.9655 0.0000
0.6207 2.0000 0.0000
0.6897 1.0000 0.0000
0.6897 1.0345 0.0000
0.6897 1.0690 0.0000
0.6897 1.1034 0.0000
0.6897 1.1379 0.0000
0.6897 1.1724 0.0000
0.6897 1.2069 0.0000
0.6897 1.2414 0.0000
0.6897 1.2759 0.0000
0.6897 1.3103 0.0000
0.6897 1.3448 0.0000
0.6897 1.3793 0.0000
0.6897 1.4138 0.0000
0.6897 1.4483 0.0000
0.6897 1.4828 0.0000
0.6897 1.5172 0.0000
0.6897 1.5517 0.0000
0.6897 1.5862 0.0000
0.6897 1.6207 0.0000
0.6897 1.6552 0.0000
0.6897 1.6897 0.0000
0.6897 1.7241 0.0000
0.6897 1.7586 0.0000
0.6897 1.7931 0.0000
0.6897 1.8276 0.0000
0.6897 1.8621 0.0000
0.6897 1.8966 0.0000
0.6897 1.9310 0.0000
0.6897 1.9655 0.0000
0.6897 2.0000 0.0000
0.7586 1.0000 0.0000
0.7586 1.0345 0.0000
0.7586 1.0690 0.0000
0.7586 1.1034 0.0000
0.7586 1.1379 0.0000
0.7586 1.1724 0.0000
0.7586 1.2069 0.0000
0.7586 1.2414 0.0000
0.7586 1.2759 0.0000
0.7586 1.3103 0.0000
0.7586 1.3448 0.0000
0.7586 1.3793 0.0000
0.7586 1.4138 0.0000
0.7586 1.4483 0.0000
0.7586 1.4828 0.0000
0.7586 1.5172 0.0000
0.7586 1.5517 0.0000
0.7586 1.5862 0.0000
0.7586 1.6207 0.0000
0.7586 1.6552 0.0000
0.7586 1.6897 0.0000
0.7586 1.7241 0.0000
0.7586 1.7586 0.0000
0.7586 1.7931 0.0000
0.7586 1.8276 0.0000
0.7586 1.8621 0.0000
0.7586 1.8966 0.0000
0.7586 1.9310 0.0000
0.7586 1.9655 0.0000
0.7586 2.0000 0.0000
0.8276 1.0000 0.0000
0.8276 1.0345 0.0000
0.8276 1.0690 0.0000
0.8276 1.1034 0.0000
0.8276 1.1379 0.0000
0.8276 1.1724 0.0000
0.8276 1.2069 0.0000
0.8276 1.2414 0.0000
0.8276 1.2759 0.0000
0.8276 1.3103 0.0000
0.8276 1.3448 0.0000
0.8276 1.3793 0.0000
0.8276 1.4138 0.0000
0.8276 1.4483 0.0000
0.8276 1.4828 0.0000
0.8276 1.5172 0.0000
0.8276 1.5517 0.0000
0.8276 1.5862 0.0000
0.8276 1.6207 0.0000
0.8276 1.6552 0.0000
0.8276 1.6897 0.0000
0.8276 1.7241 0.0000
0.8276 1.7586 0.0000
0.8276 1.7931 0.0000
0.8276 1.8276 0.0000
0.8276 1.8621 0.0000
0.8276 1.8966 0.0000
0.8276 1.9310 0.0000
0.8276 1.9655 0.0000
0.8276 2.0000 0.0000
0.8966 1.0000 0.0000
0.8966 1.0345 0.0000
0.8966 1.0690 0.0000
0.8966 1.1034 0.0000
0.8966 1.1379 0.0000
0.8966 1.1724 0.0000
0.8966 1.2069 0.0000
0.8966 1.2414 0.0000
0.8966 1.2759 0.0000
0.8966 1.3103 0.0000
0.8966 1.3448 0.0000
0.8966 1.3793 0.0000
0.8966 1.4138 0.0000
0.8966 1.4483 0.0000
0.8966 1.4828 0.0000
0.8966 1.5172 0.0000
0.8966 1.5517 0.0000
0.8966 1.5862 0.0000
0.8966 1.6207 0.0000
0.8966 1.6552 0.0000
0.8966 1.6897 0.0000
0.8966 1.7241 0.0000
0.8966 1.7586 0.0000
0.8966 1.7931 0.0000
0.8966 1.8276 0.0000
0.8966 1.8621 0.0000
0.8966 1.8966 0.0000
0.8966 1.9310 0.0000
0.8966 1.9655 0.0000
0.8966 2.0000 0.0000
0.9655 1.0000 0.0000
0.9655 1.0345 0.0000
0.9655 1.0690 0.0000
0.9655 1.1034 0.0000
0.9655 1.1379 0.0000
0.9655 1.1724 0.0000
0.9655 1.2069 0.0000
0.9655 1.2414 0.0000
0.9655 1.2759 0.0000
0.9655 1.3103 0.0000
0.9655 1.3448 0.0000
0.9655 1.3793 0.0000
0.9655 1.4138 0.0000
0.9655 1.4483 0.0000
0.9655 1.4828 0.0000
0.9655 1.5172 0.0000
0.9655 1.5517 0.0000
0.9655 1.5862 0.0000
0.9655 1.6207 0.0000
0.9655 1.6552 0.0000
0.9655 1.6897 0.0000
0.9655 1.7241 0.0000
0.9655 1.7586 0.0000
0.9655 1.7931 0.0000
0.9655 1.8276 0.0000
0.9655 1.8621 0.0000
0.9655 1.8966 0.0000
0.9655 1.9310 0.0000
0.9655 1.9655 0.0000
0.9655 2.0000 0.0000
1.0345 1.0000 0.0000
1.0345 1.0345 0.0000
1.0345 1.0690 0.0000
1.0345 1.1034 0.0000
1.0345 1.1379 0.0000
1.0345 1.1724 0.0000
1.0345 1.2069 0.0000
1.0345 1.2414 0.0000
1.0345 1.2759 0.0000
1.0345 1.3103 0.0000
1.0345 1.3448 0.0000
[...]
         <PointData>
            <DataArray Name="fValues" NumberOfComponents="3" format="ascii" type="Float64">
 4.59622e-22  6.07942e-22        00000 
-8.98345e-22 -4.31206e-21        00000 
 4.26409e-21  6.39613e-21        00000 
-5.00035e-21  9.01848e-21        00000 
 3.97982e-20 -5.68545e-21        00000 
 1.31385e-19 -6.83138e-20        00000 
 1.25080e-19  2.31682e-19        00000 
 1.21437e-20  9.73907e-19        00000 
 1.25080e-19  3.18385e-19        00000 
 1.50104e-19 -3.24405e-19        00000 
-7.95963e-20  9.09672e-19        00000 
-5.00035e-20  1.82155e-18        00000 
-1.59193e-19 -3.35442e-19        00000 
-5.44180e-20  1.36497e-19        00000 
-1.36451e-19 -3.97982e-20        00000 
 1.14294e-20  9.35779e-20        00000 
-1.65233e-20  3.19807e-21        00000 
-9.06460e-22 -1.19741e-21        00000 
       00000 -1.77670e-21        00000 
 3.41821e-23 -1.01151e-21        00000 
 1.33253e-22  1.08268e-22        00000 
-1.22533e-22  1.35377e-22        00000 
 6.66264e-23 -5.55220e-24        00000 
-8.37112e-24 -1.77886e-23        00000 
 5.07506e-24  2.08207e-24        00000 
-9.09327e-26  6.01660e-25        00000 
 2.06039e-25  8.67531e-26        00000 
-2.35467e-25 -8.19017e-26        00000 
 8.40794e-26 -6.56229e-26        00000 
 2.20165e-26 -5.11244e-27        00000 
-8.06353e-06 -5.06862e-06        00000 
 2.50664e-06 -1.12417e-05        00000 
 1.79481e-05 -3.13633e-05        00000 
 7.91442e-05 -6.31720e-05        00000 
 2.53031e-04 -7.32692e-05        00000 
 6.34546e-04  5.41392e-05        00000 
 1.25603e-03  5.31140e-04        00000 
 1.89833e-03  1.52830e-03        00000 
 2.00812e-03  2.87945e-03        00000 
 1.08782e-03  3.96365e-03        00000 
-5.79099e-04  4.13029e-03        00000 
-1.89198e-03  3.28541e-03        00000 
-2.10071e-03  1.89987e-03        00000 
-1.50027e-03  7.06259e-04        00000 
-7.73806e-04  7.44514e-05        00000 
-2.98194e-04 -1.03858e-04        00000 
-8.32750e-05 -8.78264e-05        00000 
-1.27075e-05 -4.13593e-05        00000 
 2.77249e-06 -1.35419e-05        00000 
 3.35918e-06 -2.89520e-06        00000 
 1.78471e-06 -8.69018e-08        00000 
 7.21990e-07  2.89248e-07        00000 
 2.41548e-07  1.85776e-07        00000 
 6.54281e-08  8.10141e-08        00000 
 1.17695e-08  2.90154e-08        00000 
-7.96019e-10  8.77878e-09        00000 
-2.09254e-09  2.08925e-09        00000 
-1.28170e-09  2.35601e-10        00000 
-5.45278e-10 -1.64603e-10        00000 
-4.49954e-10 -1.70048e-10        00000 
 6.41526e-06  9.00032e-06        00000 
-1.77714e-07  2.10665e-05        00000 
-1.06435e-05  6.05418e-05        00000 
-5.62973e-05  1.39604e-04        00000 
-2.12864e-04  2.20188e-04        00000 
-6.35213e-04  9.56270e-05        00000 
-1.49779e-03 -7.26506e-04        00000 
-2.66734e-03 -2.81912e-03        00000 
-3.25103e-03 -6.03563e-03        00000 
-1.97504e-03 -8.84086e-03        00000 
 1.00580e-03 -9.30322e-03        00000 
 3.22855e-03 -7.11246e-03        00000 
 3.14943e-03 -3.67328e-03        00000 
 1.87541e-03 -1.02164e-03        00000 
 7.74940e-04  1.28977e-04        00000 
 2.31584e-04  3.09878e-04        00000 
 4.75893e-05  1.89621e-04        00000 
 2.87211e-06  7.64423e-05        00000 
-3.59002e-06  2.22379e-05        00000 
-2.64400e-06  3.99184e-06        00000 
-1.30786e-06 -2.74455e-07        00000 
-5.36863e-07 -6.51141e-07        00000 
-1.87686e-07 -3.73758e-07        00000 
-5.35474e-08 -1.57719e-07        00000 
-1.02979e-08 -5.52530e-08        00000 
 4.34032e-10 -1.61202e-08        00000 
 1.69358e-09 -3.49605e-09        00000 
 1.05754e-09 -1.89336e-10        00000 
 4.90506e-10  3.50305e-10        00000 
 3.59275e-10  3.50780e-10        00000 
-2.54657e-06 -1.01351e-05        00000 
-1.29559e-06 -2.40650e-05        00000 
-1.75007e-06 -7.19443e-05        00000 
 5.98086e-06 -1.85092e-04        00000 
 7.42476e-05 -3.61951e-04        00000 
 3.89645e-04 -3.97382e-04        00000 
 1.37338e-03  4.59461e-04        00000 
 3.34662e-03  3.54842e-03        00000 
 5.22922e-03  9.39595e-03        00000 
 3.87774e-03  1.53094e-02        00000 
-1.85179e-03  1.64763e-02        00000 
-5.78279e-03  1.17154e-02        00000 
-4.43435e-03  4.95641e-03        00000 
-1.83224e-03  6.77778e-04        00000 
-4.25416e-04 -5.93597e-04        00000 
-3.15773e-05 -5.14208e-04        00000 
 1.65676e-05 -2.42265e-04        00000 
 8.74706e-06 -8.45715e-05        00000 
 2.46695e-06 -2.25106e-05        00000 
 6.10658e-07 -3.69335e-06        00000 
 2.18969e-07  4.60753e-07        00000 
 1.11072e-07  7.67627e-07        00000 
 5.19833e-08  4.42421e-07        00000 
 1.89267e-08  1.91327e-07        00000 
 4.70154e-09  6.85085e-08        00000 
 2.73262e-10  2.01984e-08        00000 
-5.03035e-10  4.33079e-09        00000 
-3.64524e-10  1.79930e-10        00000 
-1.76714e-10 -4.55234e-10        00000 
-1.25778e-10 -4.53665e-10        00000 
-1.60275e-06  9.45056e-06        00000 
 1.44794e-06  2.15048e-05        00000 
 1.02664e-05  6.49375e-05        00000 
 3.86493e-05  1.84944e-04        00000 
 8.55704e-05  4.46572e-04        00000 
 1.83999e-05  7.97941e-04        00000 
-7.51842e-04  5.05463e-04        00000 
-3.57947e-03 -2.84311e-03        00000 
-8.37199e-03 -1.22696e-02        00000 
-8.43662e-03 -2.49460e-02        00000 
 3.74477e-03 -2.89809e-02        00000 
 1.12793e-02 -1.70659e-02        00000 
 5.66685e-03 -4.45904e-03        00000 
 9.56342e-04  8.67171e-04        00000 
-2.19674e-04  1.24304e-03        00000 
-1.74162e-04  6.07917e-04        00000 
-6.22936e-05  2.20048e-04        00000 
-1.24462e-05  6.70593e-05        00000 
 1.66606e-07  1.71423e-05        00000 
 1.48134e-06  2.91273e-06        00000 
 8.23540e-07 -3.41356e-07        00000 
 3.14192e-07 -6.49720e-07        00000 
 9.46159e-08 -4.00463e-07        00000 
 2.20526e-08 -1.82409e-07        00000 
 2.87284e-09 -6.78731e-08        00000 
-7.58695e-10 -2.05700e-08        00000 
-8.38562e-10 -4.51961e-09        00000 
-4.54755e-10 -2.27964e-10        00000 
-2.04846e-10  4.48489e-10        00000 
-1.46919e-10  4.52137e-10        00000 
 4.70349e-06 -7.87025e-06        00000 
-9.42356e-07 -1.61930e-05        00000 
-1.29227e-05 -4.62507e-05        00000 
-5.99224e-05 -1.39854e-04        00000 
-1.95559e-04 -4.10562e-04        00000 
-4.45511e-04 -1.06620e-03        00000 
-3.99103e-04 -1.99060e-03        00000 
 1.94464e-03 -6.62322e-04        00000 
 1.12756e-02  1.14804e-02        00000 
 1.85744e-02  3.97827e-02        00000 
-7.66135e-03  6.00894e-02        00000 
-2.21808e-02  1.91912e-02        00000 
-4.24618e-03 -1.13787e-03        00000 
 1.32372e-03 -3.59065e-03        00000 
 7.37076e-04 -1.52380e-03        00000 
 2.71527e-04 -4.70911e-04        00000 
 6.77279e-05 -1.33375e-04        00000 
 9.42049e-06 -3.81930e-05        00000 
-2.42524e-06 -1.05485e-05        00000 
-2.74492e-06 -2.18894e-06        00000 
-1.48002e-06  6.32236e-08        00000 
-6.13939e-07  4.03348e-07        00000 
-2.10221e-07  2.80864e-07        00000 
-5.79017e-08  1.36436e-07        00000 
-1.05360e-08  5.30044e-08        00000 
 6.79732e-10  1.66348e-08        00000 
 1.84334e-09  3.82614e-09        00000 
 1.12021e-09  2.76889e-10        00000 
 5.14290e-10 -3.37625e-10        00000 
 3.76914e-10 -3.43301e-10        00000 
-6.19270e-06  5.72837e-06        00000 
 8.43565e-07  1.03089e-05        00000 
 1.22870e-05  2.59950e-05        00000 
 5.80436e-05  7.51230e-05        00000 
 2.14083e-04  2.54542e-04        00000 
 6.52441e-04  9.22544e-04        00000 
 1.54567e-03  2.96406e-03        00000 
 1.81815e-03  6.55196e-03        00000 
-4.43728e-03  1.35636e-03        00000 
-3.34371e-02 -5.63463e-02        00000 
 1.33640e-02 -1.77750e-01        00000 
 3.48457e-02  1.17608e-02        00000 
-6.45528e-03  1.48719e-02        00000 
-2.02802e-03  4.37513e-03        00000 
-7.44798e-04  8.88425e-04        00000 
-2.02271e-04  1.71164e-04        00000 
-4.63380e-05  4.03242e-05        00000 
-5.21186e-06  1.27800e-05        00000 
 2.69616e-06  4.14906e-06        00000 
 2.65706e-06  9.84313e-07        00000 
 1.47607e-06 -3.61087e-09        00000 
 6.43309e-07 -1.77650e-07        00000 
 2.31885e-07 -1.29830e-07        00000 
 6.74127e-08 -6.45499e-08        00000 
 1.33749e-08 -2.54168e-08        00000 
-2.44602e-10 -8.03250e-09        00000 
-1.96299e-09 -1.84823e-09        00000 
-1.25800e-09 -1.24642e-10        00000 
-5.43112e-10  2.09685e-10        00000 
-4.46107e-10  1.62516e-10        00000 
 5.81499e-06 -2.54339e-06        00000 
-1.49288e-06 -3.75549e-06        00000 
-9.79910e-06 -9.58719e-06        00000 
-4.21620e-05 -2.36360e-05        00000 
-1.52763e-04 -8.30860e-05        00000 
-5.15447e-04 -4.19627e-04        00000 
-1.63342e-03 -2.16929e-03        00000 
-4.69484e-03 -9.06736e-03        00000 
-1.04860e-02 -2.30321e-02        00000 
-1.93066e-02  3.54362e-02        00000 
 8.40476e-03  7.72831e-01        00000 
 3.17509e-04 -2.44184e-01        00000 
-7.03002e-05 -6.96422e-03        00000 
-2.48023e-05 -1.35680e-03        00000 
-9.12699e-06 -2.79673e-04        00000 
-2.51604e-06 -5.12876e-05        00000 
-5.81572e-07  6.52154e-07        00000 
-6.87589e-08  8.88826e-06        00000 
 3.13987e-08  6.68329e-06        00000 
 3.20122e-08  3.53255e-06        00000 
 1.79252e-08  1.51554e-06        00000 
 7.84804e-09  5.40347e-07        00000 
 2.84139e-09  1.53827e-07        00000 
 8.31313e-10  2.83380e-08        00000 
 1.67550e-10 -2.24214e-09        00000 
-1.25258e-12 -5.36619e-09        00000 
-2.33891e-11 -3.26665e-09        00000 
-1.52114e-11 -1.45583e-09        00000 
-6.73021e-12 -5.57385e-10        00000 
-1.86368e-11 -1.17094e-10        00000 
 3.57101e-07 -2.69704e-06        00000 
-1.72249e-08 -4.97055e-06        00000 
-1.22653e-07 -1.79391e-06        00000 
-5.24744e-07  1.30078e-05        00000 
-1.89666e-06  6.47919e-05        00000 
-6.37302e-06  2.34839e-04        00000 
-2.00433e-05  8.76814e-04        00000 
-5.68034e-05  3.80540e-03        00000 
-1.25123e-04  1.76401e-02        00000 
-2.21413e-04  7.32863e-02        00000 
 9.37956e-05  2.11024e-01        00000 
 2.13378e-18  2.16207e-17        00000 
-2.14147e-19 -4.95663e-18        00000 
 4.65642e-20  6.46404e-19        00000 
-4.64381e-21 -1.09392e-19        00000 
 2.15563e-22  1.40501e-20        00000 
-1.61371e-22 -2.88810e-21        00000 
-7.08360e-23  3.04089e-22        00000 
 1.18231e-23  3.60384e-22        00000 
 7.02953e-24 -3.47923e-23        00000 
-8.01826e-24  1.73239e-22        00000 
 9.34415e-24 -4.71861e-23        00000 
-3.23605e-24  1.57165e-23        00000 
 1.53083e-24 -2.06386e-24        00000 
-5.81014e-25  7.66259e-25        00000 
 2.17362e-25 -1.10518e-25        00000 
-5.82160e-26 -7.79073e-26        00000 
 3.55250e-27  5.17509e-26        00000 
 8.65061e-27 -2.69594e-26        00000 
-9.53817e-27 -7.99607e-27        00000 
-3.40072e-23  4.88593e-22        00000 
 3.53289e-23 -3.79479e-22        00000 
 9.69391e-23  2.77855e-24        00000 
-1.21216e-21  1.49497e-21        00000 
 2.05936e-21 -5.55166e-21        00000 
 2.95235e-21  4.02022e-20        00000 
-2.84542e-20 -7.96773e-20        00000 
 6.65388e-20  7.39422e-19        00000 
 2.34624e-21 -1.08541e-18        00000 
-1.38698e-19  6.17506e-18        00000 
 1.47493e-19        00000        00000 
-1.59056e-19  3.36993e-19        00000 
 1.08288e-19  1.05439e-18        00000 
-2.03085e-20 -3.18930e-19        00000 
 3.87080e-21  5.94973e-20        00000 
-5.52691e-22 -1.05882e-20        00000 
 7.28150e-23  1.73715e-21        00000 
-7.98431e-24 -2.80198e-22        00000 
-2.14331e-24  1.00736e-23        00000 
-3.57636e-25  2.12385e-23        00000 
 1.29575e-24 -1.78982e-23        00000 
-1.24003e-24  1.19382e-23        00000 
 7.49283e-25 -3.95779e-24        00000 
-3.18173e-25  1.09096e-24        00000 
 1.18440e-25 -1.87326e-25        00000 
-4.72318e-26  4.41409e-26        00000 
 1.45793e-26  1.83637e-27        00000 
-2.22045e-27 -1.08337e-26        00000 
-5.85803e-28  4.52903e-27        00000 
 1.39354e-27 -2.11988e-27        00000 
 3.54844e-24 -7.25428e-23        00000 
 4.78383e-24  4.76811e-23        00000 
-6.14367e-23  6.34484e-23        00000 
 1.61100e-22 -5.29197e-22        00000 
 7.87519e-23  2.61441e-21        00000 
-1.61885e-21 -7.78069e-21        00000 
 5.19899e-21  3.72970e-20        00000 
-5.81602e-21 -1.36340e-19        00000 
-3.63514e-21  5.22393e-19        00000 
 1.75191e-20 -4.54989e-19        00000 
-2.42941e-20  4.22521e-19        00000 
 2.41773e-20  6.01881e-20        00000 
-1.67840e-20 -1.66518e-19        00000 
 6.99016e-21  7.70581e-20        00000 
-1.63637e-21 -2.28076e-20        00000 
 3.29651e-22  4.97525e-21        00000 
-5.61510e-23 -8.61811e-22        00000 
 8.58339e-24  1.63910e-22        00000 
-1.02387e-24 -2.55792e-23        00000 
 1.24882e-25  5.45158e-25        00000 
-1.81109e-25  2.49084e-24        00000 
 1.88301e-25 -1.90380e-24        00000 
-1.30533e-25  9.30820e-25        00000 
 6.70703e-26 -3.11480e-25        00000 
-3.00135e-26  9.22909e-26        00000 
 1.09345e-26 -1.80042e-26        00000 
-3.82747e-27  2.64082e-27        00000 
 1.00716e-27  8.07733e-28        00000 
-5.09994e-29 -9.43140e-28        00000 
-2.00169e-28  7.13804e-28        00000 
 6.32649e-25  8.52689e-24        00000 
-3.33289e-24 -2.38547e-25        00000 
 1.08271e-23 -4.18842e-23        00000 
-4.45372e-24  2.08496e-22        00000 
-8.43128e-23 -8.25274e-22        00000 
 3.67788e-22  2.95512e-21        00000 
-7.05177e-22 -1.06926e-20        00000 
 4.59057e-22  3.23285e-20        00000 
 8.58602e-22 -1.62816e-20        00000 
-2.63404e-21  7.18567e-20        00000 
 3.75554e-21 -5.00467e-20        00000 
-3.73636e-21  8.07280e-21        00000 
 2.74165e-21 -4.06288e-21        00000 
-1.42863e-21 -1.27585e-20        00000 
 5.08870e-22  5.77743e-21        00000 
-1.29698e-22 -1.72009e-21        00000 
 2.79143e-23  3.39863e-22        00000 
-5.26914e-24 -7.61608e-23        00000 
 8.92319e-25  1.48896e-23        00000 
-1.42744e-25 -2.26187e-24        00000 
 4.12153e-26 -2.39082e-26        00000 
-3.03595e-26  2.67007e-25        00000 
 2.21225e-26 -1.72761e-25        00000 
-1.28153e-26  7.51339e-26        00000 
 5.05070e-27 -2.51608e-26        00000 
-2.50622e-27  6.94977e-27        00000 
 9.36602e-28 -1.42172e-27        00000 
-2.95548e-28  1.22376e-28        00000 
 5.81662e-29  1.19805e-28        00000 
 2.03122e-31 -1.36836e-28        00000 
-3.59836e-25 -1.31097e-25        00000 
 5.96081e-25 -1.45561e-24        00000 
-5.59312e-25  1.76688e-23        00000 
-4.71920e-24 -5.30549e-23        00000 
 2.43298e-23  2.43531e-22        00000 
-4.08283e-23 -6.12596e-22        00000 
 9.76372e-23  2.76619e-21        00000 
-2.23063e-23 -3.96440e-21        00000 
-1.77694e-22  8.18518e-21        00000 
 4.04702e-22 -8.12578e-21        00000 
-5.70294e-22        00000        00000 
 5.84292e-22  6.52186e-21        00000 
-4.52063e-22 -4.76471e-21        00000 
 2.65332e-22  2.16241e-21        00000 
-1.17276e-22 -1.27787e-21        00000 
 3.92449e-23  4.44334e-22        00000 
-1.03833e-23 -1.41348e-22        00000 
 2.35994e-24  2.99134e-23        00000 
-4.77864e-25 -6.61393e-24        00000 
 8.94689e-26  1.30874e-24        00000 
-1.82197e-26 -1.90848e-25        00000 
 6.51054e-27 -9.26588e-27        00000 
-3.90499e-27  2.59220e-26        00000 
 2.32163e-27 -1.49900e-26        00000 
-1.24545e-27  5.93177e-27        00000 
 5.13629e-28 -2.01004e-27        00000 
-2.17086e-28  5.36707e-28        00000 
 7.69656e-29 -1.02446e-28        00000 
-2.20134e-29 -1.11286e-30        00000 
 7.98015e-30  1.80298e-29        00000 
 7.67843e-26 -3.08653e-25        00000 
-6.02232e-26  1.19609e-24        00000 
-2.34009e-25 -4.93190e-24        00000 
 1.55804e-24  1.86520e-23        00000 
-4.18859e-24 -5.89708e-23        00000 
 8.40749e-24  1.92934e-22        00000 
-9.65542e-24 -4.39205e-22        00000 
-3.17143e-24  7.54580e-22        00000 
 3.23116e-23 -5.14258e-22        00000 
-6.57862e-23  9.24392e-22        00000 
 8.92339e-23 -7.53257e-23        00000 
-9.19109e-23 -6.93023e-22        00000 
 7.42819e-23  7.45654e-22        00000 
-4.75036e-23 -4.51147e-22        00000 
 2.40400e-23  2.30766e-22        00000 
-9.64792e-24 -1.03365e-22        00000 
 3.12555e-24  1.38565e-23        00000 
-8.43076e-25 -9.15242e-24        00000 
 1.99477e-25  2.41637e-24        00000 
-4.28063e-26 -5.58742e-25        00000 
 8.84954e-27  1.11767e-25        00000 
-2.15410e-27 -1.54932e-26        00000 
 8.31098e-28 -1.36735e-27        00000 
-4.39268e-28  2.40055e-27        00000 
 1.91411e-28 -1.65561e-27        00000 
-1.09042e-28  5.22286e-28        00000 
 4.73029e-29 -1.61944e-28        00000 
-1.85980e-29  4.10498e-29        00000 
 6.47425e-30 -6.57906e-30        00000 
-3.25808e-30 -1.30259e-31        00000 
-7.92320e-27  1.82132e-25        00000 
-9.30536e-27 -4.22314e-25        00000 
 9.99219e-26  1.53376e-24        00000 
-3.42990e-25 -5.05916e-24        00000 
 7.84968e-25  1.54888e-23        00000 
-1.22941e-24 -3.92621e-23        00000 
 8.54260e-25  7.68648e-23        00000 
 1.46748e-24 -1.00345e-22        00000 
-5.96247e-24  6.35997e-23        00000 
 1.07225e-23 -9.43819e-23        00000 
-1.41228e-23  1.47045e-23        00000 
 1.46044e-23  8.13272e-23        00000 
-1.21998e-23 -1.07588e-22        00000 
 8.31160e-24  7.97850e-23        00000 
-4.63116e-24 -4.47109e-23        00000 
 2.11542e-24  2.07312e-23        00000 
-7.99654e-25 -1.09312e-23        00000 
 2.53074e-25  2.13831e-24        00000 
-6.92333e-26 -7.25303e-25        00000 
 1.69200e-26  1.97128e-25        00000 
-3.82902e-27 -4.66784e-26        00000 
 8.69379e-28  9.35659e-27        00000 
-2.39913e-28 -1.22304e-27        00000 
 9.26490e-29 -1.73761e-28        00000 
-3.55681e-29  2.11237e-28        00000 
 2.02002e-29 -1.23079e-28        00000 
-9.99937e-30  4.29550e-29        00000 
 4.23586e-30 -1.28820e-29        00000 
-1.68725e-30  3.14145e-30        00000 
 9.83888e-31 -1.01950e-30        00000 
-1.19873e-27 -6.65313e-26        00000 
 6.27335e-27  1.33952e-25        00000 
-2.60286e-26 -4.25832e-25        00000 
 6.90610e-26  1.28487e-24        00000 
-1.31122e-25 -3.40906e-24        00000 
 1.60301e-25  7.41403e-24        00000 
-3.41989e-26 -1.23511e-23        00000 
-3.80165e-25  1.49593e-23        00000 
 1.14796e-24 -2.38286e-23        00000 
-1.76765e-24  1.12331e-23        00000 
 2.25703e-24 -1.42377e-24        00000 
-2.33917e-24 -1.04853e-23        00000 
 2.00496e-24  1.54755e-23        00000 
-1.43451e-24 -1.33162e-23        00000 
 8.59776e-25  8.56270e-24        00000 
-4.32738e-25 -4.38820e-24        00000 
 1.83493e-25  4.96452e-25        00000 
-6.64299e-26 -6.45780e-25        00000 
 2.07667e-26  1.94027e-25        00000 
-5.74292e-27 -5.98570e-26        00000 
 1.44382e-27  1.62587e-26        00000 
-3.43690e-28 -3.88202e-27        00000 
 8.47160e-29  7.73001e-28        00000 
-2.48262e-29 -9.36032e-29        00000 
 7.79822e-30 -2.50524e-29        00000 
-3.93566e-30  2.03874e-29        00000 
 2.00222e-30 -9.86408e-30        00000 
-9.24056e-31  3.47872e-30        00000 
 4.07414e-31 -1.05980e-30        00000 
-2.60187e-31  4.81529e-31        00000 
 8.72822e-28  2.09090e-26        00000 
-1.98055e-27 -3.81803e-26        00000 
 5.75586e-27  1.08129e-25        00000 
-1.25003e-26 -2.82228e-25        00000 
 1.77796e-26  4.93022e-25        00000 
-2.22931e-26 -1.48879e-24        00000 
-2.62161e-27  1.72417e-24        00000 
 9.01951e-26 -2.80950e-24        00000 
-1.90921e-25 -1.99493e-24        00000 
 2.94748e-25  1.48925e-24        00000 
-3.73567e-25  1.92727e-24        00000 
 3.68753e-25  6.45900e-24        00000 
-3.30344e-25  1.04318e-24        00000 
 2.46564e-25  5.05067e-24        00000 
-1.59156e-25 -3.85079e-24        00000 
 8.50236e-26  1.65647e-24        00000 
-3.92681e-26 -4.83148e-25        00000 