<?xml version="1.0" encoding="utf-8"?>
<VTKFile byte_order="LittleEndian" type="UnstructuredGrid" version="0.1">
   <UnstructuredGrid>
      <Piece NumberOfCells="3364" NumberOfPoints="1741">
         <Points>
            <DataArray Name="Points" NumberOfComponents="3" format="ascii" type="Float32">
0.0000 1.0000 0.0000
0.0000 1.0345 0.0000
0.0000 1.0690 0.0000
0.0000 1.1034 0.0000
0.0000 1.1379 0.0000
0.0000 1.1724 0.0000
0.0000 1.2069 0.0000
0.0000 1.2414 0.0000
0.0000 1.2759 0.0000
0.0000 1.3103 0.0000
0.0000 1.3448 0.0000
0.0000 1.3793 0.0000
0.0000 1.4138 0.0000
0.0000 1.4483 0.0000
0.0000 1.4828 0.0000
0.0000 1.5172 0.0000
0.0000 1.5517 0.0000
0.0000 1.5862 0.0000
0.0000 1.6207 0.0000
0.0000 1.6552 0.0000
0.0000 1.6897 0.0000
0.0000 1.7241 0.0000
0.0000 1.7586 0.0000
0.0000 1.7931 0.0000
0.0000 1.8276 0.0000
0.0000 1.8621 0.0000
0.0000 1.8966 0.0000
0.0000 1.9310 0.0000
0.0000 1.9655 0.0000
0.0000 2.0000 0.0000
0.0690 1.0000 0.0000
0.0690 1.0345 0.0000
0.0690 1.0690 0.0000
0.0690 1.1034 0.0000
0.0690 1.1379 0.0000
0.0690 1.1724 0.0000
0.0690 1.2069 0.0000
0.0690 1.2414 0.0000
0.0690 1.2759 0.0000
0.0690 1.3103 0.0000
0.0690 1.3448 0.0000
0.0690 1.3793 0.0000
0.0690 1.4138 0.0000
0.0690 1.4483 0.0000
0.0690 1.4828 0.0000
0.0690 1.5172 0.0000
0.0690 1.5517 0.0000
0.0690 1.5862 0.0000
0.0690 1.6207 0.0000
0.0690 1.6552 0.0000
0.0690 1.6897 0.0000
0.0690 1.7241 0.0000
0.0690 1.7586 0.0000
0.0690 1.7931 0.0000
0.0690 1.8276 0.0000
0.0690 1.8621 0.0000
0.0690 1.8966 0.0000
0.0690 1.9310 0.0000
0.0690 1.9655 0.0000
0.0690 2.0000 0.0000
0.1379 1.0000 0.0000
0.1379 1.0345 0.0000
0.1379 1.0690 0.0000
0.1379 1.1034 0.0000
0.1379 1.1379 0.0000
0.1379 1.1724 0.0000
0.1379 1.2069 0.0000
0.1379 1.2414 0.0000
0.1379 1.2759 0.0000
0.1379 1.3103 0.0000
0.1379 1.3448 0.0000
0.1379 1.3793 0.0000
0.1379 1.4138 0.0000
0.1379 1.4483 0.0000
0.1379 1.4828 0.0000
0.1379 1.5172 0.0000
0.1379 1.5517 0.0000
0.1379 1.5862 0.0000
0.1379 1.6207 0.0000
0.1379 1.6552 0.0000
0.1379 1.6897 0.0000
0.1379 1.7241 0.0000
0.1379 1.7586 0.0000
0.1379 1.7931 0.0000
0.1379 1.8276 0.0000
0.1379 1.8621 0.0000
0.1379 1.8966 0.0000
0.1379 1.9310 0.0000
0.1379 1.9655 0.0000
0.1379 2.0000 0.0000
0.2069 1.0000 0.0000
0.2069 1.0345 0.0000
0.2069 1.0690 0.0000
0.2069 1.1034 0.0000
0.2069 1.1379 0.0000
0.2069 1.1724 0.0000
0.2069 1.2069 0.0000
0.2069 1.2414 0.0000
0.2069 1.2759 0.0000
0.2069 1.3103 0.0000
0.2069 1.3448 0.0000
0.2069 1.3793 0.0000
0.2069 1.4138 0.0000
0.2069 1.4483 0.0000
0.2069 1.4828 0.0000
0.2069 1.5172 0.0000
0.2069 1.5517 0.0000
0.2069 1.5862 0.0000
0.2069 1.6207 0.0000
0.2069 1.6552 0.0000
0.2069 1.6897 0.0000
0.2069 1.7241 0.0000
0.2069 1.7586 0.0000
0.2069 1.7931 0.0000
0.2069 1.8276 0.0000
0.2069 1.8621 0.0000
0.2069 1.8966 0.0000
0.2069 1.9310 0.0000
0.2069 1.9655 0.0000
0.2069 2.0000 0.0000
0.2759 1.0000 0.0000
0.2759 1.0345 0.0000
0.2759 1.0690 0.0000
0.2759 1.1034 0.0000
0.2759 1.1379 0.0000
0.2759 1.1724 0.0000
0.2759 1.2069 0.0000
0.2759 1.2414 0.0000
0.2759 1.2759 0.0000
0.2759 1.3103 0.0000
0.2759 1.3448 0.0000
0.2759 1.3793 0.0000
0.2759 1.4138 0.0000
0.2759 1.4483 0.0000
0.2759 1.4828 0.0000
0.2759 1.5172 0.0000
0.2759 1.5517 0.0000
0.2759 1.5862 0.0000
0.2759 1.6207 0.0000
0.2759 1.6552 0.0000
0.2759 1.6897 0.0000
0.2759 1.7241 0.0000
0.2759 1.7586 0.0000
0.2759 1.7931 0.0000
0.2759 1.8276 0.0000
0.2759 1.8621 0.0000
0.2759 1.8966 0.0000
0.2759 1.9310 0.0000
0.2759 1.9655 0.0000
0.2759 2.0000 0.0000
0.3448 1.0000 0.0000
0.3448 1.0345 0.0000
0.3448 1.0690 0.0000
0.3448 1.1034 0.0000
0.3448 1.1379 0.0000
0.3448 1.1724 0.0000
0.3448 1.2069 0.0000
0.3448 1.2414 0.0000
0.3448 1.2759 0.0000
0.3448 1.3103 0.0000
0.3448 1.3448 0.0000
0.3448 1.3793 0.0000
0.3448 1.4138 0.0000
0.3448 1.4483 0.0000
0.3448 1.4828 0.0000
0.3448 1.5172 0.0000
0.3448 1.5517 0.0000
0.3448 1.5862 0.0000
0.3448 1.6207 0.0000
0.3448 1.6552 0.0000
0.3448 1.6897 0.0000
0.3448 1.7241 0.0000
0.3448 1.7586 0.0000
0.3448 1.7931 0.0000
0.3448 1.8276 0.0000
0.3448 1.8621 0.0000
0.3448 1.8966 0.0000
0.3448 1.9310 0.0000
0.3448 1.9655 0.0000
0.3448 2.0000 0.0000
0.4138 1.0000 0.0000
0.4138 1.0345 0.0000
0.4138 1.0690 0.0000
0.4138 1.1034 0.0000
0.4138 1.1379 0.0000
0.4138 1.1724 0.0000
0.4138 1.2069 0.0000
0.4138 1.2414 0.0000
0.4138 1.2759 0.0000
0.4138 1.3103 0.0000
0.4138 1.3448 0.0000
0.4138 1.3793 0.0000
0.4138 1.4138 0.0000
0.4138 1.4483 0.0000
0.4138 1.4828 0.0000
0.4138 1.5172 0.0000
0.4138 1.5517 0.0000
0.4138 1.5862 0.0000
0.4138 1.6207 0.0000
0.4138 1.6552 0.0000
0.4138 1.6897 0.0000
0.4138 1.7241 0.0000
0.4138 1.7586 0.0000
0.4138 1.7931 0.0000
0.4138 1.8276 0.0000
0.4138 1.8621 0.0000
0.4138 1.8966 0.0000
0.4138 1.9310 0.0000
0.4138 1.9655 0.0000
0.4138 2.0000 0.0000
0.4828 1.0000 0.0000
0.4828 1.0345 0.0000
0.4828 1.0690 0.0000
0.4828 1.1034 0.0000
0.4828 1.1379 0.0000
0.4828 1.1724 0.0000
0.4828 1.2069 0.0000
0.4828 1.2414 0.0000
0.4828 1.2759 0.0000
0.4828 1.3103 0.0000
0.4828 1.3448 0.0000
0.4828 1.3793 0.0000
0.4828 1.4138 0.0000
0.4828 1.4483 0.0000
0.4828 1.4828 0.0000
0.4828 1.5172 0.0000
0.4828 1.5517 0.0000
0.4828 1.5862 0.0000
0.4828 1.6207 0.0000
0.4828 1.6552 0.0000
0.4828 1.6897 0.0000
0.4828 1.7241 0.0000
0.4828 1.7586 0.0000
0.4828 1.7931 0.0000
0.4828 1.8276 0.0000
0.4828 1.8621 0.0000
0.4828 1.8966 0.0000
0.4828 1.9310 0.0000
0.4828 1.9655 0.0000
0.4828 2.0000 0.0000
0.5517 1.0000 0.0000
0.5517 1.0345 0.0000
0.5517 1.0690 0.0000
0.5517 1.1034 0.0000
0.5517 1.1379 0.0000
0.5517 1.1724 0.0000
0.5517 1.2069 0.0000
0.5517 1.2414 0.0000
0.5517 1.2759 0.0000
0.5517 1.3103 0.0000
0.5517 1.3448 0.0000
0.5517 1.3793 0.0000
0.5517 1.4138 0.0000
0.5517 1.4483 0.0000
0.5517 1.4828 0.0000
0.5517 1.5172 0.0000
0.5517 1.5517 0.0000
0.5517 1.5862 0.0000
0.5517 1.6207 0.0000
0.5517 1.6552 0.0000
0.5517 1.6897 0.0000
0.5517 1.7241 0.0000
0.5517 1.7586 0.0000
0.5517 1.7931 0.0000
0.5517 1.8276 0.0000
0.5517 1.8621 0.0000
0.5517 1.8966 0.0000
0.5517 1.9310 0.0000
0.5517 1.9655 0.0000
0.5517 2.0000 0.0000
0.6207 1.0000 0.0000
0.6207 1.0345 0.0000
0.6207 1.0690 0.0000
0.6207 1.1034 0.0000
0.6207 1.1379 0.0000
0.6207 1.1724 0.0000
0.6207 1.2069 0.0000
0.6207 1.2414 0.0000
0.6207 1.2759 0.0000
0.6207 1.3103 0.0000
0.6207 1.3448 0.0000
0.6207 1.3793 0.0000
0.6207 1.4138 0.0000
0.6207 1.4483 0.0000
0.6207 1.4828 0.0000
0.6207 1.5172 0.0000
0.6207 1.5517 0.0000
0.6207 1.5862 0.0000
0.6207 1.6207 0.0000
0.6207 1.6552 0.0000
0.6207 1.6897 0.0000
0.6207 1.7241 0.0000
0.6207 1.7586 0.0000
0.6207 1.7931 0.0000
0.6207 1.8276 0.0000
0.6207 1.8621 0.0000
0.6207 1.8966 0.0000
0.6207 1.9310 0.0000
0.6207 1.9655 0.0000
0.6207 2.0000 0.0000
0.6897 1.0000 0.0000
0.6897 1.0345 0.0000
0.6897 1.0690 0.0000
0.6897 1.1034 0.0000
0.6897 1.1379 0.0000
0.6897 1.1724 0.0000
0.6897 1.2069 0.0000
0.6897 1.2414 0.0000
0.6897 1.2759 0.0000
0.6897 1.3103 0.0000
0.6897 1.3448 0.0000
0.6897 1.3793 0.0000
0.6897 1.4138 0.0000
0.6897 1.4483 0.0000
0.6897 1.4828 0.0000
0.6897 1.5172 0.0000
0.6897 1.5517 0.0000
0.6897 1.5862 0.0000
0.6897 1.6207 0.0000
0.6897 1.6552 0.0000
0.6897 1.6897 0.0000
0.6897 1.7241 0.0000
0.6897 1.7586 0.0000
0.6897 1.7931 0.0000
0.6897 1.8276 0.0000
0.6897 1.8621 0.0000
0.6897 1.8966 0.0000
0.6897 1.9310 0.0000
0.6897 1.9655 0.0000
0.6897 2.0000 0.0000
0.7586 1.0000 0.0000
0.7586 1.0345 0.0000
0.7586 1.0690 0.0000
0.7586 1.1034 0.0000
0.7586 1.1379 0.0000
0.7586 1.1724 0.0000
0.7586 1.2069 0.0000
0.7586 1.2414 0.0000
0.7586 1.2759 0.0000
0.7586 1.3103 0.0000
0.7586 1.3448 0.0000
0.7586 1.3793 0.0000
0.7586 1.4138 0.0000
0.7586 1.4483 0.0000
0.7586 1.4828 0.0000
0.7586 1.5172 0.0000
0.7586 1.5517 0.0000
0.7586 1.5862 0.0000
0.7586 1.6207 0.0000
0.7586 1.6552 0.0000
0.7586 1.6897 0.0000
0.7586 1.7241 0.0000
0.7586 1.7586 0.0000
0.7586 1.7931 0.0000
0.7586 1.8276 0.0000
0.7586 1.8621 0.0000
0.7586 1.8966 0.0000
0.7586 1.9310 0.0000
0.7586 1.9655 0.0000
0.7586 2.0000 0.0000
0.8276 1.0000 0.0000
0.8276 1.0345 0.0000
0.8276 1.0690 0.0000
0.8276 1.1034 0.0000
0.8276 1.1379 0.0000
0.8276 1.1724 0.0000
0.8276 1.2069 0.0000
0.8276 1.2414 0.0000
0.8276 1.2759 0.0000
0.8276 1.3103 0.0000
0.8276 1.3448 0.0000
0.8276 1.3793 0.0000
0.8276 1.4138 0.0000
0.8276 1.4483 0.0000
0.8276 1.4828 0.0000
0.8276 1.5172 0.0000
0.8276 1.5517 0.0000
0.8276 1.5862 0.0000
0.8276 1.6207 0.0000
0.8276 1.6552 0.0000
0.8276 1.6897 0.0000
0.8276 1.7241 0.0000
0.8276 1.7586 0.0000
0.8276 1.7931 0.0000
0.8276 1.8276 0.0000
0.8276 1.8621 0.0000
0.8276 1.8966 0.0000
0.8276 1.9310 0.0000
0.8276 1.9655 0.0000
0.8276 2.0000 0.0000
0.8966 1.0000 0.0000
0.8966 1.0345 0.0000
0.8966 1.0690 0.0000
0.8966 1.1034 0.0000
0.8966 1.1379 0.0000
0.8966 1.1724 0.0000
0.8966 1.2069 0.0000
0.8966 1.2414 0.0000
0.8966 1.2759 0.0000
0.8966 1.3103 0.0000
0.8966 1.3448 0.0000
0.8966 1.3793 0.0000
0.8966 1.4138 0.0000
0.8966 1.4483 0.0000
0.8966 1.4828 0.0000
0.8966 1.5172 0.0000
0.8966 1.5517 0.0000
0.8966 1.5862 0.0000
0.8966 1.6207 0.0000
0.8966 1.6552 0.0000
0.8966 1.6897 0.0000
0.8966 1.7241 0.0000
0.8966 1.7586 0.0000
0.8966 1.7931 0.0000
0.8966 1.8276 0.0000
0.8966 1.8621 0.0000
0.8966 1.8966 0.0000
0.8966 1.9310 0.0000
0.8966 1.9655 0.0000
0.8966 2.0000 0.0000
0.9655 1.0000 0.0000
0.9655 1.0345 0.0000
0.9655 1.0690 0.0000
0.9655 1.1034 0.0000
0.9655 1.1379 0.0000
0.9655 1.1724 0.0000
0.9655 1.2069 0.0000
0.9655 1.2414 0.0000
0.9655 1.2759 0.0000
0.9655 1.3103 0.0000
0.9655 1.3448 0.0000
0.9655 1.3793 0.0000
0.9655 1.4138 0.0000
0.9655 1.4483 0.0000
0.9655 1.4828 0.0000
0.9655 1.5172 0.0000
0.9655 1.5517 0.0000
0.9655 1.5862 0.0000
0.9655 1.6207 0.0000
0.9655 1.6552 0.0000
0.9655 1.6897 0.0000
0.9655 1.7241 0.0000
0.9655 1.7586 0.0000
0.9655 1.7931 0.0000
0.9655 1.8276 0.0000
0.9655 1.8621 0.0000
0.9655 1.8966 0.0000
0.9655 1.9310 0.0000
0.9655 1.9655 0.0000
0.9655 2.0000 0.0000
1.0345 1.0000 0.0000
1.0345 1.0345 0.0000
1.0345 1.0690 0.0000
1.0345 1.1034 0.0000
1.0345 1.1379 0.0000
1.0345 1.1724 0.0000
1.0345 1.2069 0.0000
1.0345 1.2414 0.0000
1.0345 1.2759 0.0000
1.0345 1.3103 0.0000
1.0345 1.3448 0.0000
[...]
         <PointData>
            <DataArray Name="fValues" NumberOfComponents="3" format="ascii" type="Float64">
 1.23592e-29  1.43159e-30        00000 
-2.14182e-29 -1.17800e-28        00000 
 6.77759e-28 -3.49469e-28        00000 
-2.12889e-29  9.57998e-28        00000 
 1.01664e-27  5.84567e-27        00000 
 5.24292e-27 -4.19635e-27        00000 
 6.77759e-28 -2.11800e-27        00000 
-1.06870e-26  2.96713e-26        00000 
 1.08441e-26  4.33765e-26        00000 
-4.40926e-25 -4.47079e-26        00000 
 3.25324e-26  6.50648e-26        00000 
 1.74398e-25 -2.06008e-24        00000 
-1.04104e-23 -1.17117e-24        00000 
 3.28247e-24 -8.24425e-23        00000 
-1.04104e-23 -3.20986e-23        00000 
-2.75549e-23 -7.13725e-23        00000 
 1.99879e-22 -8.88352e-23        00000 
-7.58748e-23 -7.77476e-22        00000 
 3.57562e-21  8.88352e-23        00000 
-5.35751e-22 -2.36624e-21        00000 
 5.68545e-21        00000        00000 
 3.72529e-20  6.23373e-20        00000 
 2.84273e-21  5.11691e-20        00000 
 1.64297e-20 -4.91106e-21        00000 
 1.70564e-20  1.47822e-19        00000 
-7.79890e-20 -2.95100e-20        00000 
 3.41127e-20  2.84273e-20        00000 
-6.58414e-20 -2.50484e-21        00000 
-1.14684e-20  2.42271e-19        00000 
-5.73020e-20  1.34982e-19        00000 
 1.43425e-13 -3.02598e-13        00000 
 5.96459e-13 -4.95007e-13        00000 
 1.84250e-12 -9.13696e-13        00000 
 5.04581e-12 -1.31158e-12        00000 
 1.21485e-11 -2.09335e-13        00000 
 2.48775e-11  7.89849e-12        00000 
 3.84129e-11  3.99289e-11        00000 
 1.72263e-11  1.41662e-10        00000 
-1.80574e-10  4.24781e-10        00000 
-1.01169e-09  1.13333e-09        00000 
-3.76065e-09  2.71478e-09        00000 
-1.16415e-08  5.65621e-09        00000 
-3.16503e-08  8.90082e-09        00000 
-7.57481e-08  2.32228e-09        00000 
-1.52432e-07 -6.05624e-08        00000 
-2.13081e-07 -3.41047e-07        00000 
 5.92355e-08 -1.27977e-06        00000 
 1.89872e-06 -3.74749e-06        00000 
 9.04731e-06 -8.46305e-06        00000 
 3.04654e-05 -1.25636e-05        00000 
 8.18645e-05 -5.75478e-07        00000 
 1.74861e-04  6.47602e-05        00000 
 2.77995e-04  2.24433e-04        00000 
 2.74006e-04  4.52223e-04        00000 
 2.62763e-05  5.96379e-04        00000 
-4.01989e-04  4.78904e-04        00000 
-6.76071e-04  1.05404e-04        00000 
-5.67885e-04 -2.96819e-04        00000 
-2.21536e-04 -4.21960e-04        00000 
 1.08534e-03 -5.04918e-04        00000 
-1.24484e-13  6.04188e-13        00000 
-5.42796e-13  1.01130e-12        00000 
-1.65926e-12  2.06074e-12        00000 
-4.58895e-12  3.44689e-12        00000 
-1.11687e-11  2.78120e-12        00000 
-2.31640e-11 -9.99438e-12        00000 
-3.64284e-11 -6.79043e-11        00000 
-1.81860e-11 -2.64716e-10        00000 
 1.64215e-10 -8.38381e-10        00000 
 9.36062e-10 -2.32805e-09        00000 
 3.46952e-09 -5.77232e-09        00000 
 1.05862e-08 -1.25270e-08        00000 
 2.80787e-08 -2.15946e-08        00000 
 6.50800e-08 -1.64563e-08        00000 
 1.27017e-07  8.34396e-08        00000 
 1.78130e-07  5.67346e-07        00000 
 5.70932e-10  2.27055e-06        00000 
-1.27216e-06  7.06946e-06        00000 
-6.53294e-06  1.76090e-05        00000 
-2.43319e-05  3.24976e-05        00000 
-7.51374e-05  2.89758e-05        00000 
-1.95321e-04 -7.03942e-05        00000 
-3.90780e-04 -3.94829e-04        00000 
-5.06429e-04 -9.65149e-04        00000 
-2.01474e-04 -1.43309e-03        00000 
 5.67727e-04 -1.22506e-03        00000 
 1.08572e-03 -2.63509e-04        00000 
 7.96737e-04  7.77367e-04        00000 
 2.60862e-05  1.20952e-03        00000 
-1.46111e-03  1.20780e-03        00000 
 6.14249e-14 -7.85743e-13        00000 
 2.87474e-13 -1.32878e-12        00000 
 8.87785e-13 -2.78181e-12        00000 
 2.49693e-12 -4.85294e-12        00000 
 6.19547e-12 -4.66415e-12        00000 
 1.31131e-11  1.06202e-11        00000 
 2.10470e-11  8.44318e-11        00000 
 1.08703e-11  3.42326e-10        00000 
-9.58575e-11  1.10499e-09        00000 
-5.46032e-10  3.09255e-09        00000 
-1.98322e-09  7.64831e-09        00000 
-5.79556e-09  1.63768e-08        00000 
-1.43154e-08  2.75570e-08        00000 
-2.99539e-08  2.01962e-08        00000 
-5.16146e-08 -1.01097e-07        00000 
-6.73533e-08 -6.66649e-07        00000 
-4.03404e-08 -2.63349e-06        00000 
 1.63437e-07 -8.31834e-06        00000 
 1.33691e-06 -2.20011e-05        00000 
 7.65931e-06 -4.71968e-05        00000 
 3.77747e-05 -6.89451e-05        00000 
 1.44302e-04  1.35932e-06        00000 
 4.49756e-04  4.24793e-04        00000 
 8.75961e-04  1.47821e-03        00000 
 7.32798e-04  2.70814e-03        00000 
-6.15913e-04  2.59892e-03        00000 
-1.62543e-03  4.65808e-04        00000 
-8.27694e-04 -1.79563e-03        00000 
 4.39759e-04 -2.33324e-03        00000 
 1.82184e-03 -1.93252e-03        00000 
 1.03249e-14  8.39433e-13        00000 
 2.79224e-14  1.42680e-12        00000 
 7.08407e-14  3.01786e-12        00000 
 1.48662e-13  5.35788e-12        00000 
 2.33587e-13  5.45651e-12        00000 
 2.32356e-13 -1.04853e-11        00000 
 1.85736e-13 -9.00137e-11        00000 
 1.42382e-12 -3.71785e-10        00000 
 9.35750e-12 -1.20873e-09        00000 
 3.20712e-11 -3.37525e-09        00000 
 3.42668e-11 -8.22975e-09        00000 
-3.03726e-10 -1.70758e-08        00000 
-2.36609e-09 -2.69160e-08        00000 
-1.00948e-08 -1.41085e-08        00000 
-2.94426e-08  1.16477e-07        00000 
-5.01434e-08  6.69709e-07        00000 
 4.21020e-08  2.49850e-06        00000 
 7.16670e-07  7.74693e-06        00000 
 3.20770e-06  2.12044e-05        00000 
 8.65117e-06  5.13991e-05        00000 
 1.14533e-05  1.03912e-04        00000 
-4.19458e-05  1.29986e-04        00000 
-2.83259e-04 -1.55013e-04        00000 
-1.32005e-03 -1.73371e-03        00000 
-2.07741e-03 -4.85912e-03        00000 
-3.33637e-04 -5.96070e-03        00000 
 1.69991e-03 -7.00609e-04        00000 
-2.93830e-04  4.65880e-03        00000 
-1.74451e-03  4.22593e-03        00000 
-1.82367e-03  2.40818e-03        00000 
-7.88062e-14 -7.64291e-13        00000 
-3.35179e-13 -1.29998e-12        00000 
-1.01117e-12 -2.75008e-12        00000 
-2.76791e-12 -4.88987e-12        00000 
-6.66999e-12 -4.96469e-12        00000 
-1.37439e-11  9.88449e-12        00000 
-2.18093e-11  8.42725e-11        00000 
-1.31721e-11  3.48404e-10        00000 
 8.51773e-11  1.13034e-09        00000 
 5.17008e-10  3.12843e-09        00000 
 2.00114e-09  7.47557e-09        00000 
 6.43901e-09  1.49003e-08        00000 
 1.82192e-08  2.14143e-08        00000 
 4.52973e-08  3.75192e-09        00000 
 9.40366e-08 -1.20974e-07        00000 
 1.33298e-07 -5.94846e-07        00000 
-4.65253e-08 -2.05432e-06        00000 
-1.26217e-06 -6.10164e-06        00000 
-5.90326e-06 -1.67622e-05        00000 
-1.96438e-05 -4.40364e-05        00000 
-4.93465e-05 -1.09816e-04        00000 
-9.75432e-05 -2.39850e-04        00000 
 6.01147e-06 -3.07049e-04        00000 
 2.65895e-04  7.08130e-04        00000 
 5.94877e-03  8.11279e-03        00000 
 5.73403e-03  1.60941e-02        00000 
 6.09157e-03  8.91010e-04        00000 
 6.14895e-03 -1.40900e-02        00000 
 6.09822e-03 -7.09485e-03        00000 
-7.61329e-04 -7.75442e-04        00000 
 1.32420e-13  5.65898e-13        00000 
 5.64940e-13  9.61470e-13        00000 
 1.72012e-12  2.00496e-12        00000 
 4.74384e-12  3.50050e-12        00000 
 1.15261e-11  3.28529e-12        00000 
 2.38947e-11 -8.55332e-12        00000 
 3.76236e-11 -6.61397e-11        00000 
 1.89252e-11 -2.68155e-10        00000 
-1.70068e-10 -8.58922e-10        00000 
-9.75266e-10 -2.33986e-09        00000 
-3.63594e-09 -5.45152e-09        00000 
-1.11495e-08 -1.03708e-08        00000 
-2.96310e-08 -1.32106e-08        00000 
-6.83065e-08  4.65055e-09        00000 
-1.30205e-07  1.03234e-07        00000 
-1.67211e-07  4.43402e-07        00000 
 7.62789e-08  1.42075e-06        00000 
 1.51878e-06  4.02171e-06        00000 
 6.96392e-06  1.09340e-05        00000 
 2.37120e-05  3.00166e-05        00000 
 7.05668e-05  8.33539e-05        00000 
 1.74729e-04  2.24277e-04        00000 
 4.62253e-04  5.18326e-04        00000 
 2.43604e-04  5.82319e-04        00000 
 3.42774e-03 -3.99341e-03        00000 
-5.68848e-02 -4.85371e-02        00000 
-4.35388e-02 -5.72121e-04        00000 
-5.86830e-02  4.43699e-02        00000 
 2.21882e-03  2.41624e-03        00000 
 2.09830e-03 -1.74085e-03        00000 
-1.37703e-13 -2.60124e-13        00000 
-5.74226e-13 -4.68259e-13        00000 
-1.77654e-12 -9.75105e-13        00000 
-4.89637e-12 -1.75111e-12        00000 
-1.18932e-11 -1.83646e-12        00000 
-2.45909e-11  3.35869e-12        00000 
-3.81813e-11  2.99554e-11        00000 
-1.58071e-11  1.25091e-10        00000 
 1.91062e-10  4.06094e-10        00000 
 1.05519e-09  1.11387e-09        00000 
 3.85704e-09  2.60279e-09        00000 
 1.15714e-08  4.95780e-09        00000 
 2.98944e-08  6.36912e-09        00000 
 6.64196e-08 -1.65445e-09        00000 
 1.20616e-07 -4.57172e-08        00000 
 1.42991e-07 -1.94825e-07        00000 
-9.36761e-08 -6.15713e-07        00000 
-1.36516e-06 -1.74095e-06        00000 
-6.00873e-06 -4.90499e-06        00000 
-2.09043e-05 -1.44916e-05        00000 
-6.44253e-05 -4.34000e-05        00000 
-1.94186e-04 -1.12400e-04        00000 
-4.84638e-04 -2.10798e-04        00000 
-1.60724e-03  5.89769e-05        00000 
 1.60227e-03  1.49768e-05        00000 
-2.86539e-02  6.31382e-03        00000 
 8.62934e-01 -6.56499e-03        00000 
-1.07825e-02  1.22773e-02        00000 
 1.76216e-05  5.20888e-03        00000 
 1.50380e-04  1.19654e-03        00000 
 3.87749e-16 -2.72752e-14        00000 
-7.08477e-15  2.33176e-13        00000 
-2.17896e-14  1.19517e-12        00000 
-5.98439e-14  4.06852e-12        00000 
-1.44805e-13  1.16764e-11        00000 
-2.97785e-13  2.92753e-11        00000 
-4.56854e-13  6.29642e-11        00000 
-1.64295e-13  1.05641e-10        00000 
 2.40852e-12  7.86396e-11        00000 
 1.30543e-11 -3.56375e-10        00000 
 4.74042e-11 -2.30803e-09        00000 
 1.41637e-10 -8.83164e-09        00000 
 3.64665e-10 -2.71290e-08        00000 
 8.07186e-10 -7.13052e-08        00000 
 1.45718e-09 -1.61602e-07        00000 
 1.69619e-09 -3.05146e-07        00000 
-1.28718e-09 -4.15305e-07        00000 
-1.70608e-08 -5.54353e-08        00000 
-7.44387e-08  2.31734e-06        00000 
-2.57850e-07  1.16674e-05        00000 
-7.93722e-07  4.38355e-05        00000 
-2.37338e-06  1.49171e-04        00000 
-5.97405e-06  4.72138e-04        00000 
-1.87074e-05  1.34709e-03        00000 
 1.56976e-05  3.03840e-03        00000 
-2.08922e-04  5.46289e-03        00000 
 1.00885e-02 -5.40104e-18        00000 
 4.45437e-18 -1.90606e-19        00000 
-2.28144e-18 -1.30293e-19        00000 
 7.59790e-19  1.11461e-19        00000 
 4.05398e-30 -1.05900e-29        00000 
-5.41908e-30  4.14677e-29        00000 
-1.57088e-30 -1.31097e-28        00000 
 4.63947e-30  4.11267e-28        00000 
 2.56468e-29 -6.02398e-28        00000 
-4.11853e-29  4.79248e-27        00000 
-2.10454e-28 -5.02649e-27        00000 
 1.76855e-27  2.68743e-27        00000 
-9.42914e-27  2.74830e-26        00000 
 3.49851e-26 -6.13437e-26        00000 
-6.68977e-26  1.79197e-25        00000 
 1.36106e-25 -2.45375e-25        00000 
-2.01034e-25  2.87877e-25        00000 
 4.37074e-25 -1.07965e-23        00000 
-4.52809e-25  4.06950e-24        00000 
 7.28456e-25  5.88900e-24        00000 
-4.14275e-24 -2.76450e-23        00000 
-5.88900e-24        00000        00000 
 5.94394e-23  7.89236e-23        00000 
-1.88448e-22 -2.51264e-22        00000 
 1.19627e-21 -3.16229e-21        00000 
-5.17054e-21  2.28650e-20        00000 
 2.20399e-20 -4.15138e-20        00000 
-1.14748e-19  7.66776e-20        00000 
 7.36913e-19  5.81028e-20        00000 
-2.23916e-18  2.85120e-19        00000 
 4.27947e-18 -3.26599e-20        00000 
-1.55721e-18 -1.82439e-21        00000 
 5.05145e-19  6.86612e-21        00000 
-3.05551e-19 -1.85931e-20        00000 
-7.74663e-31  5.98864e-30        00000 
 5.62670e-31 -1.23171e-29        00000 
-1.05455e-33  3.27503e-29        00000 
 7.66809e-31 -7.96719e-29        00000 
-2.26307e-30  2.46484e-28        00000 
-1.69817e-29 -5.51309e-28        00000 
 1.40443e-28  5.76999e-28        00000 
-7.02590e-28  9.66790e-28        00000 
 2.56518e-27 -3.97537e-27        00000 
-6.47720e-27  1.50126e-26        00000 
 1.34015e-26 -3.38496e-26        00000 
-2.40350e-26  9.70085e-26        00000 
 4.18784e-26 -4.96511e-25        00000 
-6.82830e-26  1.25524e-24        00000 
 9.15249e-26 -4.76495e-25        00000 
-1.80378e-25 -1.47435e-24        00000 
-3.54656e-25  3.53795e-24        00000 
 4.43210e-24        00000        00000 
-2.16938e-23  9.46402e-24        00000 
 1.06163e-22 -2.06283e-22        00000 
-4.89119e-22  1.48634e-21        00000 
 2.18939e-21 -3.95132e-21        00000 
-1.04556e-20  7.45601e-21        00000 
 5.08466e-20 -7.93602e-21        00000 
-1.73743e-19  1.18543e-20        00000 
 3.95613e-19 -2.17063e-20        00000 
-5.02920e-19  1.44613e-20        00000 
 3.37180e-19 -2.37322e-21        00000 
-1.40563e-19 -2.60407e-22        00000 
 8.56228e-20  4.55634e-21        00000 
 1.10240e-31 -1.75469e-30        00000 
-7.98299e-32  3.01846e-30        00000 
 4.40599e-32 -7.76289e-30        00000 
-9.16217e-33  1.98761e-29        00000 
-1.24158e-30 -4.54063e-29        00000 
 1.09250e-29  7.24264e-29        00000 
-5.36323e-29 -7.23681e-30        00000 
 1.98805e-28 -2.83920e-28        00000 
-5.61048e-28  1.09177e-27        00000 
 1.29336e-27 -3.34984e-27        00000 
-2.53746e-27  9.69819e-27        00000 
 4.54830e-27 -3.51183e-26        00000 
-7.71575e-27  9.88947e-26        00000 
 1.11653e-26 -1.36399e-25        00000 
-1.28443e-26  2.91538e-26        00000 
-2.96890e-26  1.37820e-25        00000 
 3.56824e-25  8.42984e-25        00000 
-2.04746e-24  1.96159e-24        00000 
 9.82626e-24 -1.65097e-23        00000 
-4.50189e-23  9.36999e-23        00000 
 2.00739e-22 -2.77736e-22        00000 
-8.99448e-22  7.23918e-22        00000 
 3.85567e-21 -1.14850e-21        00000 
-1.34247e-20  1.54912e-21        00000 
 3.45828e-20 -2.39094e-21        00000 
-6.13266e-20  2.87560e-21        00000 
 7.19000e-20 -2.20521e-21        00000 
-5.57175e-20  8.55543e-22        00000 
 3.15912e-20  5.35365e-23        00000 
-2.14549e-20 -3.51560e-22        00000 
-2.26966e-32  2.13023e-32        00000 
 2.36727e-32 -2.01617e-31        00000 
 1.58332e-32  1.25937e-30        00000 
-1.49135e-31 -2.57209e-30        00000 
 8.32064e-31  5.21199e-30        00000 
-3.90616e-30 -3.24423e-30        00000 
 1.53659e-29 -1.51476e-29        00000 
-4.71490e-29  8.58489e-29        00000 
 1.16718e-28 -2.61904e-28        00000 
-2.48316e-28  5.22173e-28        00000 
 4.82500e-28 -3.05929e-27        00000 
-8.37131e-28  8.25207e-27        00000 
 1.33930e-27 -2.21845e-26        00000 
-1.39196e-27  2.57675e-26        00000 
-2.58473e-27 -5.86118e-27        00000 
 3.12453e-26  4.77770e-26        00000 
-1.75883e-25 -3.05511e-25        00000 
 8.87300e-25 -9.91917e-25        00000 
-4.09961e-24  8.91084e-24        00000 
 1.79330e-23 -2.69253e-23        00000 
-7.62955e-23  6.39803e-23        00000 
 3.06185e-22 -1.55025e-22        00000 
-1.05956e-21  1.98209e-22        00000 
 2.93786e-21 -2.61122e-22        00000 
-6.18724e-21  3.93526e-22        00000 
 9.61047e-21 -4.30892e-22        00000 
-1.08819e-20  3.40912e-22        00000 
 9.10302e-21 -1.68637e-22        00000 
-6.17763e-21  2.63306e-23        00000 
 4.82319e-21  2.43496e-23        00000 
 3.42807e-33 -2.99451e-32        00000 
-1.08542e-33  8.24805e-32        00000 
-1.18756e-32 -2.35272e-31        00000 
 6.98962e-32  4.78275e-31        00000 
-3.15771e-31 -5.61145e-31        00000 
 1.21814e-30 -5.92036e-31        00000 
-3.90648e-30  5.89813e-30        00000 
 1.04092e-29 -2.09808e-29        00000 
-2.36230e-29  4.72180e-29        00000 
 4.85621e-29 -2.19766e-28        00000 
-8.90951e-29  7.02097e-28        00000 
 1.44194e-28 -1.81811e-27        00000 
-1.61809e-28  3.23507e-27        00000 
-2.04637e-28 -3.38141e-27        00000 
 2.80315e-27  3.55882e-27        00000 
-1.63160e-26 -6.87411e-27        00000 
 8.09627e-26 -7.70177e-26        00000 
-3.64428e-25  5.71228e-25        00000 
 1.56989e-24 -2.17830e-24        00000 
-6.46034e-24  5.85039e-24        00000 
 2.49097e-23 -1.36122e-23        00000 
-8.54785e-23  2.45244e-23        00000 
 2.47283e-22 -3.50722e-23        00000 
-5.78485e-22  4.78535e-23        00000 
 1.06602e-21 -6.15260e-23        00000 
-1.52722e-21  6.66690e-23        00000 
 1.69864e-21 -5.38847e-23        00000 
-1.49744e-21  3.04848e-23        00000 
 1.14569e-21 -9.74699e-24        00000 
-9.77501e-22  1.79339e-24        00000 
-1.78467e-34  1.13922e-32        00000 
-7.25565e-34 -1.99588e-32        00000 
 5.64928e-33  4.38048e-32        00000 
-2.57434e-32 -6.60839e-32        00000 
 9.84962e-32  7.35121e-33        00000 
-3.23369e-31  3.81508e-31        00000 
 9.07809e-31 -1.70026e-30        00000 
-2.20065e-30  5.32033e-30        00000 
 4.70893e-30 -2.01388e-29        00000 
-9.15725e-30  5.72102e-29        00000 
 1.54285e-29 -1.54715e-28        00000 
-1.86893e-29  3.23491e-28        00000 
-1.32511e-29 -4.83162e-28        00000 
 2.48333e-28  5.04451e-28        00000 
-1.47571e-27 -1.89264e-29        00000 
 7.22442e-27 -6.67313e-27        00000 
-3.24338e-26  5.42062e-26        00000 
 1.36259e-25 -1.68524e-25        00000 
-5.47230e-25  5.03322e-25        00000 
 2.05720e-24 -1.23523e-24        00000 
-7.00760e-24  2.51448e-24        00000 
 2.08140e-23 -4.21524e-24        00000 
-5.21536e-23  6.13061e-24        00000 
 1.07716e-22 -8.22450e-24        00000 
-1.80880e-22  1.01434e-23        00000 
 2.45581e-22 -1.04516e-23        00000 
-2.70680e-22  8.64226e-24        00000 
 2.48472e-22 -5.37450e-24        00000 
-2.06595e-22  2.40339e-24        00000 
 1.86227e-22 -1.22918e-24        00000 
-1.20057e-34 -2.94068e-33        00000 
 4.43759e-34  4.20714e-33        00000 
-2.08992e-33 -6.91823e-33        00000 
 8.05622e-33  5.10623e-33        00000 
-2.68823e-32  2.20588e-32        00000 
 7.82715e-32 -1.32836e-31        00000 
-1.99782e-31  4.87607e-31        00000 
 4.52459e-31 -1.72646e-30        00000 
-9.32054e-31  6.27284e-30        00000 
 1.61515e-30 -1.33514e-29        00000 
-2.12348e-30  3.03570e-29        00000 
-5.03063e-31 -5.44729e-29        00000 
 2.14641e-29  6.92994e-29        00000 
-1.31485e-28 -9.93088e-30        00000 
 6.40353e-28 -5.25424e-28        00000 
-2.83536e-27  3.46496e-27        00000 
 1.17559e-26 -1.13069e-26        00000 
-4.64425e-26  4.21686e-26        00000 
 1.71581e-25 -1.10203e-25        00000 
-5.81362e-25  2.44697e-25        00000 
 1.75718e-24 -4.59962e-25        00000 
-4.61631e-24  7.40855e-25        00000 
 1.03308e-23 -1.06166e-24        00000 
-1.94320e-23  1.39098e-24        00000 
 3.04980e-23 -1.58910e-24        00000 
-3.98802e-23  1.66811e-24        00000 
 4.37873e-23 -1.40051e-24        00000 
-4.15196e-23  9.38764e-25        00000 
 3.66155e-23 -5.15304e-25        00000 
-3.41856e-23  3.46077e-25        00000 
 7.13278e-35  6.36833e-34        00000 
-1.74853e-34 -7.67398e-34        00000 
 6.62336e-34  7.96065e-34        00000 
-2.25064e-33  9.28173e-34        00000 
 6.83383e-33 -9.00794e-33        00000 
-1.80250e-32  4.25206e-32        00000 
 4.23472e-32 -1.50114e-31        00000 
-9.00700e-32  4.89319e-31        00000 
 1.64658e-31 -1.21137e-30        00000 
-2.32780e-31  2.56128e-30        00000 
 3.10889e-32 -4.97012e-30        00000 
 1.76518e-30  1.17162e-29        00000 
-1.14611e-29 -1.26680e-29        00000 
 5.61850e-29 -1.97430e-29        00000 
-2.48492e-28  2.93859e-28        00000 
 1.01883e-27 -1.06353e-27        00000 
-3.95306e-27  3.39983e-27        00000 