<?xml version="1.0" encoding="utf-8"?>
<VTKFile byte_order="LittleEndian" type="UnstructuredGrid" version="0.1">
   <UnstructuredGrid>
      <Piece NumberOfCells="3364" NumberOfPoints="1741">
         <Points>
            <DataArray Name="Points" NumberOfComponents="3" format="ascii" type="Float32">
0.0000 1.0000 0.0000
0.0000 1.0345 0.0000
0.0000 1.0690 0.0000
0.0000 1.1034 0.0000
0.0000 1.1379 0.0000
0.0000 1.1724 0.0000
0.0000 1.2069 0.0000
0.0000 1.2414 0.0000
0.0000 1.2759 0.0000
0.0000 1.3103 0.0000
0.0000 1.3448 0.0000
0.0000 1.3793 0.0000
0.0000 1.4138 0.0000
0.0000 1.4483 0.0000
0.0000 1.4828 0.0000
0.0000 1.5172 0.0000
0.0000 1.5517 0.0000
0.0000 1.5862 0.0000
0.0000 1.6207 0.0000
0.0000 1.6552 0.0000
0.0000 1.6897 0.0000
0.0000 1.7241 0.0000
0.0000 1.7586 0.0000
0.0000 1.7931 0.0000
0.0000 1.8276 0.0000
0.0000 1.8621 0.0000
0.0000 1.8966 0.0000
0.0000 1.9310 0.0000
0.0000 1.9655 0.0000
0.0000 2.0000 0.0000
0.0690 1.0000 0.0000
0.0690 1.0345 0.0000
0.0690 1.0690 0.0000
0.0690 1.1034 0.0000
0.0690 1.1379 0.0000
0.0690 1.1724 0.0000
0.0690 1.2069 0.0000
0.0690 1.2414 0.0000
0.0690 1.2759 0.0000
0.0690 1.3103 0.0000
0.0690 1.3448 0.0000
0.0690 1.3793 0.0000
0.0690 1.4138 0.0000
0.0690 1.4483 0.0000
0.0690 1.4828 0.0000
0.0690 1.5172 0.0000
0.0690 1.5517 0.0000
0.0690 1.5862 0.0000
0.0690 1.6207 0.0000
0.0690 1.6552 0.0000
0.0690 1.6897 0.0000
0.0690 1.7241 0.0000
0.0690 1.7586 0.0000
0.0690 1.7931 0.0000
0.0690 1.8276 0.0000
0.0690 1.8621 0.0000
0.0690 1.8966 0.0000
0.0690 1.9310 0.0000
0.0690 1.9655 0.0000
0.0690 2.0000 0.0000
0.1379 1.0000 0.0000
0.1379 1.0345 0.0000
0.1379 1.0690 0.0000
0.1379 1.1034 0.0000
0.1379 1.1379 0.0000
0.1379 1.1724 0.0000
0.1379 1.2069 0.0000
0.1379 1.2414 0.0000
0.1379 1.2759 0.0000
0.1379 1.3103 0.0000
0.1379 1.3448 0.0000
0.1379 1.3793 0.0000
0.1379 1.4138 0.0000
0.1379 1.4483 0.0000
0.1379 1.4828 0.0000
0.1379 1.5172 0.0000
0.1379 1.5517 0.0000
0.1379 1.5862 0.0000
0.1379 1.6207 0.0000
0.1379 1.6552 0.0000
0.1379 1.6897 0.0000
0.1379 1.7241 0.0000
0.1379 1.7586 0.0000
0.1379 1.7931 0.0000
0.1379 1.8276 0.0000
0.1379 1.8621 0.0000
0.1379 1.8966 0.0000
0.1379 1.9310 0.0000
0.1379 1.9655 0.0000
0.1379 2.0000 0.0000
0.2069 1.0000 0.0000
0.2069 1.0345 0.0000
0.2069 1.0690 0.0000
0.2069 1.1034 0.0000
0.2069 1.1379 0.0000
0.2069 1.1724 0.0000
0.2069 1.2069 0.0000
0.2069 1.2414 0.0000
0.2069 1.2759 0.0000
0.2069 1.3103 0.0000
0.2069 1.3448 0.0000
0.2069 1.3793 0.0000
0.2069 1.4138 0.0000
0.2069 1.4483 0.0000
0.2069 1.4828 0.0000
0.2069 1.5172 0.0000
0.2069 1.5517 0.0000
0.2069 1.5862 0.0000
0.2069 1.6207 0.0000
0.2069 1.6552 0.0000
0.2069 1.6897 0.0000
0.2069 1.7241 0.0000
0.2069 1.7586 0.0000
0.2069 1.7931 0.0000
0.2069 1.8276 0.0000
0.2069 1.8621 0.0000
0.2069 1.8966 0.0000
0.2069 1.9310 0.0000
0.2069 1.9655 0.0000
0.2069 2.0000 0.0000
0.2759 1.0000 0.0000
0.2759 1.0345 0.0000
0.2759 1.0690 0.0000
0.2759 1.1034 0.0000
0.2759 1.1379 0.0000
0.2759 1.1724 0.0000
0.2759 1.2069 0.0000
0.2759 1.2414 0.0000
0.2759 1.2759 0.0000
0.2759 1.3103 0.0000
0.2759 1.3448 0.0000
0.2759 1.3793 0.0000
0.2759 1.4138 0.0000
0.2759 1.4483 0.0000
0.2759 1.4828 0.0000
0.2759 1.5172 0.0000
0.2759 1.5517 0.0000
0.2759 1.5862 0.0000
0.2759 1.6207 0.0000
0.2759 1.6552 0.0000
0.2759 1.6897 0.0000
0.2759 1.7241 0.0000
0.2759 1.7586 0.0000
0.2759 1.7931 0.0000
0.2759 1.8276 0.0000
0.2759 1.8621 0.0000
0.2759 1.8966 0.0000
0.2759 1.9310 0.0000
0.2759 1.9655 0.0000
0.2759 2.0000 0.0000
0.3448 1.0000 0.0000
0.3448 1.0345 0.0000
0.3448 1.0690 0.0000
0.3448 1.1034 0.0000
0.3448 1.1379 0.0000
0.3448 1.1724 0.0000
0.3448 1.2069 0.0000
0.3448 1.2414 0.0000
0.3448 1.2759 0.0000
0.3448 1.3103 0.0000
0.3448 1.3448 0.0000
0.3448 1.3793 0.0000
0.3448 1.4138 0.0000
0.3448 1.4483 0.0000
0.3448 1.4828 0.0000
0.3448 1.5172 0.0000
0.3448 1.5517 0.0000
0.3448 1.5862 0.0000
0.3448 1.6207 0.0000
0.3448 1.6552 0.0000
0.3448 1.6897 0.0000
0.3448 1.7241 0.0000
0.3448 1.7586 0.0000
0.3448 1.7931 0.0000
0.3448 1.8276 0.0000
0.3448 1.8621 0.0000
0.3448 1.8966 0.0000
0.3448 1.9310 0.0000
0.3448 1.9655 0.0000
0.3448 2.0000 0.0000
0.4138 1.0000 0.0000
0.4138 1.0345 0.0000
0.4138 1.0690 0.0000
0.4138 1.1034 0.0000
0.4138 1.1379 0.0000
0.4138 1.1724 0.0000
0.4138 1.2069 0.0000
0.4138 1.2414 0.0000
0.4138 1.2759 0.0000
0.4138 1.3103 0.0000
0.4138 1.3448 0.0000
0.4138 1.3793 0.0000
0.4138 1.4138 0.0000
0.4138 1.4483 0.0000
0.4138 1.4828 0.0000
0.4138 1.5172 0.0000
0.4138 1.5517 0.0000
0.4138 1.5862 0.0000
0.4138 1.6207 0.0000
0.4138 1.6552 0.0000
0.4138 1.6897 0.0000
0.4138 1.7241 0.0000
0.4138 1.7586 0.0000
0.4138 1.7931 0.0000
0.4138 1.8276 0.0000
0.4138 1.8621 0.0000
0.4138 1.8966 0.0000
0.4138 1.9310 0.0000
0.4138 1.9655 0.0000
0.4138 2.0000 0.0000
0.4828 1.0000 0.0000
0.4828 1.0345 0.0000
0.4828 1.0690 0.0000
0.4828 1.1034 0.0000
0.4828 1.1379 0.0000
0.4828 1.1724 0.0000
0.4828 1.2069 0.0000
0.4828 1.2414 0.0000
0.4828 1.2759 0.0000
0.4828 1.3103 0.0000
0.4828 1.3448 0.0000
0.4828 1.3793 0.0000
0.4828 1.4138 0.0000
0.4828 1.4483 0.0000
0.4828 1.4828 0.0000
0.4828 1.5172 0.0000
0.4828 1.5517 0.0000
0.4828 1.5862 0.0000
0.4828 1.6207 0.0000
0.4828 1.6552 0.0000
0.4828 1.6897 0.0000
0.4828 1.7241 0.0000
0.4828 1.7586 0.0000
0.4828 1.7931 0.0000
0.4828 1.8276 0.0000
0.4828 1.8621 0.0000
0.4828 1.8966 0.0000
0.4828 1.9310 0.0000
0.4828 1.9655 0.0000
0.4828 2.0000 0.0000
0.5517 1.0000 0.0000
0.5517 1.0345 0.0000
0.5517 1.0690 0.0000
0.5517 1.1034 0.0000
0.5517 1.1379 0.0000
0.5517 1.1724 0.0000
0.5517 1.2069 0.0000
0.5517 1.2414 0.0000
0.5517 1.2759 0.0000
0.5517 1.3103 0.0000
0.5517 1.3448 0.0000
0.5517 1.3793 0.0000
0.5517 1.4138 0.0000
0.5517 1.4483 0.0000
0.5517 1.4828 0.0000
0.5517 1.5172 0.0000
0.5517 1.5517 0.0000
0.5517 1.5862 0.0000
0.5517 1.6207 0.0000
0.5517 1.6552 0.0000
0.5517 1.6897 0.0000
0.5517 1.7241 0.0000
0.5517 1.7586 0.0000
0.5517 1.7931 0.0000
0.5517 1.8276 0.0000
0.5517 1.8621 0.0000
0.5517 1.8966 0.0000
0.5517 1.9310 0.0000
0.5517 1.9655 0.0000
0.5517 2.0000 0.0000
0.6207 1.0000 0.0000
0.6207 1.0345 0.0000
0.6207 1.0690 0.0000
0.6207 1.1034 0.0000
0.6207 1.1379 0.0000
0.6207 1.1724 0.0000
0.6207 1.2069 0.0000
0.6207 1.2414 0.0000
0.6207 1.2759 0.0000
0.6207 1.3103 0.0000
0.6207 1.3448 0.0000
0.6207 1.3793 0.0000
0.6207 1.4138 0.0000
0.6207 1.4483 0.0000
0.6207 1.4828 0.0000
0.6207 1.5172 0.0000
0.6207 1.5517 0.0000
0.6207 1.5862 0.0000
0.6207 1.6207 0.0000
0.6207 1.6552 0.0000
0.6207 1.6897 0.0000
0.6207 1.7241 0.0000
0.6207 1.7586 0.0000
0.6207 1.7931 0.0000
0.6207 1.8276 0.0000
0.6207 1.8621 0.0000
0.6207 1.8966 0.0000
0.6207 1.9310 0.0000
0.6207 1.9655 0.0000
0.6207 2.0000 0.0000
0.6897 1.0000 0.0000
0.6897 1.0345 0.0000
0.6897 1.0690 0.0000
0.6897 1.1034 0.0000
0.6897 1.1379 0.0000
0.6897 1.1724 0.0000
0.6897 1.2069 0.0000
0.6897 1.2414 0.0000
0.6897 1.2759 0.0000
0.6897 1.3103 0.0000
0.6897 1.3448 0.0000
0.6897 1.3793 0.0000
0.6897 1.4138 0.0000
0.6897 1.4483 0.0000
0.6897 1.4828 0.0000
0.6897 1.5172 0.0000
0.6897 1.5517 0.0000
0.6897 1.5862 0.0000
0.6897 1.6207 0.0000
0.6897 1.6552 0.0000
0.6897 1.6897 0.0000
0.6897 1.7241 0.0000
0.6897 1.7586 0.0000
0.6897 1.7931 0.0000
0.6897 1.8276 0.0000
0.6897 1.8621 0.0000
0.6897 1.8966 0.0000
0.6897 1.9310 0.0000
0.6897 1.9655 0.0000
0.6897 2.0000 0.0000
0.7586 1.0000 0.0000
0.7586 1.0345 0.0000
0.7586 1.0690 0.0000
0.7586 1.1034 0.0000
0.7586 1.1379 0.0000
0.7586 1.1724 0.0000
0.7586 1.2069 0.0000
0.7586 1.2414 0.0000
0.7586 1.2759 0.0000
0.7586 1.3103 0.0000
0.7586 1.3448 0.0000
0.7586 1.3793 0.0000
0.7586 1.4138 0.0000
0.7586 1.4483 0.0000
0.7586 1.4828 0.0000
0.7586 1.5172 0.0000
0.7586 1.5517 0.0000
0.7586 1.5862 0.0000
0.7586 1.6207 0.0000
0.7586 1.6552 0.0000
0.7586 1.6897 0.0000
0.7586 1.7241 0.0000
0.7586 1.7586 0.0000
0.7586 1.7931 0.0000
0.7586 1.8276 0.0000
0.7586 1.8621 0.0000
0.7586 1.8966 0.0000
0.7586 1.9310 0.0000
0.7586 1.9655 0.0000
0.7586 2.0000 0.0000
0.8276 1.0000 0.0000
0.8276 1.0345 0.0000
0.8276 1.0690 0.0000
0.8276 1.1034 0.0000
0.8276 1.1379 0.0000
0.8276 1.1724 0.0000
0.8276 1.2069 0.0000
0.8276 1.2414 0.0000
0.8276 1.2759 0.0000
0.8276 1.3103 0.0000
0.8276 1.3448 0.0000
0.8276 1.3793 0.0000
0.8276 1.4138 0.0000
0.8276 1.4483 0.0000
0.8276 1.4828 0.0000
0.8276 1.5172 0.0000
0.8276 1.5517 0.0000
0.8276 1.5862 0.0000
0.8276 1.6207 0.0000
0.8276 1.6552 0.0000
0.8276 1.6897 0.0000
0.8276 1.7241 0.0000
0.8276 1.7586 0.0000
0.8276 1.7931 0.0000
0.8276 1.8276 0.0000
0.8276 1.8621 0.0000
0.8276 1.8966 0.0000
0.8276 1.9310 0.0000
0.8276 1.9655 0.0000
0.8276 2.0000 0.0000
0.8966 1.0000 0.0000
0.8966 1.0345 0.0000
0.8966 1.0690 0.0000
0.8966 1.1034 0.0000
0.8966 1.1379 0.0000
0.8966 1.1724 0.0000
0.8966 1.2069 0.0000
0.8966 1.2414 0.0000
0.8966 1.2759 0.0000
0.8966 1.3103 0.0000
0.8966 1.3448 0.0000
0.8966 1.3793 0.0000
0.8966 1.4138 0.0000
0.8966 1.4483 0.0000
0.8966 1.4828 0.0000
0.8966 1.5172 0.0000
0.8966 1.5517 0.0000
0.8966 1.5862 0.0000
0.8966 1.6207 0.0000
0.8966 1.6552 0.0000
0.8966 1.6897 0.0000
0.8966 1.7241 0.0000
0.8966 1.7586 0.0000
0.8966 1.7931 0.0000
0.8966 1.8276 0.0000
0.8966 1.8621 0.0000
0.8966 1.8966 0.0000
0.8966 1.9310 0.0000
0.8966 1.9655 0.0000
0.8966 2.0000 0.0000
0.9655 1.0000 0.0000
0.9655 1.0345 0.0000
0.9655 1.0690 0.0000
0.9655 1.1034 0.0000
0.9655 1.1379 0.0000
0.9655 1.1724 0.0000
0.9655 1.2069 0.0000
0.9655 1.2414 0.0000
0.9655 1.2759 0.0000
0.9655 1.3103 0.0000
0.9655 1.3448 0.0000
0.9655 1.3793 0.0000
0.9655 1.4138 0.0000
0.9655 1.4483 0.0000
0.9655 1.4828 0.0000
0.9655 1.5172 0.0000
0.9655 1.5517 0.0000
0.9655 1.5862 0.0000
0.9655 1.6207 0.0000
0.9655 1.6552 0.0000
0.9655 1.6897 0.0000
0.9655 1.7241 0.0000
0.9655 1.7586 0.0000
0.9655 1.7931 0.0000
0.9655 1.8276 0.0000
0.9655 1.8621 0.0000
0.9655 1.8966 0.0000
0.9655 1.9310 0.0000
0.9655 1.9655 0.0000
0.9655 2.0000 0.0000
1.0345 1.0000 0.0000
1.0345 1.0345 0.0000
1.0345 1.0690 0.0000
1.0345 1.1034 0.0000
1.0345 1.1379 0.0000
1.0345 1.1724 0.0000
1.0345 1.2069 0.0000
1.0345 1.2414 0.0000
1.0345 1.2759 0.0000
1.0345 1.3103 0.0000
1.0345 1.3448 0.0000
[...]
         <PointData>
            <DataArray Name="fValues" NumberOfComponents="3" format="ascii" type="Float64">
 1.23213e-19  5.85112e-19        00000 
-1.14988e-20  1.26487e-19        00000 
 8.52818e-20  6.14029e-19        00000 
 1.50010e-20 -7.42909e-20        00000 
 3.12700e-20  7.73221e-19        00000 
-7.28613e-20  5.84746e-20        00000 
-5.40118e-20 -8.41447e-19        00000 
 2.01800e-20 -4.57175e-20        00000 
-1.64878e-19  1.27923e-19        00000 
-4.77197e-21 -1.25752e-19        00000 
-2.27418e-20  5.40118e-20        00000 
-1.60056e-20  2.83725e-20        00000 
-1.95437e-21  1.35029e-20        00000 
-2.25845e-21  3.59670e-21        00000 
-1.06602e-21  1.77670e-22        00000 
 1.33938e-22  8.92919e-23        00000 
-3.88654e-23 -2.83162e-22        00000 
 6.90648e-23  3.37209e-23        00000 
-8.32830e-24 -2.49849e-23        00000 
 1.47694e-24  1.31344e-23        00000 
 2.34233e-24 -2.42909e-24        00000 
-1.05281e-24 -6.43451e-24        00000 
 6.07272e-25  3.47012e-25        00000 
-1.08999e-26  7.90242e-26        00000 
 5.35429e-26 -5.82872e-26        00000 
 2.37481e-26  2.78610e-26        00000 
-2.03328e-27 -1.35552e-27        00000 
 2.98600e-28  6.99577e-27        00000 
 1.81574e-28 -1.14819e-27        00000 
-4.53935e-29 -2.68291e-27        00000 
 1.56513e-03  3.46427e-04        00000 
 4.95139e-04  4.82123e-04        00000 
 7.27868e-04  1.06294e-03        00000 
 7.01201e-04  1.60424e-03        00000 
 3.38300e-04  1.98106e-03        00000 
-2.21266e-04  2.03381e-03        00000 
-6.99986e-04  1.73148e-03        00000 
-8.90756e-04  1.20691e-03        00000 
-7.89451e-04  6.71307e-04        00000 
-5.42556e-04  2.81154e-04        00000 
-3.02058e-04  7.24685e-05        00000 
-1.39340e-04 -4.95151e-06        00000 
-5.37260e-05 -1.85115e-05        00000 
-1.71044e-05 -1.27178e-05        00000 
-4.19078e-06 -5.96803e-06        00000 
-5.24766e-07 -2.19843e-06        00000 
 2.03176e-07 -6.55315e-07        00000 
 2.09937e-07 -1.52280e-07        00000 
 1.19264e-07 -2.11242e-08        00000 
 5.59050e-08  3.66915e-09        00000 
 2.36065e-08  4.86102e-09        00000 
 9.22801e-09  2.90638e-09        00000 
 3.34610e-09  1.45462e-09        00000 
 1.10610e-09  6.70425e-10        00000 
 3.17640e-10  2.89373e-10        00000 
 6.82263e-11  1.16259e-10        00000 
 2.48252e-12  4.28280e-11        00000 
-8.04762e-12  1.40093e-11        00000 
-5.38230e-12  3.14986e-12        00000 
-1.12822e-11  1.11226e-12        00000 
-1.65990e-03 -6.84971e-04        00000 
-8.84224e-04 -1.11835e-03        00000 
-1.08375e-03 -2.11917e-03        00000 
-1.11016e-03 -3.37144e-03        00000 
-5.62565e-04 -4.29827e-03        00000 
 3.42083e-04 -4.43632e-03        00000 
 1.09121e-03 -3.71082e-03        00000 
 1.31696e-03 -2.47315e-03        00000 
 1.07493e-03 -1.26665e-03        00000 
 6.66207e-04 -4.52831e-04        00000 
 3.30239e-04 -6.65845e-05        00000 
 1.35305e-04  4.72932e-05        00000 
 4.67915e-05  4.92114e-05        00000 
 1.36573e-05  2.76776e-05        00000 
 3.15736e-06  1.17344e-05        00000 
 3.72454e-07  4.04036e-06        00000 
-1.69732e-07  1.13777e-06        00000 
-1.76749e-07  2.43063e-07        00000 
-1.05541e-07  2.21906e-08        00000 
-5.20123e-08 -1.44333e-08        00000 
-2.28150e-08 -1.25735e-08        00000 
-9.11534e-09 -6.99426e-09        00000 
-3.32523e-09 -3.36119e-09        00000 
-1.09102e-09 -1.48806e-09        00000 
-3.06975e-10 -6.14659e-10        00000 
-6.29139e-11 -2.35382e-10        00000 
-5.91388e-13 -8.19799e-11        00000 
 8.35540e-12 -2.49093e-11        00000 
 6.56712e-12 -6.45611e-12        00000 
 1.05159e-11 -1.97826e-12        00000 
 1.42785e-03  8.25805e-04        00000 
 1.11217e-03  1.56025e-03        00000 
 1.59737e-03  3.18438e-03        00000 
 1.76047e-03  5.41784e-03        00000 
 9.65243e-04  7.17475e-03        00000 
-5.39175e-04  7.44615e-03        00000 
-1.72343e-03  6.07892e-03        00000 
-1.89376e-03  3.80361e-03        00000 
-1.33663e-03  1.73331e-03        00000 
-6.83733e-04  4.87914e-04        00000 
-2.67326e-04 -6.21968e-06        00000 
-8.29279e-05 -1.03024e-04        00000 
-2.12543e-05 -7.44783e-05        00000 
-4.77261e-06 -3.64596e-05        00000 
-9.92397e-07 -1.43816e-05        00000 
-1.49756e-07 -4.81138e-06        00000 
 4.70846e-08 -1.36717e-06        00000 
 7.49209e-08 -3.07036e-07        00000 
 5.56880e-08 -3.39500e-08        00000 
 3.16562e-08  1.67001e-08        00000 
 1.51510e-08  1.64837e-08        00000 
 6.33388e-09  9.62634e-09        00000 
 2.34279e-09  4.71550e-09        00000 
 7.60614e-10  2.08551e-09        00000 
 2.06910e-10  8.49675e-10        00000 
 3.90317e-11  3.18639e-10        00000 
-1.51933e-12  1.08129e-10        00000 
-6.36840e-12  3.19168e-11        00000 
-4.75517e-12  8.33587e-12        00000 
-6.96855e-12  2.32292e-12        00000 
-9.29018e-04 -6.91644e-04        00000 
-1.27988e-03 -1.68150e-03        00000 
-2.31836e-03 -4.11344e-03        00000 
-2.94236e-03 -7.87784e-03        00000 
-1.82190e-03 -1.10956e-02        00000 
 9.40599e-04 -1.16197e-02        00000 
 2.97796e-03 -9.11027e-03        00000 
 2.82204e-03 -5.11491e-03        00000 
 1.58393e-03 -1.88275e-03        00000 
 5.77954e-04 -2.85522e-04        00000 
 1.27906e-04  1.61153e-04        00000 
 6.06427e-06  1.62254e-04        00000 
-8.13790e-06  8.76504e-05        00000 
-3.83695e-06  3.73778e-05        00000 
-8.29715e-07  1.39167e-05        00000 
 1.83419e-08  4.68379e-06        00000 
 8.72894e-08  1.41393e-06        00000 
 3.12419e-08  3.57746e-07        00000 
-2.80635e-11  5.60371e-08        00000 
-6.65661e-09 -1.16028e-08        00000 
-4.88461e-09 -1.69335e-08        00000 
-2.39775e-09 -1.08069e-08        00000 
-9.33527e-10 -5.47355e-09        00000 
-2.98013e-10 -2.43762e-09        00000 
-7.45622e-11 -9.85446e-10        00000 
-1.08474e-11 -3.63840e-10        00000 
 2.29124e-12 -1.21064e-10        00000 
 2.83315e-12 -3.49580e-11        00000 
 1.77793e-12 -8.99172e-12        00000 
 2.23162e-12 -2.38646e-12        00000 
 1.52473e-04  2.09899e-04        00000 
 1.24396e-03  1.27830e-03        00000 
 3.14144e-03  4.53968e-03        00000 
 5.02135e-03  1.07252e-02        00000 
 3.76803e-03  1.68882e-02        00000 
-1.80527e-03  1.80844e-02        00000 
-5.59300e-03  1.31211e-02        00000 
-4.17321e-03  6.01027e-03        00000 
-1.58351e-03  1.35086e-03        00000 
-2.40889e-04 -2.33664e-04        00000 
 7.95123e-05 -3.59814e-04        00000 
 7.15426e-05 -1.95908e-04        00000 
 3.08939e-05 -8.18339e-05        00000 
 9.36125e-06 -3.09342e-05        00000 
 1.93617e-06 -1.13267e-05        00000 
 8.80235e-08 -4.03758e-06        00000 
-1.63418e-07 -1.34602e-06        00000 
-1.08355e-07 -3.87457e-07        00000 
-4.82098e-08 -7.79974e-08        00000 
-1.80855e-08  3.29801e-09        00000 
-6.21997e-09  1.48596e-08        00000 
-2.07041e-09  1.05674e-08        00000 
-6.88541e-10  5.55255e-09        00000 
-2.27048e-10  2.49793e-09        00000 
-6.99062e-11  1.00610e-09        00000 
-1.73742e-11  3.67337e-10        00000 
-1.72575e-12  1.20406e-10        00000 
 1.52089e-12  3.41638e-11        00000 
 1.61912e-12  8.61350e-12        00000 
 2.81620e-12  2.20971e-12        00000 
 7.92129e-04  5.28513e-04        00000 
-7.08288e-04 -1.50348e-04        00000 
-3.50827e-03 -3.60138e-03        00000 
-8.25695e-03 -1.32235e-02        00000 
-8.36383e-03 -2.60356e-02        00000 
 3.71886e-03 -3.00675e-02        00000 
 1.11477e-02 -1.80136e-02        00000 
 5.47302e-03 -5.18455e-03        00000 
 7.60883e-04  3.82963e-04        00000 
-3.75456e-04  9.66094e-04        00000 
-2.77580e-04  4.76578e-04        00000 
-1.20737e-04  1.72439e-04        00000 
-4.07850e-05  5.78697e-05        00000 
-1.15883e-05  2.06961e-05        00000 
-2.60051e-06  8.07550e-06        00000 
-2.78042e-07  3.19792e-06        00000 
 1.54331e-07  1.17914e-06        00000 
 1.47348e-07  3.73544e-07        00000 
 8.36706e-08  8.72321e-08        00000 
 3.93655e-08  4.06129e-09        00000 
 1.65712e-08 -1.11431e-08        00000 
 6.40934e-09 -8.94588e-09        00000 
 2.28843e-09 -4.88278e-09        00000 
 7.43280e-10 -2.22655e-09        00000 
 2.09170e-10 -8.98304e-10        00000 
 4.33100e-11 -3.26413e-10        00000 
 5.91901e-13 -1.06156e-10        00000 
-5.79738e-12 -2.98176e-11        00000 
-4.76988e-12 -7.34673e-12        00000 
-7.43776e-12 -1.87700e-12        00000 
-1.57625e-03 -1.14697e-03        00000 
-4.27059e-04 -1.51392e-03        00000 
 1.95042e-03 -8.58573e-05        00000 
 1.12234e-02  1.21531e-02        00000 
 1.85241e-02  4.05047e-02        00000 
-7.65430e-03  6.07632e-02        00000 
-2.20885e-02  1.97543e-02        00000 
-4.09756e-03 -7.02199e-04        00000 
 1.47782e-03 -3.28878e-03        00000 
 8.65725e-04 -1.34243e-03        00000 
 3.63041e-04 -3.79219e-04        00000 
 1.24162e-04 -9.65276e-05        00000 
 3.98369e-05 -2.85707e-05        00000 
 1.19170e-05 -1.12271e-05        00000 
 3.11862e-06 -5.07346e-06        00000 
 5.35481e-07 -2.22826e-06        00000 
-8.70534e-08 -8.78233e-07        00000 
-1.53127e-07 -2.94693e-07        00000 
-1.02608e-07 -7.54452e-08        00000 
-5.32461e-08 -7.74184e-09        00000 
-2.39056e-08  6.55368e-09        00000 
-9.61893e-09  6.10975e-09        00000 
-3.49922e-09  3.48289e-09        00000 
-1.13795e-09  1.61922e-09        00000 
-3.15943e-10  6.59200e-10        00000 
-6.33499e-11  2.40492e-10        00000 
 2.16530e-14  7.84421e-11        00000 
 8.76113e-12  2.20565e-11        00000 
 6.74826e-12  5.13563e-12        00000 
 1.07128e-11  1.45704e-12        00000 
 1.79187e-03  1.15021e-03        00000 
 1.63198e-03  2.70152e-03        00000 
 1.79148e-03  6.15888e-03        00000 
-4.42384e-03  9.13829e-04        00000 
-3.34087e-02 -5.67824e-02        00000 
 1.33685e-02 -1.78040e-01        00000 
 3.47781e-02  1.15964e-02        00000 
-6.56462e-03  1.47284e-02        00000 
-2.13755e-03  4.26739e-03        00000 
-8.38728e-04  8.21500e-04        00000 
-2.71876e-04  1.36670e-04        00000 
-9.14222e-05  2.62829e-05        00000 
-3.08878e-05  9.15560e-06        00000 
-1.01699e-05  4.55910e-06        00000 
-2.97346e-06  2.26534e-06        00000 
-6.25274e-07  1.01371e-06        00000 
 1.96218e-08  3.98070e-07        00000 
 1.22838e-07  1.31984e-07        00000 
 9.20011e-08  3.27638e-08        00000 
 5.02581e-08  2.55531e-09        00000 
 2.32648e-08 -3.51574e-09        00000 
 9.53847e-09 -3.04248e-09        00000 
 3.50631e-09 -1.69827e-09        00000 
 1.14506e-09 -7.79101e-10        00000 
 3.17965e-10 -3.12979e-10        00000 
 6.37644e-11 -1.12301e-10        00000 
 1.88852e-13 -3.57976e-11        00000 
-8.67112e-12 -9.57990e-12        00000 
-5.53361e-12 -9.81481e-13        00000 
-1.08669e-11 -5.15377e-13        00000 
-1.34648e-03 -5.39143e-04        00000 
-1.70092e-03 -2.18601e-03        00000 
-4.69143e-03 -8.91612e-03        00000 
-1.04786e-02 -2.28414e-02        00000 
-1.92751e-02  3.56183e-02        00000 
 8.46481e-03  7.72507e-01        00000 
 3.15984e-04 -2.44786e-01        00000 
-7.16241e-05 -7.33430e-03        00000 
-2.61330e-05 -1.62986e-03        00000 
-1.02684e-05 -4.63344e-04        00000 
-3.36223e-06 -1.62895e-04        00000 
-1.13001e-06 -6.03129e-05        00000 
-3.81387e-07 -2.08414e-05        00000 
-1.25459e-07 -6.08253e-06        00000 
-3.67590e-08 -1.14792e-06        00000 
-7.81385e-09  1.68274e-07        00000 
 1.66654e-10  3.34395e-07        00000 
 1.47200e-09  2.32278e-07        00000 
 1.11403e-09  1.23165e-07        00000 
 6.11235e-10  5.59405e-08        00000 
 2.83793e-10  2.25456e-08        00000 
 1.16663e-10  8.12210e-09        00000 
 4.30051e-11  2.57599e-09        00000 
 1.40937e-11  6.77927e-10        00000 
 3.93555e-12  1.15470e-10        00000 
 8.00575e-13 -1.51967e-11        00000 
 1.04504e-14 -2.82797e-11        00000 
-1.03250e-13 -1.91127e-11        00000 
-7.01154e-14 -1.12689e-11        00000 
-5.58038e-13 -3.91821e-12        00000 
-4.50193e-05  2.33225e-04        00000 
-2.11739e-05  1.20645e-03        00000 
-5.67723e-05  4.16002e-03        00000 
-1.25034e-04  1.79972e-02        00000 
-2.21040e-04  7.35943e-02        00000 
 9.45011e-05  2.11154e-01        00000 
-4.31028e-18 -3.77957e-18        00000 
 4.58645e-19 -4.41965e-18        00000 
-2.70265e-20  1.05108e-18        00000 
 1.01560e-20 -1.56403e-19        00000 
-7.31066e-21  2.28274e-20        00000 
 4.42336e-21 -6.22227e-21        00000 
-1.46064e-21  9.99975e-22        00000 
 3.53238e-22 -4.23746e-22        00000 
-8.70572e-23  5.32975e-23        00000 
 3.18725e-23 -3.39810e-23        00000 
-1.12291e-23  4.74154e-23        00000 
 1.63976e-24 -1.45420e-23        00000 
 1.07663e-26  4.97399e-24        00000 
-2.07369e-25  6.92839e-25        00000 
-6.40874e-26  1.29514e-24        00000 
 1.93711e-25  3.25434e-25        00000 
-5.51651e-26  5.80358e-26        00000 
 2.04646e-27  1.83287e-26        00000 
 1.83284e-27  4.44768e-27        00000 
-1.07493e-27 -5.09309e-27        00000 
 3.85333e-28 -6.39070e-28        00000 
-1.33945e-28 -9.79692e-28        00000 
 1.08905e-28  3.68908e-29        00000 
-9.78627e-29 -4.30461e-28        00000 
 3.38335e-21 -4.10593e-20        00000 
-9.98038e-21  1.13625e-19        00000 
-2.43759e-20 -3.90014e-19        00000 
 5.15553e-21  9.50104e-19        00000 
 3.04717e-20 -5.42802e-18        00000 
-1.11707e-19  1.96796e-18        00000 
 3.06636e-19 -3.24473e-18        00000 
-2.17064e-19  4.76337e-19        00000 
 4.22305e-20 -2.72082e-19        00000 
-5.84641e-21  7.30795e-20        00000 
 1.68452e-21 -1.39785e-20        00000 
-8.13254e-22  2.62648e-21        00000 
 3.49154e-22 -5.39601e-22        00000 
-1.12227e-22  1.21699e-22        00000 
 3.01408e-23 -3.20185e-23        00000 
-8.64527e-24  9.30670e-24        00000 
 2.76387e-24 -5.43457e-24        00000 
-7.71823e-25  3.46971e-24        00000 
 1.18192e-25 -1.16196e-24        00000 
 9.84660e-29  2.80459e-25        00000 
 2.32480e-26 -7.65246e-26        00000 
-2.10456e-26  3.16160e-26        00000 
 1.29890e-26  5.42496e-27        00000 
-3.25850e-27  5.57433e-28        00000 
 1.24430e-27  4.78077e-28        00000 
 5.49719e-29  4.07327e-28        00000 
-7.49474e-29 -1.76235e-28        00000 
 3.45598e-29  8.24215e-29        00000 
-2.04699e-29 -6.38712e-29        00000 
 1.82345e-29  4.40164e-29        00000 
-1.31889e-21  1.05549e-20        00000 
 1.21333e-21 -1.86399e-20        00000 
 1.99404e-21  2.78177e-20        00000 
 5.31811e-21 -4.04445e-19        00000 
-1.11920e-20  5.01699e-19        00000 
 2.83555e-20 -3.01066e-19        00000 
-4.41010e-20 -8.22811e-20        00000 
 3.35769e-20 -1.16322e-19        00000 
-1.42067e-20  4.26270e-20        00000 
 3.19000e-21 -1.97114e-20        00000 
-6.33660e-22  5.33858e-21        00000 
 1.89239e-22 -1.31812e-21        00000 
-7.35961e-23  2.58493e-22        00000 
 2.38501e-23 -4.77001e-23        00000 
-8.28275e-24  9.66922e-24        00000 
 2.55949e-24 -3.14712e-24        00000 
-8.25115e-25  1.04293e-24        00000 
 2.34055e-25 -5.80641e-25        00000 
-5.58378e-26  2.81304e-25        00000 
 9.33955e-27 -9.41715e-26        00000 
-1.26184e-27  2.27752e-26        00000 
 3.39662e-27 -8.12762e-27        00000 
-2.07356e-27  1.71027e-27        00000 
 1.45430e-27  1.02726e-28        00000 
-3.63923e-28  8.33991e-29        00000 
 7.15813e-29 -2.83984e-29        00000 
 2.42415e-30  3.44499e-29        00000 
-6.25029e-30 -1.89611e-29        00000 
 4.12427e-30  1.14865e-29        00000 
-3.45071e-30 -9.64826e-30        00000 
 1.98285e-22 -2.95278e-21        00000 
-9.47982e-23  4.80481e-21        00000 
 1.77400e-22 -2.20888e-20        00000 
-9.31254e-22  5.54463e-20        00000 
 2.47339e-21 -6.93475e-20        00000 
-4.72357e-21  4.33784e-20        00000 
 6.19635e-21 -1.33322e-20        00000 
-5.23702e-21  8.79431e-21        00000 
 2.85052e-21 -9.01352e-21        00000 
-1.01775e-21  3.98902e-21        00000 
 2.57866e-22 -1.50547e-21        00000 
-6.31192e-23  4.31278e-22        00000 
 1.90989e-23 -1.06790e-22        00000 
-6.50676e-24  2.28973e-23        00000 
 2.16364e-24 -4.69413e-24        00000 
-7.14194e-25  1.07181e-24        00000 
 2.03469e-25 -2.96914e-25        00000 
-6.79200e-26  1.20827e-25        00000 
 1.89965e-26 -5.67190e-26        00000 
-4.46584e-27  2.30570e-26        00000 
 9.87656e-28 -7.42631e-27        00000 
-4.85254e-28  2.14862e-27        00000 
 3.83800e-28 -6.07080e-28        00000 
-2.36077e-28  1.11643e-28        00000 
 1.54299e-28 -1.96806e-29        00000 
-3.13243e-29  9.98792e-30        00000 
 4.92326e-30 -6.98757e-30        00000 
 2.82494e-31  3.69418e-30        00000 
-7.03760e-31 -2.31481e-30        00000 
 6.53326e-31  1.90023e-30        00000 
-2.58654e-23  8.42528e-22        00000 
 2.82931e-23 -1.69186e-21        00000 
-6.90095e-23  4.57288e-21        00000 
 2.05446e-22 -8.42721e-21        00000 
-4.59497e-22  9.78965e-21        00000 
 7.63150e-22 -7.16623e-21        00000 
-9.30579e-22  3.56458e-21        00000 
 8.17999e-22 -1.83632e-21        00000 
-5.14760e-22  1.32267e-21        00000 
 2.33310e-22 -8.00615e-22        00000 
-7.85041e-23  3.42424e-22        00000 
 2.16333e-23 -1.20317e-22        00000 
-5.90213e-24  3.49088e-23        00000 
 1.79779e-24 -8.83451e-24        00000 
-5.87357e-25  2.01505e-24        00000 
 1.92490e-25 -4.47233e-25        00000 
-6.40500e-26  1.12573e-25        00000 
 1.89811e-26 -3.26215e-26        00000 
-5.75391e-27  1.25627e-26        00000 
 1.57258e-27 -5.19617e-27        00000 
-3.97344e-28  1.92904e-27        00000 
 1.25072e-28 -6.21384e-28        00000 
-6.80641e-29  1.81955e-28        00000 
 4.44915e-29 -4.69972e-29        00000 
-3.08131e-29  8.32915e-30        00000 
 1.07055e-29 -2.53619e-30        00000 
-2.40105e-30  1.27827e-30        00000 
 3.39415e-31 -7.44759e-31        00000 
 5.94610e-32  4.59993e-31        00000 
-1.04595e-31 -3.78758e-31        00000 
 5.12436e-24 -2.49266e-22        00000 
-7.32240e-24  4.04820e-22        00000 
 1.74065e-23 -8.31025e-22        00000 
-4.17992e-23  1.30676e-21        00000 
 8.11793e-23 -1.46341e-21        00000 
-1.22976e-22  1.17002e-21        00000 
 1.44050e-22 -7.05799e-22        00000 
-1.29547e-22  3.84330e-22        00000 
 8.92390e-23 -2.33520e-22        00000 
-4.69183e-23  1.42377e-22        00000 
 1.91844e-23 -7.17298e-23        00000 
-6.34147e-24  2.89312e-23        00000 
 1.84867e-24 -9.80256e-24        00000 
-5.34969e-25  2.85008e-24        00000 
 1.64479e-25 -7.37001e-25        00000 
-5.32776e-26  1.76463e-25        00000 
 2.03727e-26 -4.27064e-26        00000 
-5.74624e-27  1.09017e-26        00000 
 1.69219e-27 -3.33562e-27        00000 
-4.92793e-28  1.22435e-27        00000 
 1.36044e-28 -4.65602e-28        00000 
-3.90539e-29  1.64142e-28        00000 
 1.50982e-29 -5.22506e-29        00000 
-8.48819e-30  1.49291e-29        00000 
 5.68099e-30 -3.19556e-30        00000 
-2.49120e-30  8.31665e-31        00000 
 7.91176e-31 -2.95785e-31        00000 
-1.77651e-31  1.49054e-31        00000 
 1.94597e-32 -9.20986e-32        00000 
 7.77778e-33  7.54906e-32        00000 
-1.18693e-24  6.09536e-23        00000 
 1.75072e-24 -8.47414e-23        00000 
-3.81606e-24  1.44827e-22        00000 
 7.99722e-24 -2.06307e-22        00000 
-1.39969e-23  2.26137e-22        00000 
 1.98893e-23 -1.90611e-22        00000 
-2.27051e-23  1.27995e-22        00000 
 2.07617e-23 -7.53830e-23        00000 
-1.51646e-23  4.39664e-23        00000 
 8.84243e-24 -2.59611e-23        00000 
-4.13345e-24  1.38331e-23        00000 
 1.58370e-24 -6.41242e-24        00000 
-5.21400e-25  2.38355e-24        00000 
 1.47958e-25 -7.60748e-25        00000 
-5.04640e-26  2.25147e-25        00000 
 1.50481e-26 -6.00783e-26        00000 
-5.12203e-27  1.41480e-26        00000 