<?xml version="1.0" encoding="utf-8"?>
<VTKFile byte_order="LittleEndian" type="UnstructuredGrid" version="0.1">
   <UnstructuredGrid>
      <Piece NumberOfCells="3364" NumberOfPoints="1741">
         <Points>
            <DataArray Name="Points" NumberOfComponents="3" format="ascii" type="Float32">
0.0000 1.0000 0.0000
0.0000 1.0345 0.0000
0.0000 1.0690 0.0000
0.0000 1.1034 0.0000
0.0000 1.1379 0.0000
0.0000 1.1724 0.0000
0.0000 1.2069 0.0000
0.0000 1.2414 0.0000
0.0000 1.2759 0.0000
0.0000 1.3103 0.0000
0.0000 1.3448 0.0000
0.0000 1.3793 0.0000
0.0000 1.4138 0.0000
0.0000 1.4483 0.0000
0.0000 1.4828 0.0000
0.0000 1.5172 0.0000
0.0000 1.5517 0.0000
0.0000 1.5862 0.0000
0.0000 1.6207 0.0000
0.0000 1.6552 0.0000
0.0000 1.6897 0.0000
0.0000 1.7241 0.0000
0.0000 1.7586 0.0000
0.0000 1.7931 0.0000
0.0000 1.8276 0.0000
0.0000 1.8621 0.0000
0.0000 1.8966 0.0000
0.0000 1.9310 0.0000
0.0000 1.9655 0.0000
0.0000 2.0000 0.0000
0.0690 1.0000 0.0000
0.0690 1.0345 0.0000
0.0690 1.0690 0.0000
0.0690 1.1034 0.0000
0.0690 1.1379 0.0000
0.0690 1.1724 0.0000
0.0690 1.2069 0.0000
0.0690 1.2414 0.0000
0.0690 1.2759 0.0000
0.0690 1.3103 0.0000
0.0690 1.3448 0.0000
0.0690 1.3793 0.0000
0.0690 1.4138 0.0000
0.0690 1.4483 0.0000
0.0690 1.4828 0.0000
0.0690 1.5172 0.0000
0.0690 1.5517 0.0000
0.0690 1.5862 0.0000
0.0690 1.6207 0.0000
0.0690 1.6552 0.0000
0.0690 1.6897 0.0000
0.0690 1.7241 0.0000
0.0690 1.7586 0.0000
0.0690 1.7931 0.0000
0.0690 1.8276 0.0000
0.0690 1.8621 0.0000
0.0690 1.8966 0.0000
0.0690 1.9310 0.0000
0.0690 1.9655 0.0000
0.0690 2.0000 0.0000
0.1379 1.0000 0.0000
0.1379 1.0345 0.0000
0.1379 1.0690 0.0000
0.1379 1.1034 0.0000
0.1379 1.1379 0.0000
0.1379 1.1724 0.0000
0.1379 1.2069 0.0000
0.1379 1.2414 0.0000
0.1379 1.2759 0.0000
0.1379 1.3103 0.0000
0.1379 1.3448 0.0000
0.1379 1.3793 0.0000
0.1379 1.4138 0.0000
0.1379 1.4483 0.0000
0.1379 1.4828 0.0000
0.1379 1.5172 0.0000
0.1379 1.5517 0.0000
0.1379 1.5862 0.0000
0.1379 1.6207 0.0000
0.1379 1.6552 0.0000
0.1379 1.6897 0.0000
0.1379 1.7241 0.0000
0.1379 1.7586 0.0000
0.1379 1.7931 0.0000
0.1379 1.8276 0.0000
0.1379 1.8621 0.0000
0.1379 1.8966 0.0000
0.1379 1.9310 0.0000
0.1379 1.9655 0.0000
0.1379 2.0000 0.0000
0.2069 1.0000 0.0000
0.2069 1.0345 0.0000
0.2069 1.0690 0.0000
0.2069 1.1034 0.0000
0.2069 1.1379 0.0000
0.2069 1.1724 0.0000
0.2069 1.2069 0.0000
0.2069 1.2414 0.0000
0.2069 1.2759 0.0000
0.2069 1.3103 0.0000
0.2069 1.3448 0.0000
0.2069 1.3793 0.0000
0.2069 1.4138 0.0000
0.2069 1.4483 0.0000
0.2069 1.4828 0.0000
0.2069 1.5172 0.0000
0.2069 1.5517 0.0000
0.2069 1.5862 0.0000
0.2069 1.6207 0.0000
0.2069 1.6552 0.0000
0.2069 1.6897 0.0000
0.2069 1.7241 0.0000
0.2069 1.7586 0.0000
0.2069 1.7931 0.0000
0.2069 1.8276 0.0000
0.2069 1.8621 0.0000
0.2069 1.8966 0.0000
0.2069 1.9310 0.0000
0.2069 1.9655 0.0000
0.2069 2.0000 0.0000
0.2759 1.0000 0.0000
0.2759 1.0345 0.0000
0.2759 1.0690 0.0000
0.2759 1.1034 0.0000
0.2759 1.1379 0.0000
0.2759 1.1724 0.0000
0.2759 1.2069 0.0000
0.2759 1.2414 0.0000
0.2759 1.2759 0.0000
0.2759 1.3103 0.0000
0.2759 1.3448 0.0000
0.2759 1.3793 0.0000
0.2759 1.4138 0.0000
0.2759 1.4483 0.0000
0.2759 1.4828 0.0000
0.2759 1.5172 0.0000
0.2759 1.5517 0.0000
0.2759 1.5862 0.0000
0.2759 1.6207 0.0000
0.2759 1.6552 0.0000
0.2759 1.6897 0.0000
0.2759 1.7241 0.0000
0.2759 1.7586 0.0000
0.2759 1.7931 0.0000
0.2759 1.8276 0.0000
0.2759 1.8621 0.0000
0.2759 1.8966 0.0000
0.2759 1.9310 0.0000
0.2759 1.9655 0.0000
0.2759 2.0000 0.0000
0.3448 1.0000 0.0000
0.3448 1.0345 0.0000
0.3448 1.0690 0.0000
0.3448 1.1034 0.0000
0.3448 1.1379 0.0000
0.3448 1.1724 0.0000
0.3448 1.2069 0.0000
0.3448 1.2414 0.0000
0.3448 1.2759 0.0000
0.3448 1.3103 0.0000
0.3448 1.3448 0.0000
0.3448 1.3793 0.0000
0.3448 1.4138 0.0000
0.3448 1.4483 0.0000
0.3448 1.4828 0.0000
0.3448 1.5172 0.0000
0.3448 1.5517 0.0000
0.3448 1.5862 0.0000
0.3448 1.6207 0.0000
0.3448 1.6552 0.0000
0.3448 1.6897 0.0000
0.3448 1.7241 0.0000
0.3448 1.7586 0.0000
0.3448 1.7931 0.0000
0.3448 1.8276 0.0000
0.3448 1.8621 0.0000
0.3448 1.8966 0.0000
0.3448 1.9310 0.0000
0.3448 1.9655 0.0000
0.3448 2.0000 0.0000
0.4138 1.0000 0.0000
0.4138 1.0345 0.0000
0.4138 1.0690 0.0000
0.4138 1.1034 0.0000
0.4138 1.1379 0.0000
0.4138 1.1724 0.0000
0.4138 1.2069 0.0000
0.4138 1.2414 0.0000
0.4138 1.2759 0.0000
0.4138 1.3103 0.0000
0.4138 1.3448 0.0000
0.4138 1.3793 0.0000
0.4138 1.4138 0.0000
0.4138 1.4483 0.0000
0.4138 1.4828 0.0000
0.4138 1.5172 0.0000
0.4138 1.5517 0.0000
0.4138 1.5862 0.0000
0.4138 1.6207 0.0000
0.4138 1.6552 0.0000
0.4138 1.6897 0.0000
0.4138 1.7241 0.0000
0.4138 1.7586 0.0000
0.4138 1.7931 0.0000
0.4138 1.8276 0.0000
0.4138 1.8621 0.0000
0.4138 1.8966 0.0000
0.4138 1.9310 0.0000
0.4138 1.9655 0.0000
0.4138 2.0000 0.0000
0.4828 1.0000 0.0000
0.4828 1.0345 0.0000
0.4828 1.0690 0.0000
0.4828 1.1034 0.0000
0.4828 1.1379 0.0000
0.4828 1.1724 0.0000
0.4828 1.2069 0.0000
0.4828 1.2414 0.0000
0.4828 1.2759 0.0000
0.4828 1.3103 0.0000
0.4828 1.3448 0.0000
0.4828 1.3793 0.0000
0.4828 1.4138 0.0000
0.4828 1.4483 0.0000
0.4828 1.4828 0.0000
0.4828 1.5172 0.0000
0.4828 1.5517 0.0000
0.4828 1.5862 0.0000
0.4828 1.6207 0.0000
0.4828 1.6552 0.0000
0.4828 1.6897 0.0000
0.4828 1.7241 0.0000
0.4828 1.7586 0.0000
0.4828 1.7931 0.0000
0.4828 1.8276 0.0000
0.4828 1.8621 0.0000
0.4828 1.8966 0.0000
0.4828 1.9310 0.0000
0.4828 1.9655 0.0000
0.4828 2.0000 0.0000
0.5517 1.0000 0.0000
0.5517 1.0345 0.0000
0.5517 1.0690 0.0000
0.5517 1.1034 0.0000
0.5517 1.1379 0.0000
0.5517 1.1724 0.0000
0.5517 1.2069 0.0000
0.5517 1.2414 0.0000
0.5517 1.2759 0.0000
0.5517 1.3103 0.0000
0.5517 1.3448 0.0000
0.5517 1.3793 0.0000
0.5517 1.4138 0.0000
0.5517 1.4483 0.0000
0.5517 1.4828 0.0000
0.5517 1.5172 0.0000
0.5517 1.5517 0.0000
0.5517 1.5862 0.0000
0.5517 1.6207 0.0000
0.5517 1.6552 0.0000
0.5517 1.6897 0.0000
0.5517 1.7241 0.0000
0.5517 1.7586 0.0000
0.5517 1.7931 0.0000
0.5517 1.8276 0.0000
0.5517 1.8621 0.0000
0.5517 1.8966 0.0000
0.5517 1.9310 0.0000
0.5517 1.9655 0.0000
0.5517 2.0000 0.0000
0.6207 1.0000 0.0000
0.6207 1.0345 0.0000
0.6207 1.0690 0.0000
0.6207 1.1034 0.0000
0.6207 1.1379 0.0000
0.6207 1.1724 0.0000
0.6207 1.2069 0.0000
0.6207 1.2414 0.0000
0.6207 1.2759 0.0000
0.6207 1.3103 0.0000
0.6207 1.3448 0.0000
0.6207 1.3793 0.0000
0.6207 1.4138 0.0000
0.6207 1.4483 0.0000
0.6207 1.4828 0.0000
0.6207 1.5172 0.0000
0.6207 1.5517 0.0000
0.6207 1.5862 0.0000
0.6207 1.6207 0.0000
0.6207 1.6552 0.0000
0.6207 1.6897 0.0000
0.6207 1.7241 0.0000
0.6207 1.7586 0.0000
0.6207 1.7931 0.0000
0.6207 1.8276 0.0000
0.6207 1.8621 0.0000
0.6207 1.8966 0.0000
0.6207 1.9310 0.0000
0.6207 1.9655 0.0000
0.6207 2.0000 0.0000
0.6897 1.0000 0.0000
0.6897 1.0345 0.0000
0.6897 1.0690 0.0000
0.6897 1.1034 0.0000
0.6897 1.1379 0.0000
0.6897 1.1724 0.0000
0.6897 1.2069 0.0000
0.6897 1.2414 0.0000
0.6897 1.2759 0.0000
0.6897 1.3103 0.0000
0.6897 1.3448 0.0000
0.6897 1.3793 0.0000
0.6897 1.4138 0.0000
0.6897 1.4483 0.0000
0.6897 1.4828 0.0000
0.6897 1.5172 0.0000
0.6897 1.5517 0.0000
0.6897 1.5862 0.0000
0.6897 1.6207 0.0000
0.6897 1.6552 0.0000
0.6897 1.6897 0.0000
0.6897 1.7241 0.0000
0.6897 1.7586 0.0000
0.6897 1.7931 0.0000
0.6897 1.8276 0.0000
0.6897 1.8621 0.0000
0.6897 1.8966 0.0000
0.6897 1.9310 0.0000
0.6897 1.9655 0.0000
0.6897 2.0000 0.0000
0.7586 1.0000 0.0000
0.7586 1.0345 0.0000
0.7586 1.0690 0.0000
0.7586 1.1034 0.0000
0.7586 1.1379 0.0000
0.7586 1.1724 0.0000
0.7586 1.2069 0.0000
0.7586 1.2414 0.0000
0.7586 1.2759 0.0000
0.7586 1.3103 0.0000
0.7586 1.3448 0.0000
0.7586 1.3793 0.0000
0.7586 1.4138 0.0000
0.7586 1.4483 0.0000
0.7586 1.4828 0.0000
0.7586 1.5172 0.0000
0.7586 1.5517 0.0000
0.7586 1.5862 0.0000
0.7586 1.6207 0.0000
0.7586 1.6552 0.0000
0.7586 1.6897 0.0000
0.7586 1.7241 0.0000
0.7586 1.7586 0.0000
0.7586 1.7931 0.0000
0.7586 1.8276 0.0000
0.7586 1.8621 0.0000
0.7586 1.8966 0.0000
0.7586 1.9310 0.0000
0.7586 1.9655 0.0000
0.7586 2.0000 0.0000
0.8276 1.0000 0.0000
0.8276 1.0345 0.0000
0.8276 1.0690 0.0000
0.8276 1.1034 0.0000
0.8276 1.1379 0.0000
0.8276 1.1724 0.0000
0.8276 1.2069 0.0000
0.8276 1.2414 0.0000
0.8276 1.2759 0.0000
0.8276 1.3103 0.0000
0.8276 1.3448 0.0000
0.8276 1.3793 0.0000
0.8276 1.4138 0.0000
0.8276 1.4483 0.0000
0.8276 1.4828 0.0000
0.8276 1.5172 0.0000
0.8276 1.5517 0.0000
0.8276 1.5862 0.0000
0.8276 1.6207 0.0000
0.8276 1.6552 0.0000
0.8276 1.6897 0.0000
0.8276 1.7241 0.0000
0.8276 1.7586 0.0000
0.8276 1.7931 0.0000
0.8276 1.8276 0.0000
0.8276 1.8621 0.0000
0.8276 1.8966 0.0000
0.8276 1.9310 0.0000
0.8276 1.9655 0.0000
0.8276 2.0000 0.0000
0.8966 1.0000 0.0000
0.8966 1.0345 0.0000
0.8966 1.0690 0.0000
0.8966 1.1034 0.0000
0.8966 1.1379 0.0000
0.8966 1.1724 0.0000
0.8966 1.2069 0.0000
0.8966 1.2414 0.0000
0.8966 1.2759 0.0000
0.8966 1.3103 0.0000
0.8966 1.3448 0.0000
0.8966 1.3793 0.0000
0.8966 1.4138 0.0000
0.8966 1.4483 0.0000
0.8966 1.4828 0.0000
0.8966 1.5172 0.0000
0.8966 1.5517 0.0000
0.8966 1.5862 0.0000
0.8966 1.6207 0.0000
0.8966 1.6552 0.0000
0.8966 1.6897 0.0000
0.8966 1.7241 0.0000
0.8966 1.7586 0.0000
0.8966 1.7931 0.0000
0.8966 1.8276 0.0000
0.8966 1.8621 0.0000
0.8966 1.8966 0.0000
0.8966 1.9310 0.0000
0.8966 1.9655 0.0000
0.8966 2.0000 0.0000
0.9655 1.0000 0.0000
0.9655 1.0345 0.0000
0.9655 1.0690 0.0000
0.9655 1.1034 0.0000
0.9655 1.1379 0.0000
0.9655 1.1724 0.0000
0.9655 1.2069 0.0000
0.9655 1.2414 0.0000
0.9655 1.2759 0.0000
0.9655 1.3103 0.0000
0.9655 1.3448 0.0000
0.9655 1.3793 0.0000
0.9655 1.4138 0.0000
0.9655 1.4483 0.0000
0.9655 1.4828 0.0000
0.9655 1.5172 0.0000
0.9655 1.5517 0.0000
0.9655 1.5862 0.0000
0.9655 1.6207 0.0000
0.9655 1.6552 0.0000
0.9655 1.6897 0.0000
0.9655 1.7241 0.0000
0.9655 1.7586 0.0000
0.9655 1.7931 0.0000
0.9655 1.8276 0.0000
0.9655 1.8621 0.0000
0.9655 1.8966 0.0000
0.9655 1.9310 0.0000
0.9655 1.9655 0.0000
0.9655 2.0000 0.0000
1.0345 1.0000 0.0000
1.0345 1.0345 0.0000
1.0345 1.0690 0.0000
1.0345 1.1034 0.0000
1.0345 1.1379 0.0000
1.0345 1.1724 0.0000
1.0345 1.2069 0.0000
1.0345 1.2414 0.0000
1.0345 1.2759 0.0000
1.0345 1.3103 0.0000
1.0345 1.3448 0.0000
[...]
         <PointData>
            <DataArray Name="fValues" NumberOfComponents="3" format="ascii" type="Float64">
 3.59338e-22  1.07427e-20        00000 
-1.43735e-21  2.15603e-21        00000 
 1.42136e-20 -4.33516e-20        00000 
 6.00042e-20  9.64353e-20        00000 
-5.68545e-20 -1.13709e-20        00000 
 1.59324e-19  3.59728e-19        00000 
 1.70564e-20 -2.10362e-19        00000 
 2.78591e-20 -1.09650e-19        00000 
 3.97982e-20  6.82254e-20        00000 
-1.25236e-20  9.69271e-19        00000 
-6.25400e-20 -4.54836e-19        00000 
-4.28601e-21  1.68405e-19        00000 
-1.36451e-19  3.12700e-19        00000 
 3.79314e-21  5.89098e-22        00000 
-1.13709e-20  1.25080e-19        00000 
 3.21451e-21 -4.10743e-21        00000 
-1.36806e-20  1.01272e-20        00000 
-5.11106e-23  7.65952e-21        00000 
-1.24369e-21 -7.10681e-22        00000 
 2.49041e-22 -4.04604e-23        00000 
-9.16113e-23 -2.16536e-22        00000 
 1.87039e-23 -1.13997e-22        00000 
 1.38805e-23 -5.69100e-23        00000 
 6.27834e-24  6.10394e-24        00000 
-2.60259e-25 -9.97661e-25        00000 
 2.29887e-24 -1.04128e-24        00000 
-8.67531e-26 -2.60259e-25        00000 
 3.16686e-25 -1.96564e-25        00000 
-2.06994e-26  6.11797e-26        00000 
-1.72399e-26 -2.96404e-26        00000 
 3.62486e-05 -1.38143e-05        00000 
 4.71655e-05 -1.57952e-05        00000 
 1.21367e-04  6.14213e-07        00000 
 2.60014e-04  6.46531e-05        00000 
 4.72630e-04  2.35843e-04        00000 
 7.14615e-04  5.70106e-04        00000 
 8.64420e-04  1.06354e-03        00000 
 7.68553e-04  1.60171e-03        00000 
 3.66123e-04  1.98362e-03        00000 
-2.10550e-04  2.03660e-03        00000 
-6.96138e-04  1.73311e-03        00000 
-8.89471e-04  1.20767e-03        00000 
-7.89066e-04  6.71629e-04        00000 
-5.42465e-04  2.81285e-04        00000 
-3.02050e-04  7.25192e-05        00000 
-1.39349e-04 -4.93335e-06        00000 
-5.37341e-05 -1.85059e-05        00000 
-1.71091e-05 -1.27166e-05        00000 
-4.19302e-06 -5.96803e-06        00000 
-5.25706e-07 -2.19862e-06        00000 
 2.02822e-07 -6.55451e-07        00000 
 2.09817e-07 -1.52351e-07        00000 
 1.19229e-07 -2.11552e-08        00000 
 5.58972e-08  3.65674e-09        00000 
 2.36073e-08  4.85623e-09        00000 
 9.23281e-09  2.90464e-09        00000 
 3.35615e-09  1.45548e-09        00000 
 1.12481e-09  6.77846e-10        00000 
 3.44717e-10  3.14317e-10        00000 
 2.35794e-11  1.86346e-10        00000 
-3.11920e-05  2.90599e-05        00000 
-4.72990e-05  3.55588e-05        00000 
-1.20556e-04  2.81205e-05        00000 
-2.83504e-04 -6.60548e-05        00000 
-5.68223e-04 -3.75971e-04        00000 
-9.44691e-04 -1.05445e-03        00000 
-1.24327e-03 -2.13960e-03        00000 
-1.18236e-03 -3.39196e-03        00000 
-5.91227e-04 -4.31223e-03        00000 
 3.31487e-04 -4.44410e-03        00000 
 1.08743e-03 -3.71456e-03        00000 
 1.31569e-03 -2.47479e-03        00000 
 1.07455e-03 -1.26733e-03        00000 
 6.66120e-04 -4.53100e-04        00000 
 3.30235e-04 -6.66848e-05        00000 
 1.35315e-04  4.72597e-05        00000 
 4.68001e-05  4.92024e-05        00000 
 1.36620e-05  2.76763e-05        00000 
 3.15952e-06  1.17348e-05        00000 
 3.73344e-07  4.04089e-06        00000 
-1.69399e-07  1.13809e-06        00000 
-1.76636e-07  2.43217e-07        00000 
-1.05508e-07  2.22554e-08        00000 
-5.20049e-08 -1.44083e-08        00000 
-2.28158e-08 -1.25640e-08        00000 
-9.12003e-09 -6.99016e-09        00000 
-3.33533e-09 -3.36064e-09        00000 
-1.11077e-09 -1.49734e-09        00000 
-3.34854e-10 -6.57105e-10        00000 
-1.87151e-11 -3.80209e-10        00000 
 1.70029e-05 -3.91648e-05        00000 
 2.80574e-05 -5.26577e-05        00000 
 8.21044e-05 -6.47962e-05        00000 
 2.33553e-04  2.12706e-05        00000 
 5.66290e-04  4.11205e-04        00000 
 1.11783e-03  1.41262e-03        00000 
 1.70121e-03  3.20778e-03        00000 
 1.81361e-03  5.45828e-03        00000 
 9.86114e-04  7.19903e-03        00000 
-5.31394e-04  7.45786e-03        00000 
-1.72062e-03  6.08412e-03        00000 
-1.89281e-03  3.80583e-03        00000 
-1.33635e-03  1.73424e-03        00000 
-6.83678e-04  4.88286e-04        00000 
-2.67328e-04 -6.08327e-06        00000 
-8.29378e-05 -1.02981e-04        00000 
-2.12608e-05 -7.44676e-05        00000 
-4.77584e-06 -3.64585e-05        00000 
-9.93797e-07 -1.43824e-05        00000 
-1.50315e-07 -4.81215e-06        00000 
 4.68767e-08 -1.36761e-06        00000 
 7.48497e-08 -3.07243e-07        00000 
 5.56665e-08 -3.40362e-08        00000 
 3.16513e-08  1.66668e-08        00000 
 1.51515e-08  1.64709e-08        00000 
 6.33702e-09  9.62043e-09        00000 
 2.34990e-09  4.71334e-09        00000 
 7.75085e-10  2.09518e-09        00000 
 2.27499e-10  9.04637e-10        00000 
 4.18790e-12  5.15792e-10        00000 
-2.02291e-06  4.19949e-05        00000 
-3.22459e-06  6.31579e-05        00000 
-2.49361e-05  1.04905e-04        00000 
-1.31066e-04  7.83309e-05        00000 
-4.71656e-04 -2.78541e-04        00000 
-1.23876e-03 -1.50044e-03        00000 
-2.34673e-03 -4.13963e-03        00000 
-2.96115e-03 -7.92615e-03        00000 
-1.83112e-03 -1.11247e-02        00000 
 9.36558e-04 -1.16334e-02        00000 
 2.97636e-03 -9.11633e-03        00000 
 2.82152e-03 -5.11754e-03        00000 
 1.58381e-03 -1.88387e-03        00000 
 5.77946e-04 -2.85964e-04        00000 
 1.27916e-04  1.60997e-04        00000 
 6.07119e-06  1.62207e-04        00000 
-8.13487e-06  8.76400e-05        00000 
-3.83584e-06  3.73772e-05        00000 
-8.29328e-07  1.39178e-05        00000 
 1.84804e-08  4.68468e-06        00000 
 8.73410e-08  1.41442e-06        00000 
 3.12610e-08  3.57974e-07        00000 
-2.15620e-11  5.61326e-08        00000 
-6.65487e-09 -1.15657e-08        00000 
-4.88462e-09 -1.69191e-08        00000 
-2.39876e-09 -1.07998e-08        00000 
-9.36169e-10 -5.47011e-09        00000 
-3.03958e-10 -2.44679e-09        00000 
-8.32191e-11 -1.04727e-09        00000 
 6.58044e-12 -5.90130e-10        00000 
-9.82168e-06 -3.73441e-05        00000 
-1.91394e-05 -6.25192e-05        00000 
-3.63837e-05 -1.32792e-04        00000 
-1.46258e-05 -2.09416e-04        00000 
 2.34731e-04 -5.50427e-05        00000 
 1.15039e-03  1.09653e-03        00000 
 3.08802e-03  4.55686e-03        00000 
 5.00358e-03  1.07667e-02        00000 
 3.76443e-03  1.69147e-02        00000 
-1.80532e-03  1.80979e-02        00000 
-5.59279e-03  1.31275e-02        00000 
-4.17321e-03  6.01318e-03        00000 
-1.58358e-03  1.35209e-03        00000 
-2.40930e-04 -2.33197e-04        00000 
 7.94988e-05 -3.59660e-04        00000 
 7.15411e-05 -1.95865e-04        00000 
 3.08953e-05 -8.18252e-05        00000 
 9.36247e-06 -3.09340e-05        00000 
 1.93683e-06 -1.13279e-05        00000 
 8.83084e-08 -4.03845e-06        00000 
-1.63312e-07 -1.34649e-06        00000 
-1.08321e-07 -3.87677e-07        00000 
-4.82005e-08 -7.80905e-08        00000 
-1.80838e-08  3.26143e-09        00000 
-6.22034e-09  1.48452e-08        00000 
-2.07169e-09  1.05602e-08        00000 
-6.90975e-10  5.54856e-09        00000 
-2.31230e-10  2.50604e-09        00000 
-7.53400e-11  1.06762e-09        00000 
-1.16891e-11  5.96385e-10        00000 
 1.78513e-05  2.76151e-05        00000 
 3.34371e-05  4.98380e-05        00000 
 8.37380e-05  1.29715e-04        00000 
 1.68160e-04  3.07581e-04        00000 
 1.48248e-04  5.13735e-04        00000 
-5.79154e-04  1.09925e-05        00000 
-3.38979e-03 -3.58734e-03        00000 
-8.20930e-03 -1.32432e-02        00000 
-8.34887e-03 -2.60537e-02        00000 
 3.72306e-03 -3.00790e-02        00000 
 1.11492e-02 -1.80199e-02        00000 
 5.47367e-03 -5.18756e-03        00000 
 7.61153e-04  3.81736e-04        00000 
-3.75378e-04  9.65666e-04        00000 
-2.77570e-04  4.76448e-04        00000 
-1.20743e-04  1.72405e-04        00000 
-4.07908e-05  5.78634e-05        00000 
-1.15916e-05  2.06962e-05        00000 
-2.60208e-06  8.07649e-06        00000 
-2.78692e-07  3.19864e-06        00000 
 1.54088e-07  1.17953e-06        00000 
 1.47266e-07  3.73730e-07        00000 
 8.36466e-08  8.73119e-08        00000 
 3.93604e-08  4.09307e-09        00000 
 1.65718e-08 -1.11305e-08        00000 
 6.41269e-09 -8.93955e-09        00000 
 2.29562e-09 -4.87926e-09        00000 
 7.57236e-10 -2.23351e-09        00000 
 2.28698e-10 -9.52213e-10        00000 
 1.34911e-11 -5.29795e-10        00000 
-2.34604e-05 -1.71440e-05        00000 
-3.85213e-05 -3.08125e-05        00000 
-1.04007e-04 -9.18339e-05        00000 
-2.69203e-04 -2.99200e-04        00000 
-5.52269e-04 -8.51618e-04        00000 
-5.31547e-04 -1.63317e-03        00000 
 1.80695e-03 -1.40904e-04        00000 
 1.11588e-02  1.21447e-02        00000 
 1.85009e-02  4.05117e-02        00000 
-7.66234e-03  6.07721e-02        00000 
-2.20918e-02  1.97603e-02        00000 
-4.09892e-03 -6.99413e-04        00000 
 1.47741e-03 -3.28778e-03        00000 
 8.65638e-04 -1.34212e-03        00000 
 3.63040e-04 -3.79132e-04        00000 
 1.24174e-04 -9.65060e-05        00000 
 3.98458e-05 -2.85667e-05        00000 
 1.19217e-05 -1.12271e-05        00000 
 3.12078e-06 -5.07410e-06        00000 
 5.36373e-07 -2.22874e-06        00000 
-8.67164e-08 -8.78503e-07        00000 
-1.53012e-07 -2.94823e-07        00000 
-1.02574e-07 -7.55019e-08        00000 
-5.32382e-08 -7.76477e-09        00000 
-2.39063e-08  6.54445e-09        00000 
-9.62370e-09  6.10525e-09        00000 
-3.50964e-09  3.48080e-09        00000 
-1.15876e-09  1.62512e-09        00000 
-3.45805e-10  6.99054e-10        00000 
-1.48601e-11  3.89632e-10        00000 
 2.73214e-05  9.06120e-06        00000 
 3.69569e-05  1.47029e-05        00000 
 9.86093e-05  4.11258e-05        00000 
 2.78231e-04  1.79257e-04        00000 
 7.40079e-04  7.83190e-04        00000 
 1.64837e-03  2.73811e-03        00000 
 1.91826e-03  6.22600e-03        00000 
-4.35912e-03  9.41206e-04        00000 
-3.33814e-02 -5.67804e-02        00000 
 1.33792e-02 -1.78048e-01        00000 
 3.47828e-02  1.15905e-02        00000 
-6.56314e-03  1.47266e-02        00000 
-2.13718e-03  4.26689e-03        00000 
-8.38665e-04  8.21368e-04        00000 
-2.71883e-04  1.36636e-04        00000 
-9.14356e-05  2.62748e-05        00000 
-3.08966e-05  9.15429e-06        00000 
-1.01744e-05  4.55931e-06        00000 
-2.97551e-06  2.26570e-06        00000 
-6.26124e-07  1.01396e-06        00000 
 1.92981e-08  3.98202e-07        00000 
 1.22726e-07  1.32046e-07        00000 
 9.19668e-08  3.27906e-08        00000 
 5.02501e-08  2.56598e-09        00000 
 2.32653e-08 -3.51147e-09        00000 
 9.54306e-09 -3.04035e-09        00000 
 3.51639e-09 -1.69725e-09        00000 
 1.16473e-09 -7.81760e-10        00000 
 3.48916e-10 -3.29246e-10        00000 
 1.04976e-11 -1.77789e-10        00000 
-2.58616e-05 -3.83853e-06        00000 
-2.72865e-05 -7.98801e-06        00000 
-7.40564e-05 -1.12467e-05        00000 
-2.01343e-04 -5.51039e-05        00000 
-5.79565e-04 -3.68315e-04        00000 
-1.70600e-03 -2.08631e-03        00000 
-4.76153e-03 -8.94450e-03        00000 
-1.05265e-02 -2.28613e-02        00000 
-1.93001e-02  3.56151e-02        00000 
 8.45362e-03  7.72526e-01        00000 
 3.16177e-04 -2.44778e-01        00000 
-7.16059e-05 -7.33360e-03        00000 
-2.61283e-05 -1.62980e-03        00000 
-1.02676e-05 -4.63388e-04        00000 
-3.36230e-06 -1.62935e-04        00000 
-1.13017e-06 -6.03358e-05        00000 
-3.81494e-07 -2.08526e-05        00000 
-1.25514e-07 -6.08746e-06        00000 
-3.67840e-08 -1.14991e-06        00000 
-7.82425e-09  1.67529e-07        00000 
 1.62685e-10  3.34143e-07        00000 
 1.47062e-09  2.32203e-07        00000 
 1.11360e-09  1.23148e-07        00000 
 6.11136e-10  5.59388e-08        00000 
 2.83798e-10  2.25460e-08        00000 
 1.16719e-10  8.11975e-09        00000 
 4.31278e-11  2.56697e-09        00000 
 1.43321e-11  6.55171e-10        00000 
 4.29589e-12  6.75732e-11        00000 
-4.57459e-12 -4.89785e-11        00000 
-1.13011e-06  7.28249e-06        00000 
-3.42603e-07  2.75947e-05        00000 
-9.12718e-07  6.39761e-05        00000 
-2.48713e-06  1.51472e-04        00000 
-7.15197e-06  3.71497e-04        00000 
-2.09246e-05  1.07422e-03        00000 
-5.76130e-05  4.06468e-03        00000 
-1.25616e-04  1.79426e-02        00000 
-2.21344e-04  7.35704e-02        00000 
 9.43653e-05  2.11150e-01        00000 
-4.65745e-20  6.20612e-18        00000 
 1.43700e-19  2.59979e-19        00000 
-3.42272e-20 -4.17556e-19        00000 
 1.42502e-20  1.08599e-19        00000 
-5.60202e-21 -3.25947e-20        00000 
 3.64148e-21  6.50667e-21        00000 
-8.02772e-22 -1.02637e-21        00000 
 9.53589e-23 -4.23389e-22        00000 
-3.78204e-23  9.04132e-23        00000 
 1.53954e-23 -3.72004e-23        00000 
-6.69594e-24  4.59840e-24        00000 
 5.96629e-25 -3.71924e-24        00000 
 3.42264e-25  5.56734e-24        00000 
-1.61247e-25 -6.74627e-25        00000 
 4.31080e-26  2.12099e-24        00000 
 1.17322e-25 -3.58477e-26        00000 
-8.43160e-26  6.51952e-26        00000 
 3.90478e-26  6.00909e-26        00000 
-1.33463e-26 -2.40134e-26        00000 
 7.01652e-27  8.26486e-27        00000 
 1.90743e-22 -8.14082e-23        00000 
-3.83985e-22  4.79750e-22        00000 
 3.80873e-22 -9.36313e-22        00000 
-1.87273e-21  2.53413e-21        00000 
 4.31682e-21 -5.58647e-21        00000 
-1.31640e-20  1.21806e-21        00000 
 5.03629e-20  7.52859e-20        00000 
-5.16621e-20  3.67264e-19        00000 
 1.05831e-19  2.11661e-18        00000 
-2.92875e-19  3.96938e-18        00000 
 1.86743e-19 -1.25013e-18        00000 
-2.89999e-20  2.94233e-19        00000 
 7.61790e-21  2.84402e-20        00000 
-3.28244e-21 -2.58639e-20        00000 
 1.37798e-21  8.68075e-21        00000 
-6.30178e-22 -2.43585e-21        00000 
 2.71294e-22  5.20725e-22        00000 
-6.06797e-23 -4.79581e-23        00000 
 1.23778e-23 -1.85734e-23        00000 
-3.95189e-24  7.46966e-24        00000 
 1.32513e-24 -1.48787e-24        00000 
-3.86522e-25  8.22726e-25        00000 
 2.05797e-26 -6.56780e-25        00000 
 2.40854e-26  3.90734e-25        00000 
-1.03355e-26 -1.97006e-25        00000 
-1.02574e-26  1.06295e-25        00000 
 1.31687e-26 -1.58956e-26        00000 
-7.71016e-27 -2.83017e-27        00000 
 3.41451e-27  4.62605e-27        00000 
-2.03245e-27 -3.05098e-27        00000 
-1.03700e-22  6.65025e-23        00000 
 1.27517e-22 -1.13713e-22        00000 
-1.26334e-22 -3.34149e-24        00000 
 5.51079e-22 -5.19365e-22        00000 
-1.24129e-21  2.46422e-21        00000 
 4.03362e-21 -2.23739e-20        00000 
-6.79511e-21  3.20037e-20        00000 
 1.18820e-20 -4.99384e-20        00000 
-2.47900e-20  1.08151e-19        00000 
 3.50424e-20 -3.57534e-19        00000 
-2.86414e-20  3.48766e-19        00000 
 1.14922e-20 -7.72830e-20        00000 
-3.44992e-21  2.32303e-20        00000 
 9.22203e-22  2.03521e-21        00000 
-2.92741e-22 -1.75712e-21        00000 
 1.54933e-22  6.16972e-22        00000 
-5.60538e-23 -1.75419e-22        00000 
 1.96641e-23  3.54940e-23        00000 
-4.99664e-24 -2.94321e-24        00000 
 1.26229e-24 -9.96552e-25        00000 
-4.18621e-25  5.65437e-25        00000 
 7.76370e-26 -2.56202e-25        00000 
-1.03505e-26  6.49616e-26        00000 
 2.16753e-27 -4.82365e-26        00000 
 1.69831e-27  3.39662e-26        00000 
 8.57357e-28 -1.85522e-26        00000 
-1.76785e-27  6.40826e-27        00000 
 1.35401e-27 -3.47844e-28        00000 
-7.47747e-28 -5.49044e-28        00000 
 5.14660e-28  6.34214e-28        00000 
 2.04575e-23 -1.57799e-23        00000 
-2.29484e-23  1.59969e-23        00000 
 4.54138e-23 -4.54979e-23        00000 
-1.19287e-22  2.38889e-22        00000 
 3.22550e-22 -1.30439e-21        00000 
-7.13624e-22  3.45940e-21        00000 
 1.31833e-21 -6.12263e-21        00000 
-2.44037e-21  1.13121e-20        00000 
 4.25558e-21 -2.68505e-20        00000 
-5.12977e-21  4.79966e-20        00000 
 4.33815e-21 -4.64132e-20        00000 
-2.40474e-21  2.31845e-20        00000 
 9.14625e-22 -6.37685e-21        00000 
-2.84614e-22  1.16451e-21        00000 
 8.67788e-23  1.25121e-22        00000 
-3.24067e-23 -1.24214e-22        00000 
 1.46555e-23  5.21440e-23        00000 
-5.00935e-24 -1.32916e-23        00000 
 1.57622e-24  2.60799e-24        00000 
-4.30885e-25 -2.44629e-25        00000 
 1.18576e-25 -6.28276e-26        00000 
-3.19647e-26  4.64887e-26        00000 
 6.52138e-27 -1.99908e-26        00000 
-1.06979e-27  9.10288e-27        00000 
 1.07367e-28 -5.41709e-27        00000 
-8.94338e-29  3.22851e-27        00000 
 2.32680e-28 -1.34629e-27        00000 
-2.17307e-28  4.54639e-28        00000 
 1.47873e-28  1.79953e-29        00000 
-1.14907e-28 -8.58862e-29        00000 
-4.00475e-24  3.25460e-24        00000 
 5.28675e-24 -5.45430e-24        00000 
-1.11668e-23  2.06081e-23        00000 
 2.82313e-23 -9.11028e-23        00000 
-6.66858e-23  2.86711e-22        00000 
 1.36706e-22 -6.39994e-22        00000 
-2.55956e-22  1.22669e-21        00000 
 4.50923e-22 -2.47755e-21        00000 
-6.75747e-22  4.57918e-21        00000 
 7.86582e-22 -7.00570e-21        00000 
-6.80950e-22  6.80033e-21        00000 
 4.33293e-22 -4.25205e-21        00000 
-2.03926e-22  1.71806e-21        00000 
 7.53590e-23 -4.57330e-22        00000 
-2.46778e-23  6.72522e-23        00000 
 8.43132e-24  9.38469e-24        00000 
-4.31658e-24 -5.46560e-24        00000 
 1.33472e-24  3.43779e-24        00000 
-4.33606e-25 -9.68262e-25        00000 
 1.32153e-25  1.93333e-25        00000 
-3.74215e-26 -1.96891e-26        00000 
 1.02725e-26 -4.53638e-27        00000 
-2.60290e-27  3.85977e-27        00000 
 5.45998e-28 -1.94150e-27        00000 
-1.45553e-29  9.21475e-28        00000 
 2.20639e-29 -5.72323e-28        00000 
-3.22723e-29  2.84498e-28        00000 
 3.41017e-29 -1.05624e-28        00000 
-2.72227e-29  2.06168e-29        00000 
 2.33182e-29  3.77513e-30        00000 
 8.71159e-25 -9.60048e-25        00000 
-1.21585e-24  1.91897e-24        00000 
 2.61478e-24 -6.92556e-24        00000 
-6.12695e-24  2.22596e-23        00000 
 1.33655e-23 -5.71324e-23        00000 
-2.64591e-23  1.22126e-22        00000 
 4.80805e-23 -2.45826e-22        00000 
-7.82195e-23  4.81703e-22        00000 
 1.03257e-22 -9.53126e-22        00000 
-1.22654e-22  1.07437e-21        00000 
 1.09055e-22 -1.04186e-21        00000 
-7.52726e-23  7.28125e-22        00000 
 4.05826e-23 -3.63396e-22        00000 
-1.75711e-23  1.29334e-22        00000 
 6.48922e-24 -3.18272e-23        00000 
-2.26847e-24  4.13245e-24        00000 
 8.14530e-25  7.43685e-25        00000 
-3.45454e-25 -5.32288e-25        00000 
 1.15941e-25  2.46901e-25        00000 
-3.72245e-26 -7.08358e-26        00000 
 1.12567e-26  1.44243e-26        00000 
-3.21257e-27 -1.53047e-27        00000 
 8.72433e-28 -3.66843e-28        00000 
-2.09682e-28  3.41356e-28        00000 
-7.10124e-30 -1.36344e-28        00000 
-3.61439e-30  1.00691e-28        00000 
 5.09257e-30 -5.49702e-29        00000 
-5.39129e-30  2.36821e-29        00000 
 4.81463e-30 -7.33154e-30        00000 
-4.41423e-30  2.46462e-30        00000 
-1.96161e-25  3.06407e-25        00000 
 2.76854e-25 -5.87431e-25        00000 
-5.77078e-25  1.70743e-24        00000 
 1.24545e-24 -3.78306e-24        00000 
-2.21063e-24 -3.64589e-24        00000 
 5.08669e-24 -9.92525e-24        00000 
-9.52312e-24  4.01467e-24        00000 
 1.32227e-23 -8.65932e-23        00000 
-1.79544e-23  1.51615e-22        00000 
 2.07875e-23 -1.78710e-22        00000 
-2.02924e-23  1.92507e-22        00000 
 1.45328e-23 -1.45079e-22        00000 
-7.53716e-24  7.18161e-23        00000 
 4.51551e-24 -2.59588e-23        00000 
-1.95645e-24  7.20471e-24        00000 
 4.44907e-25 -1.41039e-24        00000 
-2.06525e-25  4.98896e-25        00000 