<?xml version="1.0" encoding="utf-8"?>
<VTKFile byte_order="LittleEndian" type="UnstructuredGrid" version="0.1">
   <UnstructuredGrid>
      <Piece NumberOfCells="3364" NumberOfPoints="1741">
         <Points>
            <DataArray Name="Points" NumberOfComponents="3" format="ascii" type="Float32">
0.0000 1.0000 0.0000
0.0000 1.0345 0.0000
0.0000 1.0690 0.0000
0.0000 1.1034 0.0000
0.0000 1.1379 0.0000
0.0000 1.1724 0.0000
0.0000 1.2069 0.0000
0.0000 1.2414 0.0000
0.0000 1.2759 0.0000
0.0000 1.3103 0.0000
0.0000 1.3448 0.0000
0.0000 1.3793 0.0000
0.0000 1.4138 0.0000
0.0000 1.4483 0.0000
0.0000 1.4828 0.0000
0.0000 1.5172 0.0000
0.0000 1.5517 0.0000
0.0000 1.5862 0.0000
0.0000 1.6207 0.0000
0.0000 1.6552 0.0000
0.0000 1.6897 0.0000
0.0000 1.7241 0.0000
0.0000 1.7586 0.0000
0.0000 1.7931 0.0000
0.0000 1.8276 0.0000
0.0000 1.8621 0.0000
0.0000 1.8966 0.0000
0.0000 1.9310 0.0000
0.0000 1.9655 0.0000
0.0000 2.0000 0.0000
0.0690 1.0000 0.0000
0.0690 1.0345 0.0000
0.0690 1.0690 0.0000
0.0690 1.1034 0.0000
0.0690 1.1379 0.0000
0.0690 1.1724 0.0000
0.0690 1.2069 0.0000
0.0690 1.2414 0.0000
0.0690 1.2759 0.0000
0.0690 1.3103 0.0000
0.0690 1.3448 0.0000
0.0690 1.3793 0.0000
0.0690 1.4138 0.0000
0.0690 1.4483 0.0000
0.0690 1.4828 0.0000
0.0690 1.5172 0.0000
0.0690 1.5517 0.0000
0.0690 1.5862 0.0000
0.0690 1.6207 0.0000
0.0690 1.6552 0.0000
0.0690 1.6897 0.0000
0.0690 1.7241 0.0000
0.0690 1.7586 0.0000
0.0690 1.7931 0.0000
0.0690 1.8276 0.0000
0.0690 1.8621 0.0000
0.0690 1.8966 0.0000
0.0690 1.9310 0.0000
0.0690 1.9655 0.0000
0.0690 2.0000 0.0000
0.1379 1.0000 0.0000
0.1379 1.0345 0.0000
0.1379 1.0690 0.0000
0.1379 1.1034 0.0000
0.1379 1.1379 0.0000
0.1379 1.1724 0.0000
0.1379 1.2069 0.0000
0.1379 1.2414 0.0000
0.1379 1.2759 0.0000
0.1379 1.3103 0.0000
0.1379 1.3448 0.0000
0.1379 1.3793 0.0000
0.1379 1.4138 0.0000
0.1379 1.4483 0.0000
0.1379 1.4828 0.0000
0.1379 1.5172 0.0000
0.1379 1.5517 0.0000
0.1379 1.5862 0.0000
0.1379 1.6207 0.0000
0.1379 1.6552 0.0000
0.1379 1.6897 0.0000
0.1379 1.7241 0.0000
0.1379 1.7586 0.0000
0.1379 1.7931 0.0000
0.1379 1.8276 0.0000
0.1379 1.8621 0.0000
0.1379 1.8966 0.0000
0.1379 1.9310 0.0000
0.1379 1.9655 0.0000
0.1379 2.0000 0.0000
0.2069 1.0000 0.0000
0.2069 1.0345 0.0000
0.2069 1.0690 0.0000
0.2069 1.1034 0.0000
0.2069 1.1379 0.0000
0.2069 1.1724 0.0000
0.2069 1.2069 0.0000
0.2069 1.2414 0.0000
0.2069 1.2759 0.0000
0.2069 1.3103 0.0000
0.2069 1.3448 0.0000
0.2069 1.3793 0.0000
0.2069 1.4138 0.0000
0.2069 1.4483 0.0000
0.2069 1.4828 0.0000
0.2069 1.5172 0.0000
0.2069 1.5517 0.0000
0.2069 1.5862 0.0000
0.2069 1.6207 0.0000
0.2069 1.6552 0.0000
0.2069 1.6897 0.0000
0.2069 1.7241 0.0000
0.2069 1.7586 0.0000
0.2069 1.7931 0.0000
0.2069 1.8276 0.0000
0.2069 1.8621 0.0000
0.2069 1.8966 0.0000
0.2069 1.9310 0.0000
0.2069 1.9655 0.0000
0.2069 2.0000 0.0000
0.2759 1.0000 0.0000
0.2759 1.0345 0.0000
0.2759 1.0690 0.0000
0.2759 1.1034 0.0000
0.2759 1.1379 0.0000
0.2759 1.1724 0.0000
0.2759 1.2069 0.0000
0.2759 1.2414 0.0000
0.2759 1.2759 0.0000
0.2759 1.3103 0.0000
0.2759 1.3448 0.0000
0.2759 1.3793 0.0000
0.2759 1.4138 0.0000
0.2759 1.4483 0.0000
0.2759 1.4828 0.0000
0.2759 1.5172 0.0000
0.2759 1.5517 0.0000
0.2759 1.5862 0.0000
0.2759 1.6207 0.0000
0.2759 1.6552 0.0000
0.2759 1.6897 0.0000
0.2759 1.7241 0.0000
0.2759 1.7586 0.0000
0.2759 1.7931 0.0000
0.2759 1.8276 0.0000
0.2759 1.8621 0.0000
0.2759 1.8966 0.0000
0.2759 1.9310 0.0000
0.2759 1.9655 0.0000
0.2759 2.0000 0.0000
0.3448 1.0000 0.0000
0.3448 1.0345 0.0000
0.3448 1.0690 0.0000
0.3448 1.1034 0.0000
0.3448 1.1379 0.0000
0.3448 1.1724 0.0000
0.3448 1.2069 0.0000
0.3448 1.2414 0.0000
0.3448 1.2759 0.0000
0.3448 1.3103 0.0000
0.3448 1.3448 0.0000
0.3448 1.3793 0.0000
0.3448 1.4138 0.0000
0.3448 1.4483 0.0000
0.3448 1.4828 0.0000
0.3448 1.5172 0.0000
0.3448 1.5517 0.0000
0.3448 1.5862 0.0000
0.3448 1.6207 0.0000
0.3448 1.6552 0.0000
0.3448 1.6897 0.0000
0.3448 1.7241 0.0000
0.3448 1.7586 0.0000
0.3448 1.7931 0.0000
0.3448 1.8276 0.0000
0.3448 1.8621 0.0000
0.3448 1.8966 0.0000
0.3448 1.9310 0.0000
0.3448 1.9655 0.0000
0.3448 2.0000 0.0000
0.4138 1.0000 0.0000
0.4138 1.0345 0.0000
0.4138 1.0690 0.0000
0.4138 1.1034 0.0000
0.4138 1.1379 0.0000
0.4138 1.1724 0.0000
0.4138 1.2069 0.0000
0.4138 1.2414 0.0000
0.4138 1.2759 0.0000
0.4138 1.3103 0.0000
0.4138 1.3448 0.0000
0.4138 1.3793 0.0000
0.4138 1.4138 0.0000
0.4138 1.4483 0.0000
0.4138 1.4828 0.0000
0.4138 1.5172 0.0000
0.4138 1.5517 0.0000
0.4138 1.5862 0.0000
0.4138 1.6207 0.0000
0.4138 1.6552 0.0000
0.4138 1.6897 0.0000
0.4138 1.7241 0.0000
0.4138 1.7586 0.0000
0.4138 1.7931 0.0000
0.4138 1.8276 0.0000
0.4138 1.8621 0.0000
0.4138 1.8966 0.0000
0.4138 1.9310 0.0000
0.4138 1.9655 0.0000
0.4138 2.0000 0.0000
0.4828 1.0000 0.0000
0.4828 1.0345 0.0000
0.4828 1.0690 0.0000
0.4828 1.1034 0.0000
0.4828 1.1379 0.0000
0.4828 1.1724 0.0000
0.4828 1.2069 0.0000
0.4828 1.2414 0.0000
0.4828 1.2759 0.0000
0.4828 1.3103 0.0000
0.4828 1.3448 0.0000
0.4828 1.3793 0.0000
0.4828 1.4138 0.0000
0.4828 1.4483 0.0000
0.4828 1.4828 0.0000
0.4828 1.5172 0.0000
0.4828 1.5517 0.0000
0.4828 1.5862 0.0000
0.4828 1.6207 0.0000
0.4828 1.6552 0.0000
0.4828 1.6897 0.0000
0.4828 1.7241 0.0000
0.4828 1.7586 0.0000
0.4828 1.7931 0.0000
0.4828 1.8276 0.0000
0.4828 1.8621 0.0000
0.4828 1.8966 0.0000
0.4828 1.9310 0.0000
0.4828 1.9655 0.0000
0.4828 2.0000 0.0000
0.5517 1.0000 0.0000
0.5517 1.0345 0.0000
0.5517 1.0690 0.0000
0.5517 1.1034 0.0000
0.5517 1.1379 0.0000
0.5517 1.1724 0.0000
0.5517 1.2069 0.0000
0.5517 1.2414 0.0000
0.5517 1.2759 0.0000
0.5517 1.3103 0.0000
0.5517 1.3448 0.0000
0.5517 1.3793 0.0000
0.5517 1.4138 0.0000
0.5517 1.4483 0.0000
0.5517 1.4828 0.0000
0.5517 1.5172 0.0000
0.5517 1.5517 0.0000
0.5517 1.5862 0.0000
0.5517 1.6207 0.0000
0.5517 1.6552 0.0000
0.5517 1.6897 0.0000
0.5517 1.7241 0.0000
0.5517 1.7586 0.0000
0.5517 1.7931 0.0000
0.5517 1.8276 0.0000
0.5517 1.8621 0.0000
0.5517 1.8966 0.0000
0.5517 1.9310 0.0000
0.5517 1.9655 0.0000
0.5517 2.0000 0.0000
0.6207 1.0000 0.0000
0.6207 1.0345 0.0000
0.6207 1.0690 0.0000
0.6207 1.1034 0.0000
0.6207 1.1379 0.0000
0.6207 1.1724 0.0000
0.6207 1.2069 0.0000
0.6207 1.2414 0.0000
0.6207 1.2759 0.0000
0.6207 1.3103 0.0000
0.6207 1.3448 0.0000
0.6207 1.3793 0.0000
0.6207 1.4138 0.0000
0.6207 1.4483 0.0000
0.6207 1.4828 0.0000
0.6207 1.5172 0.0000
0.6207 1.5517 0.0000
0.6207 1.5862 0.0000
0.6207 1.6207 0.0000
0.6207 1.6552 0.0000
0.6207 1.6897 0.0000
0.6207 1.7241 0.0000
0.6207 1.7586 0.0000
0.6207 1.7931 0.0000
0.6207 1.8276 0.0000
0.6207 1.8621 0.0000
0.6207 1.8966 0.0000
0.6207 1.9310 0.0000
0.6207 1.9655 0.0000
0.6207 2.0000 0.0000
0.6897 1.0000 0.0000
0.6897 1.0345 0.0000
0.6897 1.0690 0.0000
0.6897 1.1034 0.0000
0.6897 1.1379 0.0000
0.6897 1.1724 0.0000
0.6897 1.2069 0.0000
0.6897 1.2414 0.0000
0.6897 1.2759 0.0000
0.6897 1.3103 0.0000
0.6897 1.3448 0.0000
0.6897 1.3793 0.0000
0.6897 1.4138 0.0000
0.6897 1.4483 0.0000
0.6897 1.4828 0.0000
0.6897 1.5172 0.0000
0.6897 1.5517 0.0000
0.6897 1.5862 0.0000
0.6897 1.6207 0.0000
0.6897 1.6552 0.0000
0.6897 1.6897 0.0000
0.6897 1.7241 0.0000
0.6897 1.7586 0.0000
0.6897 1.7931 0.0000
0.6897 1.8276 0.0000
0.6897 1.8621 0.0000
0.6897 1.8966 0.0000
0.6897 1.9310 0.0000
0.6897 1.9655 0.0000
0.6897 2.0000 0.0000
0.7586 1.0000 0.0000
0.7586 1.0345 0.0000
0.7586 1.0690 0.0000
0.7586 1.1034 0.0000
0.7586 1.1379 0.0000
0.7586 1.1724 0.0000
0.7586 1.2069 0.0000
0.7586 1.2414 0.0000
0.7586 1.2759 0.0000
0.7586 1.3103 0.0000
0.7586 1.3448 0.0000
0.7586 1.3793 0.0000
0.7586 1.4138 0.0000
0.7586 1.4483 0.0000
0.7586 1.4828 0.0000
0.7586 1.5172 0.0000
0.7586 1.5517 0.0000
0.7586 1.5862 0.0000
0.7586 1.6207 0.0000
0.7586 1.6552 0.0000
0.7586 1.6897 0.0000
0.7586 1.7241 0.0000
0.7586 1.7586 0.0000
0.7586 1.7931 0.0000
0.7586 1.8276 0.0000
0.7586 1.8621 0.0000
0.7586 1.8966 0.0000
0.7586 1.9310 0.0000
0.7586 1.9655 0.0000
0.7586 2.0000 0.0000
0.8276 1.0000 0.0000
0.8276 1.0345 0.0000
0.8276 1.0690 0.0000
0.8276 1.1034 0.0000
0.8276 1.1379 0.0000
0.8276 1.1724 0.0000
0.8276 1.2069 0.0000
0.8276 1.2414 0.0000
0.8276 1.2759 0.0000
0.8276 1.3103 0.0000
0.8276 1.3448 0.0000
0.8276 1.3793 0.0000
0.8276 1.4138 0.0000
0.8276 1.4483 0.0000
0.8276 1.4828 0.0000
0.8276 1.5172 0.0000
0.8276 1.5517 0.0000
0.8276 1.5862 0.0000
0.8276 1.6207 0.0000
0.8276 1.6552 0.0000
0.8276 1.6897 0.0000
0.8276 1.7241 0.0000
0.8276 1.7586 0.0000
0.8276 1.7931 0.0000
0.8276 1.8276 0.0000
0.8276 1.8621 0.0000
0.8276 1.8966 0.0000
0.8276 1.9310 0.0000
0.8276 1.9655 0.0000
0.8276 2.0000 0.0000
0.8966 1.0000 0.0000
0.8966 1.0345 0.0000
0.8966 1.0690 0.0000
0.8966 1.1034 0.0000
0.8966 1.1379 0.0000
0.8966 1.1724 0.0000
0.8966 1.2069 0.0000
0.8966 1.2414 0.0000
0.8966 1.2759 0.0000
0.8966 1.3103 0.0000
0.8966 1.3448 0.0000
0.8966 1.3793 0.0000
0.8966 1.4138 0.0000
0.8966 1.4483 0.0000
0.8966 1.4828 0.0000
0.8966 1.5172 0.0000
0.8966 1.5517 0.0000
0.8966 1.5862 0.0000
0.8966 1.6207 0.0000
0.8966 1.6552 0.0000
0.8966 1.6897 0.0000
0.8966 1.7241 0.0000
0.8966 1.7586 0.0000
0.8966 1.7931 0.0000
0.8966 1.8276 0.0000
0.8966 1.8621 0.0000
0.8966 1.8966 0.0000
0.8966 1.9310 0.0000
0.8966 1.9655 0.0000
0.8966 2.0000 0.0000
0.9655 1.0000 0.0000
0.9655 1.0345 0.0000
0.9655 1.0690 0.0000
0.9655 1.1034 0.0000
0.9655 1.1379 0.0000
0.9655 1.1724 0.0000
0.9655 1.2069 0.0000
0.9655 1.2414 0.0000
0.9655 1.2759 0.0000
0.9655 1.3103 0.0000
0.9655 1.3448 0.0000
0.9655 1.3793 0.0000
0.9655 1.4138 0.0000
0.9655 1.4483 0.0000
0.9655 1.4828 0.0000
0.9655 1.5172 0.0000
0.9655 1.5517 0.0000
0.9655 1.5862 0.0000
0.9655 1.6207 0.0000
0.9655 1.6552 0.0000
0.9655 1.6897 0.0000
0.9655 1.7241 0.0000
0.9655 1.7586 0.0000
0.9655 1.7931 0.0000
0.9655 1.8276 0.0000
0.9655 1.8621 0.0000
0.9655 1.8966 0.0000
0.9655 1.9310 0.0000
0.9655 1.9655 0.0000
0.9655 2.0000 0.0000
1.0345 1.0000 0.0000
1.0345 1.0345 0.0000
1.0345 1.0690 0.0000
1.0345 1.1034 0.0000
1.0345 1.1379 0.0000
1.0345 1.1724 0.0000
1.0345 1.2069 0.0000
1.0345 1.2414 0.0000
1.0345 1.2759 0.0000
1.0345 1.3103 0.0000
1.0345 1.3448 0.0000
[...]
         <PointData>
            <DataArray Name="fValues" NumberOfComponents="3" format="ascii" type="Float64">
 2.45641e-24  6.21048e-24        00000 
-9.82565e-24 -2.80733e-24        00000 
 5.55220e-24 -2.22088e-23        00000 
 6.69689e-23 -6.69689e-23        00000 
-1.33253e-22  5.33011e-22        00000 
 1.85991e-21 -3.52520e-21        00000 
 2.48738e-21 -3.10923e-22        00000 
-2.39972e-22  2.48343e-22        00000 
 1.98991e-20  1.49243e-20        00000 
-4.39706e-21  3.85651e-20        00000 
 5.68545e-20  2.55135e-19        00000 
 3.92884e-20  6.85762e-20        00000 
 6.82254e-20  2.72902e-19        00000 
-8.47694e-21  7.94861e-19        00000 
       00000 -7.27738e-19        00000 
-4.14314e-20  5.32894e-19        00000 
-4.54836e-20  1.38725e-18        00000 
 8.92010e-21  9.73245e-20        00000 
-1.36451e-19 -4.09352e-19        00000 
 4.07171e-20  1.05627e-19        00000 
-6.25400e-20  7.36444e-20        00000 
 3.43587e-20  3.61526e-20        00000 
-2.55845e-20  1.93216e-20        00000 
 4.73247e-21  2.48343e-21        00000 
-2.20422e-21 -5.99637e-22        00000 
 2.03613e-22 -2.59042e-23        00000 
-7.77308e-23 -4.44176e-23        00000 
 2.48107e-23 -8.38673e-24        00000 
-1.50495e-23 -8.60754e-24        00000 
-1.09274e-23 -9.78353e-24        00000 
-9.98321e-08 -1.82608e-08        00000 
-2.65093e-08 -4.25249e-08        00000 
-5.02787e-09 -1.75290e-07        00000 
 2.42152e-07 -5.89727e-07        00000 
 1.37480e-06 -1.74277e-06        00000 
 5.41381e-06 -4.36624e-06        00000 
 1.76652e-05 -8.71364e-06        00000 
 4.98255e-05 -1.14781e-05        00000 
 1.22438e-04  1.42144e-06        00000 
 2.60510e-04  6.47325e-05        00000 
 4.72816e-04  2.35860e-04        00000 
 7.14684e-04  5.70121e-04        00000 
 8.64443e-04  1.06355e-03        00000 
 7.68560e-04  1.60171e-03        00000 
 3.66124e-04  1.98362e-03        00000 
-2.10550e-04  2.03660e-03        00000 
-6.96138e-04  1.73311e-03        00000 
-8.89471e-04  1.20767e-03        00000 
-7.89066e-04  6.71629e-04        00000 
-5.42465e-04  2.81285e-04        00000 
-3.02050e-04  7.25192e-05        00000 
-1.39349e-04 -4.93332e-06        00000 
-5.37342e-05 -1.85058e-05        00000 
-1.71094e-05 -1.27164e-05        00000 
-4.19385e-06 -5.96775e-06        00000 
-5.27922e-07 -2.19838e-06        00000 
 1.97434e-07 -6.55628e-07        00000 
 1.99000e-07 -1.51725e-07        00000 
 1.00073e-07 -1.04574e-08        00000 
 1.52221e-07  5.57086e-09        00000 
 9.36773e-08  3.91742e-08        00000 
 2.80097e-08  9.19553e-08        00000 
-1.76015e-08  3.22910e-07        00000 
-2.60525e-07  1.11247e-06        00000 
-1.26719e-06  3.40760e-06        00000 
-4.75731e-06  9.04719e-06        00000 
-1.56148e-05  1.99941e-05        00000 
-4.60885e-05  3.33490e-05        00000 
-1.21919e-04  2.68662e-05        00000 
-2.84089e-04 -6.64509e-05        00000 
-5.68446e-04 -3.76100e-04        00000 
-9.44766e-04 -1.05450e-03        00000 
-1.24329e-03 -2.13963e-03        00000 
-1.18237e-03 -3.39197e-03        00000 
-5.91228e-04 -4.31223e-03        00000 
 3.31487e-04 -4.44410e-03        00000 
 1.08743e-03 -3.71456e-03        00000 
 1.31569e-03 -2.47479e-03        00000 
 1.07455e-03 -1.26733e-03        00000 
 6.66120e-04 -4.53100e-04        00000 
 3.30235e-04 -6.66848e-05        00000 
 1.35315e-04  4.72597e-05        00000 
 4.68001e-05  4.92023e-05        00000 
 1.36622e-05  2.76759e-05        00000 
 3.16032e-06  1.17341e-05        00000 
 3.75643e-07  4.03965e-06        00000 
-1.63531e-07  1.13636e-06        00000 
-1.63656e-07  2.41256e-07        00000 
-1.01336e-07  2.62506e-08        00000 
-1.39875e-07 -9.65586e-09        00000 
-6.53643e-08 -5.98521e-08        00000 
-7.82027e-09 -1.34407e-07        00000 
 4.84840e-08 -4.27468e-07        00000 
 2.39539e-07 -1.40358e-06        00000 
 8.36608e-07 -4.24073e-06        00000 
 2.62528e-06 -1.14998e-05        00000 
 8.25740e-06 -2.70627e-05        00000 
 2.65402e-05 -5.15431e-05        00000 
 8.27807e-05 -6.39013e-05        00000 
 2.34034e-04  2.18048e-05        00000 
 5.66481e-04  4.11442e-04        00000 
 1.11789e-03  1.41272e-03        00000 
 1.70123e-03  3.20783e-03        00000 
 1.81361e-03  5.45830e-03        00000 
 9.86115e-04  7.19903e-03        00000 
-5.31394e-04  7.45786e-03        00000 
-1.72062e-03  6.08412e-03        00000 
-1.89281e-03  3.80583e-03        00000 
-1.33635e-03  1.73424e-03        00000 
-6.83679e-04  4.88286e-04        00000 
-2.67328e-04 -6.08326e-06        00000 
-8.29378e-05 -1.02981e-04        00000 
-2.12608e-05 -7.44674e-05        00000 
-4.77599e-06 -3.64579e-05        00000 
-9.94328e-07 -1.43813e-05        00000 
-1.51953e-07 -4.80993e-06        00000 
 4.24510e-08 -1.36429e-06        00000 
 6.62017e-08 -3.05991e-07        00000 
 5.37748e-08 -4.65210e-08        00000 
 9.01805e-08  6.04328e-09        00000 
 2.88997e-08  8.09163e-08        00000 
-1.34126e-08  1.71735e-07        00000 
-7.05925e-08  4.99413e-07        00000 
-1.97955e-07  1.51124e-06        00000 
-3.85516e-07  4.33864e-06        00000 
-4.52719e-07  1.16869e-05        00000 
-2.91348e-07  2.89008e-05        00000 
-2.66659e-06  6.24101e-05        00000 
-2.51636e-05  1.04391e-04        00000 
-1.31288e-04  7.78407e-05        00000 
-4.71763e-04 -2.78831e-04        00000 
-1.23880e-03 -1.50057e-03        00000 
-2.34674e-03 -4.13969e-03        00000 
-2.96116e-03 -7.92617e-03        00000 
-1.83112e-03 -1.11247e-02        00000 
 9.36558e-04 -1.16334e-02        00000 
 2.97636e-03 -9.11633e-03        00000 
 2.82152e-03 -5.11754e-03        00000 
 1.58381e-03 -1.88387e-03        00000 
 5.77946e-04 -2.85964e-04        00000 
 1.27916e-04  1.60997e-04        00000 
 6.07119e-06  1.62207e-04        00000 
-8.13486e-06  8.76398e-05        00000 
-3.83580e-06  3.73766e-05        00000 
-8.29164e-07  1.39164e-05        00000 
 1.90573e-08  4.68185e-06        00000 
 8.89779e-08  1.41026e-06        00000 
 3.46598e-08  3.56839e-07        00000 
 2.07794e-09  7.21644e-08        00000 
-2.60960e-08  5.56800e-09        00000 
 9.20393e-09 -9.71494e-08        00000 
 2.67341e-08 -1.98250e-07        00000 
 6.71700e-08 -5.38517e-07        00000 
 1.11074e-07 -1.49200e-06        00000 
-4.98826e-08 -3.94853e-06        00000 
-1.27629e-06 -1.01521e-05        00000 
-5.99089e-06 -2.55923e-05        00000 
-1.83259e-05 -6.17718e-05        00000 
-3.63995e-05 -1.32412e-04        00000 
-1.46617e-05 -2.08977e-04        00000 
 2.34720e-04 -5.47498e-05        00000 
 1.15039e-03  1.09668e-03        00000 
 3.08802e-03  4.55692e-03        00000 
 5.00358e-03  1.07667e-02        00000 
 3.76443e-03  1.69148e-02        00000 
-1.80532e-03  1.80979e-02        00000 
-5.59279e-03  1.31275e-02        00000 
-4.17321e-03  6.01318e-03        00000 
-1.58358e-03  1.35209e-03        00000 
-2.40930e-04 -2.33197e-04        00000 
 7.94988e-05 -3.59660e-04        00000 
 7.15411e-05 -1.95865e-04        00000 
 3.08953e-05 -8.18250e-05        00000 
 9.36254e-06 -3.09334e-05        00000 
 1.93706e-06 -1.13265e-05        00000 
 8.89575e-08 -4.03555e-06        00000 
-1.61790e-07 -1.34208e-06        00000 
-1.05931e-07 -3.85972e-07        00000 
-5.01242e-08 -9.39255e-08        00000 
-4.10442e-08 -1.83990e-08        00000 
-4.50286e-08  1.02821e-07        00000 
-2.99235e-08  2.04880e-07        00000 
-3.51108e-08  5.33552e-07        00000 
 3.37836e-08  1.37752e-06        00000 
 5.11265e-07  3.33206e-06        00000 
 2.57628e-06  7.82978e-06        00000 
 9.85107e-06  1.89380e-05        00000 
 3.15481e-05  4.88959e-05        00000 
 8.39857e-05  1.29162e-04        00000 
 1.68432e-04  3.07131e-04        00000 
 1.48371e-04  5.13470e-04        00000 
-5.79114e-04  1.08663e-05        00000 
-3.38978e-03 -3.58740e-03        00000 
-8.20930e-03 -1.32432e-02        00000 
-8.34887e-03 -2.60537e-02        00000 
 3.72306e-03 -3.00790e-02        00000 
 1.11492e-02 -1.80199e-02        00000 
 5.47367e-03 -5.18756e-03        00000 
 7.61153e-04  3.81736e-04        00000 
-3.75378e-04  9.65666e-04        00000 
-2.77570e-04  4.76448e-04        00000 
-1.20743e-04  1.72405e-04        00000 
-4.07908e-05  5.78633e-05        00000 
-1.15918e-05  2.06957e-05        00000 
-2.60266e-06  8.07532e-06        00000 
-2.80397e-07  3.19625e-06        00000 
 1.49672e-07  1.17560e-06        00000 
 1.38993e-07  3.71110e-07        00000 
 8.37444e-08  9.92657e-08        00000 
 1.02170e-07  2.61043e-08        00000 
 7.49825e-08 -9.43858e-08        00000 
 2.49376e-08 -1.84581e-07        00000 
-1.48295e-08 -4.70810e-07        00000 
-2.14782e-07 -1.16343e-06        00000 
-1.00432e-06 -2.62349e-06        00000 
-3.65219e-06 -5.53857e-06        00000 
-1.19026e-05 -1.18504e-05        00000 
-3.64184e-05 -2.95461e-05        00000 
-1.04649e-04 -9.09513e-05        00000 
-2.69679e-04 -2.98738e-04        00000 
-5.52464e-04 -8.51415e-04        00000 
-5.31613e-04 -1.63308e-03        00000 
 1.80693e-03 -1.40865e-04        00000 
 1.11588e-02  1.21447e-02        00000 
 1.85009e-02  4.05117e-02        00000 
-7.66234e-03  6.07721e-02        00000 
-2.20918e-02  1.97603e-02        00000 
-4.09892e-03 -6.99413e-04        00000 
 1.47741e-03 -3.28778e-03        00000 
 8.65638e-04 -1.34212e-03        00000 
 3.63040e-04 -3.79132e-04        00000 
 1.24174e-04 -9.65060e-05        00000 
 3.98459e-05 -2.85665e-05        00000 
 1.19219e-05 -1.12268e-05        00000 
 3.12159e-06 -5.07334e-06        00000 
 5.38709e-07 -2.22730e-06        00000 
-8.07283e-08 -8.76069e-07        00000 
-1.39793e-07 -2.91412e-07        00000 
-9.76292e-08 -7.86722e-08        00000 
-1.45270e-07 -2.54986e-08        00000 
-9.38547e-08  7.12306e-08        00000 
-1.44313e-08  1.34380e-07        00000 
 6.33272e-08  3.43544e-07        00000 
 3.73276e-07  8.29027e-07        00000 
 1.41450e-06  1.79616e-06        00000 
 4.46155e-06  3.50160e-06        00000 
 1.28625e-05  6.35288e-06        00000 
 3.58212e-05  1.27958e-05        00000 
 9.97892e-05  4.00395e-05        00000 
 2.78781e-04  1.78917e-04        00000 
 7.40296e-04  7.83079e-04        00000 
 1.64844e-03  2.73806e-03        00000 
 1.91828e-03  6.22598e-03        00000 
-4.35912e-03  9.41195e-04        00000 
-3.33814e-02 -5.67804e-02        00000 
 1.33792e-02 -1.78048e-01        00000 
 3.47828e-02  1.15905e-02        00000 
-6.56314e-03  1.47266e-02        00000 
-2.13718e-03  4.26689e-03        00000 
-8.38665e-04  8.21368e-04        00000 
-2.71883e-04  1.36636e-04        00000 
-9.14356e-05  2.62747e-05        00000 
-3.08966e-05  9.15423e-06        00000 
-1.01747e-05  4.55914e-06        00000 
-2.97630e-06  2.26537e-06        00000 
-6.28279e-07  1.01341e-06        00000 
 1.39037e-08  3.97396e-07        00000 
 1.11478e-07  1.29257e-07        00000 
 7.25215e-08  1.96995e-08        00000 
 1.46621e-07  1.09769e-08        00000 
 9.02279e-08 -3.12261e-08        00000 
-2.66428e-09 -5.08810e-08        00000 
-7.81011e-08 -1.55617e-07        00000 
-3.94541e-07 -3.83712e-07        00000 
-1.39596e-06 -8.46472e-07        00000 
-4.16715e-06 -1.67374e-06        00000 
-1.12937e-05 -2.93296e-06        00000 
-2.91403e-05 -4.72734e-06        00000 
-7.50234e-05 -1.05050e-05        00000 
-2.01792e-04 -5.49858e-05        00000 
-5.79740e-04 -3.68282e-04        00000 
-1.70607e-03 -2.08629e-03        00000 
-4.76155e-03 -8.94449e-03        00000 
-1.05265e-02 -2.28613e-02        00000 
-1.93001e-02  3.56151e-02        00000 
 8.45362e-03  7.72526e-01        00000 
 3.16177e-04 -2.44778e-01        00000 
-7.16059e-05 -7.33360e-03        00000 
-2.61283e-05 -1.62980e-03        00000 
-1.02676e-05 -4.63388e-04        00000 
-3.36230e-06 -1.62935e-04        00000 
-1.13017e-06 -6.03358e-05        00000 
-3.81495e-07 -2.08526e-05        00000 
-1.25517e-07 -6.08731e-06        00000 
-3.67937e-08 -1.14934e-06        00000 
-7.85065e-09  1.69309e-07        00000 
 9.68902e-11  3.38944e-07        00000 
 1.33432e-09  2.43804e-07        00000 
 9.21299e-10  1.49848e-07        00000 
 7.57188e-09  5.33147e-08        00000 
 5.32484e-09 -3.96411e-08        00000 
-1.29795e-11 -8.20591e-08        00000 
-9.79176e-10 -6.13038e-08        00000 
-4.87685e-09  1.07992e-07        00000 
-1.71721e-08  8.09267e-07        00000 
-5.11605e-08  3.05844e-06        00000 
-1.38614e-07  9.32689e-06        00000 
-3.58121e-07  2.52382e-05        00000 
-9.24426e-07  6.31092e-05        00000 
-2.49262e-06  1.51116e-04        00000 
-7.15411e-06  3.71355e-04        00000 
-2.09254e-05  1.07417e-03        00000 
-5.76133e-05  4.06466e-03        00000 
-1.25616e-04  1.79426e-02        00000 
-2.21344e-04  7.35704e-02        00000 
 9.43653e-05  2.11150e-01        00000 
-1.88455e-18  7.57205e-18        00000 
 5.44632e-19 -5.27856e-18        00000 
-1.13622e-19  1.09991e-18        00000 
 4.51061e-20 -1.80106e-19        00000 
-1.45645e-20  3.31821e-20        00000 
 3.30071e-21 -2.85638e-21        00000 
-9.33356e-22 -1.04416e-21        00000 
 2.57021e-22 -1.65053e-22        00000 
-4.18729e-23 -6.28247e-23        00000 
-1.01223e-23  5.12777e-23        00000 
 4.73490e-24 -9.64720e-24        00000 
-7.99141e-25  1.92277e-23        00000 
-1.34304e-24 -6.14744e-24        00000 
 2.07448e-24  2.11580e-24        00000 
 1.68100e-25  1.26823e-24        00000 
-5.74929e-25 -3.43103e-24        00000 
 6.19910e-25  4.46335e-24        00000 
 4.08674e-24 -2.17769e-24        00000 
-1.88464e-23  1.98383e-23        00000 
 3.55544e-23 -1.17832e-22        00000 
 4.37621e-24  5.56732e-23        00000 
-1.88307e-22 -1.52526e-21        00000 
 5.72402e-22  9.82623e-21        00000 
-2.04138e-21 -2.33852e-20        00000 
 2.80419e-21  7.28233e-20        00000 
-2.41315e-21 -1.35918e-19        00000 
 3.38124e-20  4.91811e-19        00000 
-8.68119e-20 -1.19455e-19        00000 
 2.76126e-19 -3.58469e-18        00000 
-4.81931e-19  8.79894e-18        00000 
 3.70299e-19 -2.86449e-18        00000 
-1.44443e-19  9.61882e-19        00000 
 4.24140e-20 -3.65476e-19        00000 
-1.18208e-20  8.61829e-20        00000 
 3.74547e-21 -1.92035e-20        00000 
-1.14668e-21  3.12109e-21        00000 
 2.99873e-22 -3.47398e-22        00000 
-8.16930e-23  1.02436e-23        00000 
 2.44468e-23 -9.00772e-24        00000 
-2.67699e-24 -6.19965e-24        00000 
-4.76938e-25  4.52374e-24        00000 
 1.99690e-25 -2.57309e-24        00000 
 1.48572e-25  1.48695e-24        00000 
-2.68831e-25 -8.37798e-25        00000 
-1.03782e-25 -3.55093e-25        00000 
 5.60063e-26  8.21698e-25        00000 
 4.10779e-25 -1.81338e-24        00000 
-6.55366e-25  2.80183e-24        00000 
 2.87429e-24 -1.38815e-23        00000 
 4.14431e-25  6.19341e-23        00000 
-1.29561e-23 -1.53816e-22        00000 
 4.34317e-23  7.19064e-22        00000 
-1.70385e-22 -1.94874e-21        00000 
 4.60249e-22  5.16590e-21        00000 
-9.46529e-22 -1.38851e-20        00000 
 2.43104e-21  3.10642e-20        00000 
-8.20568e-21 -4.44864e-20        00000 
 2.22099e-20  8.01735e-21        00000 
-4.50886e-20  4.01004e-19        00000 
 6.42598e-20 -7.64284e-19        00000 
-5.78080e-20  6.04205e-19        00000 
 3.10172e-20 -2.76291e-19        00000 
-1.16950e-20  8.68807e-20        00000 
 3.67496e-21 -2.86541e-20        00000 
-1.21842e-21  6.26509e-21        00000 
 3.02101e-22 -1.95173e-21        00000 
-9.45825e-23  2.69704e-22        00000 
 2.39781e-23 -4.02178e-23        00000 
-6.95627e-24  7.45315e-25        00000 
 1.65576e-24  6.73992e-26        00000 
-2.00541e-25 -6.55607e-25        00000 
-4.86485e-27  4.02969e-25        00000 
-1.62127e-26 -2.79361e-25        00000 
 3.27516e-26  2.12663e-25        00000 
 9.37127e-27  1.14902e-25        00000 
 1.18358e-26 -1.79929e-25        00000 
-6.63600e-26  3.82488e-25        00000 
 1.81522e-25 -1.21133e-24        00000 
-1.65542e-25  4.77959e-24        00000 
-7.02182e-25 -1.55724e-23        00000 
 3.70812e-24  5.48989e-23        00000 
-1.33841e-23 -1.71251e-22        00000 
 3.96089e-23  4.70276e-22        00000 
-9.66772e-23 -1.20520e-21        00000 
 2.37219e-22  2.77704e-21        00000 
-6.79448e-22 -4.79075e-21        00000 
 1.88096e-21  3.50472e-21        00000 
-4.27054e-21  1.73181e-20        00000 
 7.47109e-21 -6.57474e-20        00000 
-9.64517e-21  1.03641e-19        00000 
 9.04688e-21 -9.09765e-20        00000 
-5.67067e-21  5.38438e-20        00000 
 2.62960e-21 -2.22151e-20        00000 
-9.72285e-22  7.44255e-21        00000 
 3.20494e-22 -2.23054e-21        00000 
-9.85328e-23  5.79389e-22        00000 
 2.76591e-23 -1.44113e-22        00000 
-7.91628e-24  2.58734e-23        00000 
 1.54579e-24 -4.87041e-24        00000 
-5.28324e-25  4.96932e-25        00000 
 1.21377e-25  1.55379e-26        00000 
-1.88544e-26 -6.18874e-26        00000 
 4.35076e-27  5.03510e-26        00000 
-4.34323e-27 -4.34661e-26        00000 
 8.62540e-28 -2.86292e-26        00000 
-4.05674e-27  4.33450e-26        00000 
 1.34647e-26 -1.16045e-25        00000 
-1.94616e-26  4.01429e-25        00000 
-2.93682e-26 -1.37564e-24        00000 
 2.73756e-25  4.60932e-24        00000 
-1.08841e-24 -1.45094e-23        00000 
 3.44586e-24  4.12648e-23        00000 
-9.93745e-24 -1.06952e-22        00000 
 2.28049e-23  2.50383e-22        00000 
-6.03447e-23 -4.77737e-22        00000 
 1.62037e-22  5.59077e-22        00000 
-3.89482e-22  5.18507e-22        00000 
 7.73576e-22 -4.38963e-21        00000 
-1.22043e-21  1.06411e-20        00000 
 1.49779e-21 -1.50616e-20        00000 
-1.39659e-21  1.39542e-20        00000 
 9.82765e-22 -9.44962e-21        00000 
-5.26079e-22  4.71998e-21        00000 
 2.25914e-22 -1.85355e-21        00000 
-8.25724e-23  6.19038e-22        00000 
 2.72501e-23 -1.83675e-22        00000 
-8.33731e-24  4.89312e-23        00000 
 2.38897e-24 -1.17520e-23        00000 
-6.35702e-25  3.16689e-24        00000 
 1.56066e-25 -4.82835e-25        00000 
-4.30428e-26  6.02470e-26        00000 
 9.85123e-27  1.10201e-27        00000 
-2.12321e-27 -7.86545e-27        00000 
 1.01614e-27  7.93409e-27        00000 
-5.13265e-28  7.25264e-27        00000 
 9.84311e-28 -1.20353e-26        00000 
-1.79191e-27  3.57423e-26        00000 
-6.70367e-28 -1.19957e-25        00000 
 1.86650e-26  3.96233e-25        00000 
-8.61427e-26 -1.24118e-24        00000 
 2.91718e-25  3.58915e-24        00000 
-8.64222e-25 -9.47471e-24        00000 
 2.32697e-24  2.22769e-23        00000 
-5.56457e-24 -4.63054e-23        00000 
 1.43341e-23  6.87309e-23        00000 
-3.51726e-23 -2.39308e-23        00000 
 7.56172e-23 -2.44143e-22        00000 
-1.35946e-22  8.74798e-22        00000 
 1.99660e-22 -1.71783e-21        00000 
-2.36075e-22  2.28452e-21        00000 
 2.24082e-22 -2.24285e-21        00000 
-1.65798e-22  1.60469e-21        00000 
 9.85722e-23 -9.09623e-22        00000 
-4.77535e-23  4.12631e-22        00000 
 1.95451e-23 -1.55856e-22        00000 
-7.04826e-24  5.12352e-23        00000 
 2.32162e-24 -1.51929e-23        00000 
-7.07690e-25  4.10921e-24        00000 
 1.70642e-25 -7.17471e-25        00000 
-5.19935e-26  2.28048e-25        00000 
 1.39033e-26 -4.28140e-26        00000 
-3.63183e-27  5.80585e-27        00000 
 8.98756e-28  3.81471e-28        00000 
-3.86764e-28 -1.14788e-27        00000 
 1.33094e-28 -1.99140e-27        00000 
-1.64711e-28  3.50082e-27        00000 
 4.70841e-29 -1.06399e-26        00000 
 1.16100e-27  3.51545e-26        00000 
-5.76911e-27 -1.19358e-25        00000 
 2.32623e-26  3.36334e-25        00000 
-7.36398e-26 -8.86629e-25        00000 
 2.00376e-25  2.06174e-24        00000 
-5.68867e-25 -4.55873e-24        00000 
 1.45629e-24  8.25487e-24        00000 
-3.11257e-24 -8.01161e-24        00000 
 6.66861e-24 -5.22077e-24        00000 
-1.45825e-23  5.40682e-23        00000 
 2.46345e-23 -1.53333e-22        00000 
-3.50153e-23  2.70776e-22        00000 
 3.95363e-23 -3.52075e-22        00000 
-3.59291e-23  3.51785e-22        00000 