<?xml version="1.0" encoding="utf-8"?>
<VTKFile byte_order="LittleEndian" type="UnstructuredGrid" version="0.1">
   <UnstructuredGrid>
      <Piece NumberOfCells="3364" NumberOfPoints="1741">
         <Points>
            <DataArray Name="Points" NumberOfComponents="3" format="ascii" type="Float32">
0.0000 1.0000 0.0000
0.0000 1.0345 0.0000
0.0000 1.0690 0.0000
0.0000 1.1034 0.0000
0.0000 1.1379 0.0000
0.0000 1.1724 0.0000
0.0000 1.2069 0.0000
0.0000 1.2414 0.0000
0.0000 1.2759 0.0000
0.0000 1.3103 0.0000
0.0000 1.3448 0.0000
0.0000 1.3793 0.0000
0.0000 1.4138 0.0000
0.0000 1.4483 0.0000
0.0000 1.4828 0.0000
0.0000 1.5172 0.0000
0.0000 1.5517 0.0000
0.0000 1.5862 0.0000
0.0000 1.6207 0.0000
0.0000 1.6552 0.0000
0.0000 1.6897 0.0000
0.0000 1.7241 0.0000
0.0000 1.7586 0.0000
0.0000 1.7931 0.0000
0.0000 1.8276 0.0000
0.0000 1.8621 0.0000
0.0000 1.8966 0.0000
0.0000 1.9310 0.0000
0.0000 1.9655 0.0000
0.0000 2.0000 0.0000
0.0690 1.0000 0.0000
0.0690 1.0345 0.0000
0.0690 1.0690 0.0000
0.0690 1.1034 0.0000
0.0690 1.1379 0.0000
0.0690 1.1724 0.0000
0.0690 1.2069 0.0000
0.0690 1.2414 0.0000
0.0690 1.2759 0.0000
0.0690 1.3103 0.0000
0.0690 1.3448 0.0000
0.0690 1.3793 0.0000
0.0690 1.4138 0.0000
0.0690 1.4483 0.0000
0.0690 1.4828 0.0000
0.0690 1.5172 0.0000
0.0690 1.5517 0.0000
0.0690 1.5862 0.0000
0.0690 1.6207 0.0000
0.0690 1.6552 0.0000
0.0690 1.6897 0.0000
0.0690 1.7241 0.0000
0.0690 1.7586 0.0000
0.0690 1.7931 0.0000
0.0690 1.8276 0.0000
0.0690 1.8621 0.0000
0.0690 1.8966 0.0000
0.0690 1.9310 0.0000
0.0690 1.9655 0.0000
0.0690 2.0000 0.0000
0.1379 1.0000 0.0000
0.1379 1.0345 0.0000
0.1379 1.0690 0.0000
0.1379 1.1034 0.0000
0.1379 1.1379 0.0000
0.1379 1.1724 0.0000
0.1379 1.2069 0.0000
0.1379 1.2414 0.0000
0.1379 1.2759 0.0000
0.1379 1.3103 0.0000
0.1379 1.3448 0.0000
0.1379 1.3793 0.0000
0.1379 1.4138 0.0000
0.1379 1.4483 0.0000
0.1379 1.4828 0.0000
0.1379 1.5172 0.0000
0.1379 1.5517 0.0000
0.1379 1.5862 0.0000
0.1379 1.6207 0.0000
0.1379 1.6552 0.0000
0.1379 1.6897 0.0000
0.1379 1.7241 0.0000
0.1379 1.7586 0.0000
0.1379 1.7931 0.0000
0.1379 1.8276 0.0000
0.1379 1.8621 0.0000
0.1379 1.8966 0.0000
0.1379 1.9310 0.0000
0.1379 1.9655 0.0000
0.1379 2.0000 0.0000
0.2069 1.0000 0.0000
0.2069 1.0345 0.0000
0.2069 1.0690 0.0000
0.2069 1.1034 0.0000
0.2069 1.1379 0.0000
0.2069 1.1724 0.0000
0.2069 1.2069 0.0000
0.2069 1.2414 0.0000
0.2069 1.2759 0.0000
0.2069 1.3103 0.0000
0.2069 1.3448 0.0000
0.2069 1.3793 0.0000
0.2069 1.4138 0.0000
0.2069 1.4483 0.0000
0.2069 1.4828 0.0000
0.2069 1.5172 0.0000
0.2069 1.5517 0.0000
0.2069 1.5862 0.0000
0.2069 1.6207 0.0000
0.2069 1.6552 0.0000
0.2069 1.6897 0.0000
0.2069 1.7241 0.0000
0.2069 1.7586 0.0000
0.2069 1.7931 0.0000
0.2069 1.8276 0.0000
0.2069 1.8621 0.0000
0.2069 1.8966 0.0000
0.2069 1.9310 0.0000
0.2069 1.9655 0.0000
0.2069 2.0000 0.0000
0.2759 1.0000 0.0000
0.2759 1.0345 0.0000
0.2759 1.0690 0.0000
0.2759 1.1034 0.0000
0.2759 1.1379 0.0000
0.2759 1.1724 0.0000
0.2759 1.2069 0.0000
0.2759 1.2414 0.0000
0.2759 1.2759 0.0000
0.2759 1.3103 0.0000
0.2759 1.3448 0.0000
0.2759 1.3793 0.0000
0.2759 1.4138 0.0000
0.2759 1.4483 0.0000
0.2759 1.4828 0.0000
0.2759 1.5172 0.0000
0.2759 1.5517 0.0000
0.2759 1.5862 0.0000
0.2759 1.6207 0.0000
0.2759 1.6552 0.0000
0.2759 1.6897 0.0000
0.2759 1.7241 0.0000
0.2759 1.7586 0.0000
0.2759 1.7931 0.0000
0.2759 1.8276 0.0000
0.2759 1.8621 0.0000
0.2759 1.8966 0.0000
0.2759 1.9310 0.0000
0.2759 1.9655 0.0000
0.2759 2.0000 0.0000
0.3448 1.0000 0.0000
0.3448 1.0345 0.0000
0.3448 1.0690 0.0000
0.3448 1.1034 0.0000
0.3448 1.1379 0.0000
0.3448 1.1724 0.0000
0.3448 1.2069 0.0000
0.3448 1.2414 0.0000
0.3448 1.2759 0.0000
0.3448 1.3103 0.0000
0.3448 1.3448 0.0000
0.3448 1.3793 0.0000
0.3448 1.4138 0.0000
0.3448 1.4483 0.0000
0.3448 1.4828 0.0000
0.3448 1.5172 0.0000
0.3448 1.5517 0.0000
0.3448 1.5862 0.0000
0.3448 1.6207 0.0000
0.3448 1.6552 0.0000
0.3448 1.6897 0.0000
0.3448 1.7241 0.0000
0.3448 1.7586 0.0000
0.3448 1.7931 0.0000
0.3448 1.8276 0.0000
0.3448 1.8621 0.0000
0.3448 1.8966 0.0000
0.3448 1.9310 0.0000
0.3448 1.9655 0.0000
0.3448 2.0000 0.0000
0.4138 1.0000 0.0000
0.4138 1.0345 0.0000
0.4138 1.0690 0.0000
0.4138 1.1034 0.0000
0.4138 1.1379 0.0000
0.4138 1.1724 0.0000
0.4138 1.2069 0.0000
0.4138 1.2414 0.0000
0.4138 1.2759 0.0000
0.4138 1.3103 0.0000
0.4138 1.3448 0.0000
0.4138 1.3793 0.0000
0.4138 1.4138 0.0000
0.4138 1.4483 0.0000
0.4138 1.4828 0.0000
0.4138 1.5172 0.0000
0.4138 1.5517 0.0000
0.4138 1.5862 0.0000
0.4138 1.6207 0.0000
0.4138 1.6552 0.0000
0.4138 1.6897 0.0000
0.4138 1.7241 0.0000
0.4138 1.7586 0.0000
0.4138 1.7931 0.0000
0.4138 1.8276 0.0000
0.4138 1.8621 0.0000
0.4138 1.8966 0.0000
0.4138 1.9310 0.0000
0.4138 1.9655 0.0000
0.4138 2.0000 0.0000
0.4828 1.0000 0.0000
0.4828 1.0345 0.0000
0.4828 1.0690 0.0000
0.4828 1.1034 0.0000
0.4828 1.1379 0.0000
0.4828 1.1724 0.0000
0.4828 1.2069 0.0000
0.4828 1.2414 0.0000
0.4828 1.2759 0.0000
0.4828 1.3103 0.0000
0.4828 1.3448 0.0000
0.4828 1.3793 0.0000
0.4828 1.4138 0.0000
0.4828 1.4483 0.0000
0.4828 1.4828 0.0000
0.4828 1.5172 0.0000
0.4828 1.5517 0.0000
0.4828 1.5862 0.0000
0.4828 1.6207 0.0000
0.4828 1.6552 0.0000
0.4828 1.6897 0.0000
0.4828 1.7241 0.0000
0.4828 1.7586 0.0000
0.4828 1.7931 0.0000
0.4828 1.8276 0.0000
0.4828 1.8621 0.0000
0.4828 1.8966 0.0000
0.4828 1.9310 0.0000
0.4828 1.9655 0.0000
0.4828 2.0000 0.0000
0.5517 1.0000 0.0000
0.5517 1.0345 0.0000
0.5517 1.0690 0.0000
0.5517 1.1034 0.0000
0.5517 1.1379 0.0000
0.5517 1.1724 0.0000
0.5517 1.2069 0.0000
0.5517 1.2414 0.0000
0.5517 1.2759 0.0000
0.5517 1.3103 0.0000
0.5517 1.3448 0.0000
0.5517 1.3793 0.0000
0.5517 1.4138 0.0000
0.5517 1.4483 0.0000
0.5517 1.4828 0.0000
0.5517 1.5172 0.0000
0.5517 1.5517 0.0000
0.5517 1.5862 0.0000
0.5517 1.6207 0.0000
0.5517 1.6552 0.0000
0.5517 1.6897 0.0000
0.5517 1.7241 0.0000
0.5517 1.7586 0.0000
0.5517 1.7931 0.0000
0.5517 1.8276 0.0000
0.5517 1.8621 0.0000
0.5517 1.8966 0.0000
0.5517 1.9310 0.0000
0.5517 1.9655 0.0000
0.5517 2.0000 0.0000
0.6207 1.0000 0.0000
0.6207 1.0345 0.0000
0.6207 1.0690 0.0000
0.6207 1.1034 0.0000
0.6207 1.1379 0.0000
0.6207 1.1724 0.0000
0.6207 1.2069 0.0000
0.6207 1.2414 0.0000
0.6207 1.2759 0.0000
0.6207 1.3103 0.0000
0.6207 1.3448 0.0000
0.6207 1.3793 0.0000
0.6207 1.4138 0.0000
0.6207 1.4483 0.0000
0.6207 1.4828 0.0000
0.6207 1.5172 0.0000
0.6207 1.5517 0.0000
0.6207 1.5862 0.0000
0.6207 1.6207 0.0000
0.6207 1.6552 0.0000
0.6207 1.6897 0.0000
0.6207 1.7241 0.0000
0.6207 1.7586 0.0000
0.6207 1.7931 0.0000
0.6207 1.8276 0.0000
0.6207 1.8621 0.0000
0.6207 1.8966 0.0000
0.6207 1.9310 0.0000
0.6207 1.9655 0.0000
0.6207 2.0000 0.0000
0.6897 1.0000 0.0000
0.6897 1.0345 0.0000
0.6897 1.0690 0.0000
0.6897 1.1034 0.0000
0.6897 1.1379 0.0000
0.6897 1.1724 0.0000
0.6897 1.2069 0.0000
0.6897 1.2414 0.0000
0.6897 1.2759 0.0000
0.6897 1.3103 0.0000
0.6897 1.3448 0.0000
0.6897 1.3793 0.0000
0.6897 1.4138 0.0000
0.6897 1.4483 0.0000
0.6897 1.4828 0.0000
0.6897 1.5172 0.0000
0.6897 1.5517 0.0000
0.6897 1.5862 0.0000
0.6897 1.6207 0.0000
0.6897 1.6552 0.0000
0.6897 1.6897 0.0000
0.6897 1.7241 0.0000
0.6897 1.7586 0.0000
0.6897 1.7931 0.0000
0.6897 1.8276 0.0000
0.6897 1.8621 0.0000
0.6897 1.8966 0.0000
0.6897 1.9310 0.0000
0.6897 1.9655 0.0000
0.6897 2.0000 0.0000
0.7586 1.0000 0.0000
0.7586 1.0345 0.0000
0.7586 1.0690 0.0000
0.7586 1.1034 0.0000
0.7586 1.1379 0.0000
0.7586 1.1724 0.0000
0.7586 1.2069 0.0000
0.7586 1.2414 0.0000
0.7586 1.2759 0.0000
0.7586 1.3103 0.0000
0.7586 1.3448 0.0000
0.7586 1.3793 0.0000
0.7586 1.4138 0.0000
0.7586 1.4483 0.0000
0.7586 1.4828 0.0000
0.7586 1.5172 0.0000
0.7586 1.5517 0.0000
0.7586 1.5862 0.0000
0.7586 1.6207 0.0000
0.7586 1.6552 0.0000
0.7586 1.6897 0.0000
0.7586 1.7241 0.0000
0.7586 1.7586 0.0000
0.7586 1.7931 0.0000
0.7586 1.8276 0.0000
0.7586 1.8621 0.0000
0.7586 1.8966 0.0000
0.7586 1.9310 0.0000
0.7586 1.9655 0.0000
0.7586 2.0000 0.0000
0.8276 1.0000 0.0000
0.8276 1.0345 0.0000
0.8276 1.0690 0.0000
0.8276 1.1034 0.0000
0.8276 1.1379 0.0000
0.8276 1.1724 0.0000
0.8276 1.2069 0.0000
0.8276 1.2414 0.0000
0.8276 1.2759 0.0000
0.8276 1.3103 0.0000
0.8276 1.3448 0.0000
0.8276 1.3793 0.0000
0.8276 1.4138 0.0000
0.8276 1.4483 0.0000
0.8276 1.4828 0.0000
0.8276 1.5172 0.0000
0.8276 1.5517 0.0000
0.8276 1.5862 0.0000
0.8276 1.6207 0.0000
0.8276 1.6552 0.0000
0.8276 1.6897 0.0000
0.8276 1.7241 0.0000
0.8276 1.7586 0.0000
0.8276 1.7931 0.0000
0.8276 1.8276 0.0000
0.8276 1.8621 0.0000
0.8276 1.8966 0.0000
0.8276 1.9310 0.0000
0.8276 1.9655 0.0000
0.8276 2.0000 0.0000
0.8966 1.0000 0.0000
0.8966 1.0345 0.0000
0.8966 1.0690 0.0000
0.8966 1.1034 0.0000
0.8966 1.1379 0.0000
0.8966 1.1724 0.0000
0.8966 1.2069 0.0000
0.8966 1.2414 0.0000
0.8966 1.2759 0.0000
0.8966 1.3103 0.0000
0.8966 1.3448 0.0000
0.8966 1.3793 0.0000
0.8966 1.4138 0.0000
0.8966 1.4483 0.0000
0.8966 1.4828 0.0000
0.8966 1.5172 0.0000
0.8966 1.5517 0.0000
0.8966 1.5862 0.0000
0.8966 1.6207 0.0000
0.8966 1.6552 0.0000
0.8966 1.6897 0.0000
0.8966 1.7241 0.0000
0.8966 1.7586 0.0000
0.8966 1.7931 0.0000
0.8966 1.8276 0.0000
0.8966 1.8621 0.0000
0.8966 1.8966 0.0000
0.8966 1.9310 0.0000
0.8966 1.9655 0.0000
0.8966 2.0000 0.0000
0.9655 1.0000 0.0000
0.9655 1.0345 0.0000
0.9655 1.0690 0.0000
0.9655 1.1034 0.0000
0.9655 1.1379 0.0000
0.9655 1.1724 0.0000
0.9655 1.2069 0.0000
0.9655 1.2414 0.0000
0.9655 1.2759 0.0000
0.9655 1.3103 0.0000
0.9655 1.3448 0.0000
0.9655 1.3793 0.0000
0.9655 1.4138 0.0000
0.9655 1.4483 0.0000
0.9655 1.4828 0.0000
0.9655 1.5172 0.0000
0.9655 1.5517 0.0000
0.9655 1.5862 0.0000
0.9655 1.6207 0.0000
0.9655 1.6552 0.0000
0.9655 1.6897 0.0000
0.9655 1.7241 0.0000
0.9655 1.7586 0.0000
0.9655 1.7931 0.0000
0.9655 1.8276 0.0000
0.9655 1.8621 0.0000
0.9655 1.8966 0.0000
0.9655 1.9310 0.0000
0.9655 1.9655 0.0000
0.9655 2.0000 0.0000
1.0345 1.0000 0.0000
1.0345 1.0345 0.0000
1.0345 1.0690 0.0000
1.0345 1.1034 0.0000
1.0345 1.1379 0.0000
1.0345 1.1724 0.0000
1.0345 1.2069 0.0000
1.0345 1.2414 0.0000
1.0345 1.2759 0.0000
1.0345 1.3103 0.0000
1.0345 1.3448 0.0000
[...]
         <PointData>
            <DataArray Name="fValues" NumberOfComponents="3" format="ascii" type="Float64">
-2.86909e-26  2.62314e-25        00000 
       00000 -2.02873e-25        00000 
-8.67531e-26 -1.61984e-25        00000 
-5.44995e-25  9.26491e-25        00000 
-5.20519e-25 -2.71103e-24        00000 
-1.37919e-24  2.13382e-25        00000 
-6.76674e-24 -5.63895e-24        00000 
 1.83118e-24 -7.56180e-24        00000 
-5.55220e-24  1.11044e-23        00000 
 4.73219e-23 -7.16194e-23        00000 
 2.91490e-22  1.38805e-22        00000 
-5.35751e-22  3.08057e-21        00000 
 5.68545e-21        00000        00000 
-8.06203e-22 -2.44952e-21        00000 
 1.20816e-20  2.41632e-20        00000 
 2.48232e-20  1.48771e-19        00000 
-4.54836e-20  1.30765e-19        00000 
 2.01311e-19  3.40535e-20        00000 
 7.95963e-20  8.18705e-19        00000 
-9.19707e-20 -2.27159e-19        00000 
 1.16552e-19  7.50480e-19        00000 
-4.45087e-20  7.55328e-19        00000 
-5.68545e-21 -3.41127e-19        00000 
-9.96498e-20 -5.71468e-21        00000 
-1.30765e-19 -1.53507e-19        00000 
-8.36776e-21  1.76720e-19        00000 
-2.27418e-20  1.39294e-19        00000 
-4.65184e-21 -3.22050e-20        00000 
-2.55352e-21 -5.51022e-21        00000 
 1.00398e-20 -1.17844e-20        00000 
-5.17593e-10  1.12313e-10        00000 
-5.46128e-10  1.66018e-10        00000 
-1.42211e-09  1.55660e-10        00000 
-3.35207e-09  8.32674e-11        00000 
-7.41521e-09 -4.01977e-10        00000 
-1.53416e-08 -2.53951e-09        00000 
-2.86115e-08 -1.13462e-08        00000 
-4.20048e-08 -4.62765e-08        00000 
-1.45571e-08 -1.74113e-07        00000 
 2.37116e-07 -5.88924e-07        00000 
 1.37252e-06 -1.74267e-06        00000 
 5.41285e-06 -4.36634e-06        00000 
 1.76649e-05 -8.71373e-06        00000 
 4.98254e-05 -1.14781e-05        00000 
 1.22438e-04  1.42142e-06        00000 
 2.60510e-04  6.47324e-05        00000 
 4.72816e-04  2.35860e-04        00000 
 7.14684e-04  5.70121e-04        00000 
 8.64443e-04  1.06355e-03        00000 
 7.68560e-04  1.60171e-03        00000 
 3.66123e-04  1.98362e-03        00000 
-2.10552e-04  2.03660e-03        00000 
-6.96144e-04  1.73311e-03        00000 
-8.89485e-04  1.20767e-03        00000 
-7.89096e-04  6.71629e-04        00000 
-5.42516e-04  2.81265e-04        00000 
-3.02082e-04  7.23571e-05        00000 
-1.39287e-04 -5.95680e-06        00000 
-5.24264e-05 -2.29446e-05        00000 
-2.95449e-05 -1.98550e-05        00000 
 5.03394e-10 -2.38952e-10        00000 
 6.12791e-10 -3.40174e-10        00000 
 1.46771e-09 -5.43942e-10        00000 
 3.48667e-09 -6.93874e-10        00000 
 7.64449e-09 -2.52199e-10        00000 
 1.53137e-08  3.09103e-09        00000 
 2.66484e-08  1.87731e-08        00000 
 3.35389e-08  8.30720e-08        00000 
-6.19658e-09  3.21571e-07        00000 
-2.54947e-07  1.11255e-06        00000 
-1.26476e-06  3.40806e-06        00000 
-4.75634e-06  9.04760e-06        00000 
-1.56144e-05  1.99944e-05        00000 
-4.60884e-05  3.33492e-05        00000 
-1.21919e-04  2.68663e-05        00000 
-2.84089e-04 -6.64508e-05        00000 
-5.68446e-04 -3.76100e-04        00000 
-9.44766e-04 -1.05450e-03        00000 
-1.24329e-03 -2.13963e-03        00000 
-1.18237e-03 -3.39197e-03        00000 
-5.91227e-04 -4.31223e-03        00000 
 3.31490e-04 -4.44410e-03        00000 
 1.08743e-03 -3.71457e-03        00000 
 1.31570e-03 -2.47479e-03        00000 
 1.07458e-03 -1.26732e-03        00000 
 6.66145e-04 -4.53029e-04        00000 
 3.30224e-04 -6.63029e-05        00000 
 1.35128e-04  4.87094e-05        00000 
 4.87295e-05  5.25013e-05        00000 
 2.22757e-05  4.13948e-05        00000 
-3.69389e-10  3.41660e-10        00000 
-4.78023e-10  4.86008e-10        00000 
-1.14768e-09  8.43913e-10        00000 
-2.73520e-09  1.12972e-09        00000 
-5.89515e-09  4.29439e-10        00000 
-1.10973e-08 -4.94220e-09        00000 
-1.64576e-08 -2.85331e-08        00000 
-1.12578e-08 -1.17442e-07        00000 
 4.00523e-08 -4.24773e-07        00000 
 2.34987e-07 -1.40444e-06        00000 
 8.34699e-07 -4.24179e-06        00000 
 2.62455e-06 -1.15005e-05        00000 
 8.25714e-06 -2.70631e-05        00000 
 2.65401e-05 -5.15432e-05        00000 
 8.27807e-05 -6.39013e-05        00000 
 2.34034e-04  2.18048e-05        00000 
 5.66481e-04  4.11442e-04        00000 
 1.11789e-03  1.41272e-03        00000 
 1.70123e-03  3.20783e-03        00000 
 1.81361e-03  5.45830e-03        00000 
 9.86114e-04  7.19904e-03        00000 
-5.31396e-04  7.45787e-03        00000 
-1.72062e-03  6.08412e-03        00000 
-1.89282e-03  3.80584e-03        00000 
-1.33637e-03  1.73422e-03        00000 
-6.83681e-04  4.88172e-04        00000 
-2.67308e-04 -6.49393e-06        00000 
-8.31331e-05 -1.04055e-04        00000 
-2.30464e-05 -7.72771e-05        00000 
-7.01166e-06 -5.47359e-05        00000 
 1.86758e-10 -4.13275e-10        00000 
 2.65720e-10 -5.97452e-10        00000 
 6.57302e-10 -1.06532e-09        00000 
 1.57592e-09 -1.41161e-09        00000 
 3.26924e-09 -2.44801e-10        00000 
 5.34216e-09  7.71419e-09        00000 
 4.48468e-09  3.99788e-08        00000 
-1.06511e-08  1.50407e-07        00000 
-6.59265e-08  4.95977e-07        00000 
-1.95465e-07  1.51254e-06        00000 
-3.84477e-07  4.34015e-06        00000 
-4.52338e-07  1.16879e-05        00000 
-2.91216e-07  2.89013e-05        00000 
-2.66655e-06  6.24103e-05        00000 
-2.51636e-05  1.04391e-04        00000 
-1.31288e-04  7.78407e-05        00000 
-4.71763e-04 -2.78831e-04        00000 
-1.23880e-03 -1.50057e-03        00000 
-2.34674e-03 -4.13969e-03        00000 
-2.96116e-03 -7.92617e-03        00000 
-1.83112e-03 -1.11247e-02        00000 
 9.36558e-04 -1.16334e-02        00000 
 2.97636e-03 -9.11634e-03        00000 
 2.82152e-03 -5.11754e-03        00000 
 1.58381e-03 -1.88384e-03        00000 
 5.77946e-04 -2.85844e-04        00000 
 1.27943e-04  1.61304e-04        00000 
 6.24458e-06  1.62911e-04        00000 
-7.90660e-06  9.04529e-05        00000 
-6.74774e-06  5.67164e-05        00000 
 1.40097e-11  4.48778e-10        00000 
-1.49733e-11  6.58552e-10        00000 
-6.64762e-11  1.18668e-09        00000 
-1.66071e-10  1.53156e-09        00000 
-1.46701e-10 -1.23725e-10        00000 
 9.66389e-10 -1.04091e-08        00000 
 6.56382e-09 -4.98577e-08        00000 
 2.48983e-08 -1.75596e-07        00000 
 6.67576e-08 -5.35124e-07        00000 
 1.11024e-07 -1.49356e-06        00000 
-4.98557e-08 -3.95022e-06        00000 
-1.27626e-06 -1.01531e-05        00000 
-5.99087e-06 -2.55928e-05        00000 
-1.83259e-05 -6.17720e-05        00000 
-3.63995e-05 -1.32412e-04        00000 
-1.46617e-05 -2.08977e-04        00000 
 2.34720e-04 -5.47498e-05        00000 
 1.15039e-03  1.09668e-03        00000 
 3.08802e-03  4.55692e-03        00000 
 5.00358e-03  1.07667e-02        00000 
 3.76443e-03  1.69148e-02        00000 
-1.80532e-03  1.80979e-02        00000 
-5.59279e-03  1.31275e-02        00000 
-4.17321e-03  6.01318e-03        00000 
-1.58357e-03  1.35207e-03        00000 
-2.40940e-04 -2.33297e-04        00000 
 7.94591e-05 -3.59917e-04        00000 
 7.16196e-05 -1.96546e-04        00000 
 3.25556e-05 -8.48172e-05        00000 
 1.49353e-05 -4.75078e-05        00000 
-2.12214e-10 -4.40590e-10        00000 
-2.45788e-10 -6.52941e-10        00000 
-5.61582e-10 -1.17532e-09        00000 
-1.34178e-09 -1.45874e-09        00000 
-3.12739e-09  5.34484e-10        00000 
-7.13865e-09  1.20300e-08        00000 
-1.55313e-08  5.44679e-08        00000 
-2.98110e-08  1.83742e-07        00000 
-3.91855e-08  5.30820e-07        00000 
 3.13502e-08  1.37915e-06        00000 
 5.10171e-07  3.33367e-06        00000 
 2.57585e-06  7.83071e-06        00000 
 9.85091e-06  1.89385e-05        00000 
 3.15480e-05  4.88961e-05        00000 
 8.39856e-05  1.29162e-04        00000 
 1.68432e-04  3.07131e-04        00000 
 1.48371e-04  5.13470e-04        00000 
-5.79114e-04  1.08662e-05        00000 
-3.38978e-03 -3.58740e-03        00000 
-8.20930e-03 -1.32432e-02        00000 
-8.34887e-03 -2.60537e-02        00000 
 3.72306e-03 -3.00790e-02        00000 
 1.11492e-02 -1.80199e-02        00000 
 5.47367e-03 -5.18756e-03        00000 
 7.61140e-04  3.81746e-04        00000 
-3.75378e-04  9.65735e-04        00000 
-2.77545e-04  4.76740e-04        00000 
-1.20964e-04  1.73393e-04        00000 
-4.35422e-05  6.10055e-05        00000 
-1.84168e-05  3.21145e-05        00000 
 3.87284e-10  3.83268e-10        00000 
 4.82512e-10  5.72205e-10        00000 
 1.14434e-09  1.01103e-09        00000 
 2.74197e-09  1.17804e-09        00000 
 6.10540e-09 -8.83083e-10        00000 
 1.24271e-08 -1.19227e-08        00000 
 2.18768e-08 -5.13671e-08        00000 
 2.74498e-08 -1.67915e-07        00000 
-6.46223e-09 -4.69143e-07        00000 
-2.10193e-07 -1.16479e-06        00000 
-1.00235e-06 -2.62472e-06        00000 
-3.65142e-06 -5.53931e-06        00000 
-1.19023e-05 -1.18508e-05        00000 
-3.64183e-05 -2.95463e-05        00000 
-1.04649e-04 -9.09514e-05        00000 
-2.69679e-04 -2.98738e-04        00000 
-5.52464e-04 -8.51415e-04        00000 
-5.31613e-04 -1.63308e-03        00000 
 1.80693e-03 -1.40864e-04        00000 
 1.11588e-02  1.21447e-02        00000 
 1.85009e-02  4.05117e-02        00000 
-7.66234e-03  6.07721e-02        00000 
-2.20918e-02  1.97603e-02        00000 
-4.09890e-03 -6.99409e-04        00000 
 1.47743e-03 -3.28777e-03        00000 
 8.65670e-04 -1.34215e-03        00000 
 3.63072e-04 -3.79405e-04        00000 
 1.24232e-04 -9.77375e-05        00000 
 4.21120e-05 -3.17375e-05        00000 
 1.99149e-05 -1.75103e-05        00000 
-5.07554e-10 -2.74257e-10        00000 
-6.38046e-10 -4.22502e-10        00000 
-1.55281e-09 -7.00387e-10        00000 
-3.71952e-09 -7.24855e-10        00000 
-8.11670e-09  1.03931e-09        00000 
-1.57272e-08  9.72223e-09        00000 
-2.47717e-08  3.96698e-08        00000 
-2.09374e-08  1.25870e-07        00000 
 5.16711e-08  3.43141e-07        00000 
 3.67574e-07  8.29645e-07        00000 
 1.41204e-06  1.79681e-06        00000 
 4.46057e-06  3.50206e-06        00000 
 1.28621e-05  6.35313e-06        00000 
 3.58210e-05  1.27959e-05        00000 
 9.97891e-05  4.00395e-05        00000 
 2.78781e-04  1.78917e-04        00000 
 7.40296e-04  7.83079e-04        00000 
 1.64844e-03  2.73806e-03        00000 
 1.91828e-03  6.22598e-03        00000 
-4.35912e-03  9.41195e-04        00000 
-3.33814e-02 -5.67804e-02        00000 
 1.33792e-02 -1.78048e-01        00000 
 3.47828e-02  1.15905e-02        00000 
-6.56315e-03  1.47266e-02        00000 
-2.13720e-03  4.26688e-03        00000 
-8.38720e-04  8.21366e-04        00000 
-2.71961e-04  1.36746e-04        00000 
-9.15152e-05  2.70647e-05        00000 
-3.06221e-05  1.22479e-05        00000 
-1.84051e-05  6.75116e-06        00000 
 4.94415e-10  1.31469e-10        00000 
 5.63616e-10  2.62169e-10        00000 
 1.48963e-09  3.80406e-10        00000 
 3.54495e-09  4.56795e-10        00000 
 7.64347e-09 -2.14893e-10        00000 
 1.44253e-08 -3.95397e-09        00000 
 2.13214e-08 -1.73051e-08        00000 
 1.26531e-08 -5.63935e-08        00000 
-6.82958e-08 -1.56289e-07        00000 
-3.89513e-07 -3.83857e-07        00000 
-1.39374e-06 -8.46737e-07        00000 
-4.16623e-06 -1.67396e-06        00000 
-1.12934e-05 -2.93308e-06        00000 
-2.91402e-05 -4.72740e-06        00000 
-7.50234e-05 -1.05050e-05        00000 
-2.01792e-04 -5.49858e-05        00000 
-5.79740e-04 -3.68282e-04        00000 
-1.70607e-03 -2.08629e-03        00000 
-4.76155e-03 -8.94449e-03        00000 
-1.05265e-02 -2.28613e-02        00000 
-1.93001e-02  3.56151e-02        00000 
 8.45362e-03  7.72526e-01        00000 
 3.16177e-04 -2.44778e-01        00000 
-7.16060e-05 -7.33359e-03        00000 
-2.61286e-05 -1.62976e-03        00000 
-1.02683e-05 -4.63310e-04        00000 
-3.36323e-06 -1.62751e-04        00000 
-1.13113e-06 -5.99961e-05        00000 
-3.82583e-07 -2.07545e-05        00000 
-6.54107e-07 -3.64037e-06        00000 
 2.06888e-11 -1.29696e-10        00000 
 7.03851e-12 -5.53493e-10        00000 
 1.82180e-11 -1.42058e-09        00000 
 4.32575e-11 -3.61871e-09        00000 
 9.30273e-11 -8.65350e-09        00000 
 1.74890e-10 -1.89856e-08        00000 
 2.56379e-10 -3.68958e-08        00000 
 1.43668e-10 -5.81618e-08        00000 
-8.60415e-10 -4.99166e-08        00000 
-4.81559e-09  1.13146e-07        00000 
-1.71449e-08  8.11419e-07        00000 
-5.11492e-08  3.05927e-06        00000 
-1.38610e-07  9.32719e-06        00000 
-3.58120e-07  2.52383e-05        00000 
-9.24425e-07  6.31092e-05        00000 
-2.49262e-06  1.51116e-04        00000 
-7.15411e-06  3.71355e-04        00000 
-2.09254e-05  1.07417e-03        00000 
-5.76133e-05  4.06466e-03        00000 
-1.25616e-04  1.79426e-02        00000 
-2.21344e-04  7.35704e-02        00000 
 9.43653e-05  2.11150e-01        00000 
-1.56739e-18 -3.12716e-17        00000 
 1.71373e-19  1.55988e-18        00000 
 3.80050e-20 -2.49242e-19        00000 
-1.63055e-20  1.06844e-19        00000 
 6.52897e-21 -3.41424e-20        00000 
-3.17656e-21  3.68860e-21        00000 
 7.91248e-22 -9.71798e-22        00000 
-4.14697e-22 -5.41646e-22        00000 
-4.57067e-27 -1.59773e-26        00000 
 9.88770e-27 -3.37103e-27        00000 
-1.74350e-26  5.52108e-26        00000 
 1.62037e-26 -3.16439e-25        00000 
-1.93734e-26  8.65989e-25        00000 
-1.87430e-26 -1.44421e-25        00000 
-3.89903e-26  1.60250e-24        00000 
 4.55852e-25 -1.18630e-24        00000 
-1.86329e-25  2.48438e-24        00000 
-8.30096e-24  4.05786e-26        00000 
 2.67687e-23  4.93209e-24        00000 
-3.43256e-23 -2.43948e-22        00000 
 3.69488e-23  6.81724e-22        00000 
-2.46012e-22  4.88110e-22        00000 
 8.02611e-22 -4.92105e-21        00000 
-1.68591e-21  2.98389e-20        00000 
 5.16923e-22 -2.41198e-20        00000 
 1.28246e-20 -5.86060e-20        00000 
-3.14298e-20  4.02830e-19        00000 
 7.42004e-22 -3.18554e-18        00000 
 1.13761e-19  7.05316e-18        00000 
-1.79548e-19 -2.50235e-17        00000 
 1.75066e-19  8.75128e-18        00000 
-8.25333e-20 -2.01190e-18        00000 
 1.34382e-20  2.41837e-19        00000 
 1.65797e-21 -4.24800e-20        00000 
-1.31858e-21  1.00742e-20        00000 
 6.17319e-22 -2.41791e-21        00000 
-2.47328e-22  4.18905e-22        00000 
 1.28079e-22 -1.12624e-22        00000 
 1.56137e-27  2.88913e-27        00000 
-2.32596e-27  1.91845e-28        00000 
 2.04449e-27 -1.90067e-26        00000 
-3.31915e-27  7.15513e-26        00000 
 3.70568e-27 -9.57231e-26        00000 
 5.96251e-27  1.24875e-25        00000 
 8.26493e-27 -2.48721e-25        00000 
-1.71584e-27  3.01350e-25        00000 
-3.83641e-25 -7.65529e-25        00000 
 2.05358e-24  2.12332e-24        00000 
-4.21563e-24 -1.26701e-23        00000 
 7.48598e-24  5.04276e-23        00000 
-1.60895e-23 -7.70427e-23        00000 
 7.70979e-23 -6.21775e-23        00000 
-1.85885e-22  9.12443e-22        00000 
 2.01654e-22 -3.08080e-21        00000 
 4.37889e-22 -7.13778e-22        00000 
-1.77751e-21  1.92987e-20        00000 
 5.06928e-22 -8.92193e-20        00000 
 6.89712e-21  5.74283e-19        00000 
-1.98308e-20 -1.80874e-18        00000 
 2.95105e-20  2.74549e-18        00000 
-2.13404e-20 -2.05263e-18        00000 
 1.75212e-20  7.51889e-19        00000 
-5.40602e-21 -1.50097e-19        00000 
 7.73869e-22  2.59537e-20        00000 
 1.11869e-22 -4.87769e-21        00000 
-1.11852e-22  1.04134e-21        00000 
 5.62901e-23 -2.27609e-22        00000 
-3.62149e-23  8.11674e-23        00000 
-3.37667e-28 -1.57213e-29        00000 
 3.58106e-28 -1.00414e-27        00000 
-4.17970e-28  4.93172e-27        00000 
 4.92797e-28 -1.10584e-26        00000 
-1.86178e-28  1.69937e-26        00000 
-1.91376e-28 -2.62778e-26        00000 
 1.76245e-27  4.24394e-26        00000 
-2.42262e-26 -8.22930e-26        00000 
 1.26758e-25  2.32140e-25        00000 
-3.92852e-25 -9.35529e-25        00000 
 8.31827e-25  3.43116e-24        00000 
-1.80294e-24 -7.15030e-24        00000 
 5.57716e-24  1.60448e-24        00000 
-1.51806e-23  4.86260e-23        00000 
 2.45978e-23 -1.85702e-22        00000 
-1.45086e-24  1.01505e-22        00000 
-7.39374e-23  1.52033e-21        00000 
 1.44535e-22 -8.14429e-21        00000 
 2.57708e-22  3.96862e-20        00000 
-1.46997e-21 -1.36356e-19        00000 
 3.18777e-21  2.91299e-19        00000 
-4.16063e-21 -3.85004e-19        00000 
 3.77210e-21  3.17341e-19        00000 
-2.64531e-21 -1.63222e-19        00000 
 1.48553e-21  5.31477e-20        00000 
-3.71782e-22 -1.21462e-20        00000 
 4.72591e-23  2.44487e-21        00000 
 1.02266e-23 -5.02784e-22        00000 
-1.06850e-23  1.07312e-22        00000 
 8.33608e-24 -4.22851e-23        00000 
 6.03156e-29 -1.28582e-28        00000 
-6.34796e-29  3.40332e-28        00000 
 7.06489e-29 -9.73306e-28        00000 
-6.24793e-29  1.91964e-27        00000 
 5.93140e-30 -3.14033e-27        00000 
 2.32197e-28  5.07977e-27        00000 
-1.79309e-27 -9.41777e-27        00000 
 8.97830e-27  2.35796e-26        00000 
-2.95988e-26 -8.15181e-26        00000 
 8.06824e-26  2.53326e-25        00000 
-1.85291e-25 -5.97759e-25        00000 
 4.77473e-25  5.60749e-25        00000 
-1.24708e-24  2.15007e-24        00000 
 2.45888e-24 -1.07193e-23        00000 
-2.37262e-24  9.98765e-24        00000 
-2.25046e-24  9.91641e-23        00000 
 9.87186e-24 -6.60542e-22        00000 
 2.97332e-24  2.99436e-21        00000 
-8.92435e-23 -1.04472e-20        00000 
 2.77735e-22  2.63048e-20        00000 
-5.05402e-22 -4.64096e-20        00000 
 6.38471e-22  5.72649e-20        00000 
-6.03381e-22 -4.95493e-20        00000 
 4.49238e-22  3.01076e-20        00000 
-2.62709e-22 -1.29730e-20        00000 
 1.05588e-22  4.03171e-21        00000 
-2.54500e-23 -9.92767e-22        00000 
 2.70534e-24  2.19406e-22        00000 
 1.28190e-24 -4.88818e-23        00000 
-1.54830e-24  1.97097e-23        00000 
-1.06786e-29  4.76200e-29        00000 
 1.10081e-29 -8.34430e-29        00000 
-1.09551e-29  1.86726e-28        00000 
 6.49066e-30 -3.49701e-28        00000 
 1.74177e-29  5.94304e-28        00000 
-1.39917e-28 -1.06844e-27        00000 
 6.70920e-28  2.39760e-27        00000 
-2.36139e-27 -7.06548e-27        00000 
 6.24160e-27  2.26637e-26        00000 
-1.76432e-26 -5.11194e-26        00000 
 4.35099e-26  7.53253e-26        00000 
-1.07733e-25  4.08053e-26        00000 
 2.30666e-25 -5.24384e-25        00000 
-3.38489e-25  5.28456e-25        00000 
 1.65243e-25  7.06521e-24        00000 
 4.79525e-25 -5.13891e-23        00000 
-7.82533e-25  2.34023e-22        00000 
-4.78416e-24 -8.20422e-22        00000 
 2.10244e-23  2.25640e-21        00000 
-4.97184e-23 -4.71900e-21        00000 
 8.14076e-23  7.42930e-21        00000 
-1.00178e-22 -8.79411e-21        00000 
 9.67494e-23  7.83491e-21        00000 
-7.54266e-23 -5.26186e-21        00000 
 5.06341e-23  2.67666e-21        00000 
-2.27134e-23 -1.03844e-21        00000 
 7.74872e-24  3.17984e-22        00000 
-1.72739e-24 -8.21329e-23        00000 
 8.91410e-26  2.00591e-23        00000 
 1.80419e-25 -8.51571e-24        00000 
 1.85394e-30 -1.24722e-29        00000 
-1.83556e-30  1.84093e-29        00000 
 1.51165e-30 -3.58699e-29        00000 
 3.71152e-31  6.53126e-29        00000 
-7.64444e-30 -1.10159e-28        00000 
 4.73273e-29  2.38530e-28        00000 
-1.87159e-28 -6.27645e-28        00000 
 5.64809e-28  1.87620e-27        00000 
-1.62855e-27 -5.23572e-27        00000 
 4.36493e-27  1.07523e-26        00000 
-7.89257e-27 -2.26952e-26        00000 
 1.86386e-26  2.27438e-26        00000 
-3.56765e-26 -1.18196e-25        00000 
 4.57147e-26  6.55353e-25        00000 
-2.13061e-26 -4.26905e-24        00000 
-1.33100e-25  1.84417e-23        00000 
-5.29382e-26 -6.66826e-23        00000 