<?xml version="1.0" encoding="utf-8"?>
<VTKFile byte_order="LittleEndian" type="UnstructuredGrid" version="0.1">
   <UnstructuredGrid>
      <Piece NumberOfCells="3364" NumberOfPoints="1741">
         <Points>
            <DataArray Name="Points" NumberOfComponents="3" format="ascii" type="Float32">
0.0000 1.0000 0.0000
0.0000 1.0345 0.0000
0.0000 1.0690 0.0000
0.0000 1.1034 0.0000
0.0000 1.1379 0.0000
0.0000 1.1724 0.0000
0.0000 1.2069 0.0000
0.0000 1.2414 0.0000
0.0000 1.2759 0.0000
0.0000 1.3103 0.0000
0.0000 1.3448 0.0000
0.0000 1.3793 0.0000
0.0000 1.4138 0.0000
0.0000 1.4483 0.0000
0.0000 1.4828 0.0000
0.0000 1.5172 0.0000
0.0000 1.5517 0.0000
0.0000 1.5862 0.0000
0.0000 1.6207 0.0000
0.0000 1.6552 0.0000
0.0000 1.6897 0.0000
0.0000 1.7241 0.0000
0.0000 1.7586 0.0000
0.0000 1.7931 0.0000
0.0000 1.8276 0.0000
0.0000 1.8621 0.0000
0.0000 1.8966 0.0000
0.0000 1.9310 0.0000
0.0000 1.9655 0.0000
0.0000 2.0000 0.0000
0.0690 1.0000 0.0000
0.0690 1.0345 0.0000
0.0690 1.0690 0.0000
0.0690 1.1034 0.0000
0.0690 1.1379 0.0000
0.0690 1.1724 0.0000
0.0690 1.2069 0.0000
0.0690 1.2414 0.0000
0.0690 1.2759 0.0000
0.0690 1.3103 0.0000
0.0690 1.3448 0.0000
0.0690 1.3793 0.0000
0.0690 1.4138 0.0000
0.0690 1.4483 0.0000
0.0690 1.4828 0.0000
0.0690 1.5172 0.0000
0.0690 1.5517 0.0000
0.0690 1.5862 0.0000
0.0690 1.6207 0.0000
0.0690 1.6552 0.0000
0.0690 1.6897 0.0000
0.0690 1.7241 0.0000
0.0690 1.7586 0.0000
0.0690 1.7931 0.0000
0.0690 1.8276 0.0000
0.0690 1.8621 0.0000
0.0690 1.8966 0.0000
0.0690 1.9310 0.0000
0.0690 1.9655 0.0000
0.0690 2.0000 0.0000
0.1379 1.0000 0.0000
0.1379 1.0345 0.0000
0.1379 1.0690 0.0000
0.1379 1.1034 0.0000
0.1379 1.1379 0.0000
0.1379 1.1724 0.0000
0.1379 1.2069 0.0000
0.1379 1.2414 0.0000
0.1379 1.2759 0.0000
0.1379 1.3103 0.0000
0.1379 1.3448 0.0000
0.1379 1.3793 0.0000
0.1379 1.4138 0.0000
0.1379 1.4483 0.0000
0.1379 1.4828 0.0000
0.1379 1.5172 0.0000
0.1379 1.5517 0.0000
0.1379 1.5862 0.0000
0.1379 1.6207 0.0000
0.1379 1.6552 0.0000
0.1379 1.6897 0.0000
0.1379 1.7241 0.0000
0.1379 1.7586 0.0000
0.1379 1.7931 0.0000
0.1379 1.8276 0.0000
0.1379 1.8621 0.0000
0.1379 1.8966 0.0000
0.1379 1.9310 0.0000
0.1379 1.9655 0.0000
0.1379 2.0000 0.0000
0.2069 1.0000 0.0000
0.2069 1.0345 0.0000
0.2069 1.0690 0.0000
0.2069 1.1034 0.0000
0.2069 1.1379 0.0000
0.2069 1.1724 0.0000
0.2069 1.2069 0.0000
0.2069 1.2414 0.0000
0.2069 1.2759 0.0000
0.2069 1.3103 0.0000
0.2069 1.3448 0.0000
0.2069 1.3793 0.0000
0.2069 1.4138 0.0000
0.2069 1.4483 0.0000
0.2069 1.4828 0.0000
0.2069 1.5172 0.0000
0.2069 1.5517 0.0000
0.2069 1.5862 0.0000
0.2069 1.6207 0.0000
0.2069 1.6552 0.0000
0.2069 1.6897 0.0000
0.2069 1.7241 0.0000
0.2069 1.7586 0.0000
0.2069 1.7931 0.0000
0.2069 1.8276 0.0000
0.2069 1.8621 0.0000
0.2069 1.8966 0.0000
0.2069 1.9310 0.0000
0.2069 1.9655 0.0000
0.2069 2.0000 0.0000
0.2759 1.0000 0.0000
0.2759 1.0345 0.0000
0.2759 1.0690 0.0000
0.2759 1.1034 0.0000
0.2759 1.1379 0.0000
0.2759 1.1724 0.0000
0.2759 1.2069 0.0000
0.2759 1.2414 0.0000
0.2759 1.2759 0.0000
0.2759 1.3103 0.0000
0.2759 1.3448 0.0000
0.2759 1.3793 0.0000
0.2759 1.4138 0.0000
0.2759 1.4483 0.0000
0.2759 1.4828 0.0000
0.2759 1.5172 0.0000
0.2759 1.5517 0.0000
0.2759 1.5862 0.0000
0.2759 1.6207 0.0000
0.2759 1.6552 0.0000
0.2759 1.6897 0.0000
0.2759 1.7241 0.0000
0.2759 1.7586 0.0000
0.2759 1.7931 0.0000
0.2759 1.8276 0.0000
0.2759 1.8621 0.0000
0.2759 1.8966 0.0000
0.2759 1.9310 0.0000
0.2759 1.9655 0.0000
0.2759 2.0000 0.0000
0.3448 1.0000 0.0000
0.3448 1.0345 0.0000
0.3448 1.0690 0.0000
0.3448 1.1034 0.0000
0.3448 1.1379 0.0000
0.3448 1.1724 0.0000
0.3448 1.2069 0.0000
0.3448 1.2414 0.0000
0.3448 1.2759 0.0000
0.3448 1.3103 0.0000
0.3448 1.3448 0.0000
0.3448 1.3793 0.0000
0.3448 1.4138 0.0000
0.3448 1.4483 0.0000
0.3448 1.4828 0.0000
0.3448 1.5172 0.0000
0.3448 1.5517 0.0000
0.3448 1.5862 0.0000
0.3448 1.6207 0.0000
0.3448 1.6552 0.0000
0.3448 1.6897 0.0000
0.3448 1.7241 0.0000
0.3448 1.7586 0.0000
0.3448 1.7931 0.0000
0.3448 1.8276 0.0000
0.3448 1.8621 0.0000
0.3448 1.8966 0.0000
0.3448 1.9310 0.0000
0.3448 1.9655 0.0000
0.3448 2.0000 0.0000
0.4138 1.0000 0.0000
0.4138 1.0345 0.0000
0.4138 1.0690 0.0000
0.4138 1.1034 0.0000
0.4138 1.1379 0.0000
0.4138 1.1724 0.0000
0.4138 1.2069 0.0000
0.4138 1.2414 0.0000
0.4138 1.2759 0.0000
0.4138 1.3103 0.0000
0.4138 1.3448 0.0000
0.4138 1.3793 0.0000
0.4138 1.4138 0.0000
0.4138 1.4483 0.0000
0.4138 1.4828 0.0000
0.4138 1.5172 0.0000
0.4138 1.5517 0.0000
0.4138 1.5862 0.0000
0.4138 1.6207 0.0000
0.4138 1.6552 0.0000
0.4138 1.6897 0.0000
0.4138 1.7241 0.0000
0.4138 1.7586 0.0000
0.4138 1.7931 0.0000
0.4138 1.8276 0.0000
0.4138 1.8621 0.0000
0.4138 1.8966 0.0000
0.4138 1.9310 0.0000
0.4138 1.9655 0.0000
0.4138 2.0000 0.0000
0.4828 1.0000 0.0000
0.4828 1.0345 0.0000
0.4828 1.0690 0.0000
0.4828 1.1034 0.0000
0.4828 1.1379 0.0000
0.4828 1.1724 0.0000
0.4828 1.2069 0.0000
0.4828 1.2414 0.0000
0.4828 1.2759 0.0000
0.4828 1.3103 0.0000
0.4828 1.3448 0.0000
0.4828 1.3793 0.0000
0.4828 1.4138 0.0000
0.4828 1.4483 0.0000
0.4828 1.4828 0.0000
0.4828 1.5172 0.0000
0.4828 1.5517 0.0000
0.4828 1.5862 0.0000
0.4828 1.6207 0.0000
0.4828 1.6552 0.0000
0.4828 1.6897 0.0000
0.4828 1.7241 0.0000
0.4828 1.7586 0.0000
0.4828 1.7931 0.0000
0.4828 1.8276 0.0000
0.4828 1.8621 0.0000
0.4828 1.8966 0.0000
0.4828 1.9310 0.0000
0.4828 1.9655 0.0000
0.4828 2.0000 0.0000
0.5517 1.0000 0.0000
0.5517 1.0345 0.0000
0.5517 1.0690 0.0000
0.5517 1.1034 0.0000
0.5517 1.1379 0.0000
0.5517 1.1724 0.0000
0.5517 1.2069 0.0000
0.5517 1.2414 0.0000
0.5517 1.2759 0.0000
0.5517 1.3103 0.0000
0.5517 1.3448 0.0000
0.5517 1.3793 0.0000
0.5517 1.4138 0.0000
0.5517 1.4483 0.0000
0.5517 1.4828 0.0000
0.5517 1.5172 0.0000
0.5517 1.5517 0.0000
0.5517 1.5862 0.0000
0.5517 1.6207 0.0000
0.5517 1.6552 0.0000
0.5517 1.6897 0.0000
0.5517 1.7241 0.0000
0.5517 1.7586 0.0000
0.5517 1.7931 0.0000
0.5517 1.8276 0.0000
0.5517 1.8621 0.0000
0.5517 1.8966 0.0000
0.5517 1.9310 0.0000
0.5517 1.9655 0.0000
0.5517 2.0000 0.0000
0.6207 1.0000 0.0000
0.6207 1.0345 0.0000
0.6207 1.0690 0.0000
0.6207 1.1034 0.0000
0.6207 1.1379 0.0000
0.6207 1.1724 0.0000
0.6207 1.2069 0.0000
0.6207 1.2414 0.0000
0.6207 1.2759 0.0000
0.6207 1.3103 0.0000
0.6207 1.3448 0.0000
0.6207 1.3793 0.0000
0.6207 1.4138 0.0000
0.6207 1.4483 0.0000
0.6207 1.4828 0.0000
0.6207 1.5172 0.0000
0.6207 1.5517 0.0000
0.6207 1.5862 0.0000
0.6207 1.6207 0.0000
0.6207 1.6552 0.0000
0.6207 1.6897 0.0000
0.6207 1.7241 0.0000
0.6207 1.7586 0.0000
0.6207 1.7931 0.0000
0.6207 1.8276 0.0000
0.6207 1.8621 0.0000
0.6207 1.8966 0.0000
0.6207 1.9310 0.0000
0.6207 1.9655 0.0000
0.6207 2.0000 0.0000
0.6897 1.0000 0.0000
0.6897 1.0345 0.0000
0.6897 1.0690 0.0000
0.6897 1.1034 0.0000
0.6897 1.1379 0.0000
0.6897 1.1724 0.0000
0.6897 1.2069 0.0000
0.6897 1.2414 0.0000
0.6897 1.2759 0.0000
0.6897 1.3103 0.0000
0.6897 1.3448 0.0000
0.6897 1.3793 0.0000
0.6897 1.4138 0.0000
0.6897 1.4483 0.0000
0.6897 1.4828 0.0000
0.6897 1.5172 0.0000
0.6897 1.5517 0.0000
0.6897 1.5862 0.0000
0.6897 1.6207 0.0000
0.6897 1.6552 0.0000
0.6897 1.6897 0.0000
0.6897 1.7241 0.0000
0.6897 1.7586 0.0000
0.6897 1.7931 0.0000
0.6897 1.8276 0.0000
0.6897 1.8621 0.0000
0.6897 1.8966 0.0000
0.6897 1.9310 0.0000
0.6897 1.9655 0.0000
0.6897 2.0000 0.0000
0.7586 1.0000 0.0000
0.7586 1.0345 0.0000
0.7586 1.0690 0.0000
0.7586 1.1034 0.0000
0.7586 1.1379 0.0000
0.7586 1.1724 0.0000
0.7586 1.2069 0.0000
0.7586 1.2414 0.0000
0.7586 1.2759 0.0000
0.7586 1.3103 0.0000
0.7586 1.3448 0.0000
0.7586 1.3793 0.0000
0.7586 1.4138 0.0000
0.7586 1.4483 0.0000
0.7586 1.4828 0.0000
0.7586 1.5172 0.0000
0.7586 1.5517 0.0000
0.7586 1.5862 0.0000
0.7586 1.6207 0.0000
0.7586 1.6552 0.0000
0.7586 1.6897 0.0000
0.7586 1.7241 0.0000
0.7586 1.7586 0.0000
0.7586 1.7931 0.0000
0.7586 1.8276 0.0000
0.7586 1.8621 0.0000
0.7586 1.8966 0.0000
0.7586 1.9310 0.0000
0.7586 1.9655 0.0000
0.7586 2.0000 0.0000
0.8276 1.0000 0.0000
0.8276 1.0345 0.0000
0.8276 1.0690 0.0000
0.8276 1.1034 0.0000
0.8276 1.1379 0.0000
0.8276 1.1724 0.0000
0.8276 1.2069 0.0000
0.8276 1.2414 0.0000
0.8276 1.2759 0.0000
0.8276 1.3103 0.0000
0.8276 1.3448 0.0000
0.8276 1.3793 0.0000
0.8276 1.4138 0.0000
0.8276 1.4483 0.0000
0.8276 1.4828 0.0000
0.8276 1.5172 0.0000
0.8276 1.5517 0.0000
0.8276 1.5862 0.0000
0.8276 1.6207 0.0000
0.8276 1.6552 0.0000
0.8276 1.6897 0.0000
0.8276 1.7241 0.0000
0.8276 1.7586 0.0000
0.8276 1.7931 0.0000
0.8276 1.8276 0.0000
0.8276 1.8621 0.0000
0.8276 1.8966 0.0000
0.8276 1.9310 0.0000
0.8276 1.9655 0.0000
0.8276 2.0000 0.0000
0.8966 1.0000 0.0000
0.8966 1.0345 0.0000
0.8966 1.0690 0.0000
0.8966 1.1034 0.0000
0.8966 1.1379 0.0000
0.8966 1.1724 0.0000
0.8966 1.2069 0.0000
0.8966 1.2414 0.0000
0.8966 1.2759 0.0000
0.8966 1.3103 0.0000
0.8966 1.3448 0.0000
0.8966 1.3793 0.0000
0.8966 1.4138 0.0000
0.8966 1.4483 0.0000
0.8966 1.4828 0.0000
0.8966 1.5172 0.0000
0.8966 1.5517 0.0000
0.8966 1.5862 0.0000
0.8966 1.6207 0.0000
0.8966 1.6552 0.0000
0.8966 1.6897 0.0000
0.8966 1.7241 0.0000
0.8966 1.7586 0.0000
0.8966 1.7931 0.0000
0.8966 1.8276 0.0000
0.8966 1.8621 0.0000
0.8966 1.8966 0.0000
0.8966 1.9310 0.0000
0.8966 1.9655 0.0000
0.8966 2.0000 0.0000
0.9655 1.0000 0.0000
0.9655 1.0345 0.0000
0.9655 1.0690 0.0000
0.9655 1.1034 0.0000
0.9655 1.1379 0.0000
0.9655 1.1724 0.0000
0.9655 1.2069 0.0000
0.9655 1.2414 0.0000
0.9655 1.2759 0.0000
0.9655 1.3103 0.0000
0.9655 1.3448 0.0000
0.9655 1.3793 0.0000
0.9655 1.4138 0.0000
0.9655 1.4483 0.0000
0.9655 1.4828 0.0000
0.9655 1.5172 0.0000
0.9655 1.5517 0.0000
0.9655 1.5862 0.0000
0.9655 1.6207 0.0000
0.9655 1.6552 0.0000
0.9655 1.6897 0.0000
0.9655 1.7241 0.0000
0.9655 1.7586 0.0000
0.9655 1.7931 0.0000
0.9655 1.8276 0.0000
0.9655 1.8621 0.0000
0.9655 1.8966 0.0000
0.9655 1.9310 0.0000
0.9655 1.9655 0.0000
0.9655 2.0000 0.0000
1.0345 1.0000 0.0000
1.0345 1.0345 0.0000
1.0345 1.0690 0.0000
1.0345 1.1034 0.0000
1.0345 1.1379 0.0000
1.0345 1.1724 0.0000
1.0345 1.2069 0.0000
1.0345 1.2414 0.0000
1.0345 1.2759 0.0000
1.0345 1.3103 0.0000
1.0345 1.3448 0.0000
[...]
         <PointData>
            <DataArray Name="fValues" NumberOfComponents="3" format="ascii" type="Float64">
 4.22415e-28 -1.55847e-26        00000 
 5.48306e-27  1.37077e-27        00000 
-5.42207e-26  1.08441e-26        00000 
-7.08493e-26 -3.59356e-26        00000 
 2.16883e-25 -7.31979e-25        00000 
-1.19545e-24 -6.37635e-25        00000 
-8.67531e-26  1.31892e-24        00000 
-1.78213e-24 -1.41665e-24        00000 
       00000 -2.08207e-24        00000 
-5.25222e-24 -1.86542e-23        00000 
-6.94025e-25 -4.85817e-24        00000 
 5.02267e-23 -7.81304e-23        00000 
 8.88352e-23 -1.77670e-22        00000 
 5.24057e-22  2.15219e-22        00000 
 3.55341e-21  5.46336e-21        00000 
-8.62225e-21  2.11482e-20        00000 
 8.52818e-21 -5.04584e-20        00000 
 2.19948e-20  1.03830e-19        00000 
 9.66527e-20  1.85488e-19        00000 
-2.21444e-20  4.71461e-20        00000 
 1.36451e-19  4.09352e-19        00000 
-8.37510e-21  4.95835e-19        00000 
 2.27418e-20  8.64189e-19        00000 
 7.14335e-22 -4.85748e-20        00000 
-2.27418e-20 -1.13709e-19        00000 
-1.45086e-19  5.87446e-19        00000 
 3.41127e-20  3.07014e-19        00000 
-7.80078e-20  5.58221e-20        00000 
-1.54107e-20  1.16924e-20        00000 
 3.39373e-20 -7.13185e-20        00000 
-4.91234e-11  2.65018e-11        00000 
-7.93115e-11  4.18627e-11        00000 
-2.25420e-10  6.84391e-11        00000 
-5.88097e-10  1.12410e-10        00000 
-1.44465e-09  1.47960e-10        00000 
-3.36319e-09  8.32825e-11        00000 
-7.41972e-09 -4.02105e-10        00000 
-1.53433e-08 -2.53978e-09        00000 
-2.86122e-08 -1.13463e-08        00000 
-4.20053e-08 -4.62762e-08        00000 
-1.45584e-08 -1.74112e-07        00000 
 2.37112e-07 -5.88921e-07        00000 
 1.37251e-06 -1.74267e-06        00000 
 5.41281e-06 -4.36633e-06        00000 
 1.76648e-05 -8.71372e-06        00000 
 4.98251e-05 -1.14781e-05        00000 
 1.22437e-04  1.42140e-06        00000 
 2.60509e-04  6.47323e-05        00000 
 4.72814e-04  2.35860e-04        00000 
 7.14680e-04  5.70119e-04        00000 
 8.64439e-04  1.06354e-03        00000 
 7.68563e-04  1.60169e-03        00000 
 3.66168e-04  1.98355e-03        00000 
-2.10345e-04  2.03639e-03        00000 
-6.95369e-04  1.73257e-03        00000 
-8.86933e-04  1.20643e-03        00000 
-7.81339e-04  6.68948e-04        00000 
-5.23620e-04  2.72767e-04        00000 
-2.59435e-04  4.00260e-05        00000 
-3.38493e-04 -8.15830e-06        00000 
 4.69039e-11 -5.46884e-11        00000 
 8.37555e-11 -8.66333e-11        00000 
 2.27086e-10 -1.71099e-10        00000 
 6.01890e-10 -3.20060e-10        00000 
 1.49620e-09 -5.30330e-10        00000 
 3.49954e-09 -6.88963e-10        00000 
 7.64955e-09 -2.50048e-10        00000 
 1.53155e-08  3.09210e-09        00000 
 2.66491e-08  1.87734e-08        00000 
 3.35393e-08  8.30714e-08        00000 
-6.19525e-09  3.21569e-07        00000 
-2.54943e-07  1.11254e-06        00000 
-1.26475e-06  3.40804e-06        00000 
-4.75630e-06  9.04758e-06        00000 
-1.56143e-05  1.99943e-05        00000 
-4.60881e-05  3.33491e-05        00000 
-1.21919e-04  2.68662e-05        00000 
-2.84088e-04 -6.64507e-05        00000 
-5.68444e-04 -3.76099e-04        00000 
-9.44762e-04 -1.05450e-03        00000 
-1.24328e-03 -2.13961e-03        00000 
-1.18237e-03 -3.39192e-03        00000 
-5.91278e-04 -4.31209e-03        00000 
 3.31268e-04 -4.44367e-03        00000 
 1.08664e-03 -3.71333e-03        00000 
 1.31313e-03 -2.47144e-03        00000 
 1.06713e-03 -1.25902e-03        00000 
 6.47032e-04 -4.36298e-04        00000 
 3.27910e-04 -5.76552e-05        00000 
 2.98957e-04  4.65957e-05        00000 
-3.27837e-11  7.52249e-11        00000 
-6.17439e-11  1.20194e-10        00000 
-1.69468e-10  2.48660e-10        00000 
-4.59570e-10  4.83716e-10        00000 
-1.16553e-09  8.33192e-10        00000 
-2.74578e-09  1.12144e-09        00000 
-5.89928e-09  4.25185e-10        00000 
-1.10987e-08 -4.94409e-09        00000 
-1.64581e-08 -2.85336e-08        00000 
-1.12582e-08 -1.17441e-07        00000 
 4.00513e-08 -4.24770e-07        00000 
 2.34984e-07 -1.40443e-06        00000 
 8.34690e-07 -4.24178e-06        00000 
 2.62452e-06 -1.15004e-05        00000 
 8.25706e-06 -2.70630e-05        00000 
 2.65399e-05 -5.15431e-05        00000 
 8.27803e-05 -6.39012e-05        00000 
 2.34033e-04  2.18047e-05        00000 
 5.66479e-04  4.11441e-04        00000 
 1.11789e-03  1.41271e-03        00000 
 1.70122e-03  3.20781e-03        00000 
 1.81362e-03  5.45823e-03        00000 
 9.86166e-04  7.19884e-03        00000 
-5.31200e-04  7.45727e-03        00000 
-1.72000e-03  6.08240e-03        00000 
-1.89114e-03  3.80119e-03        00000 
-1.33244e-03  1.72364e-03        00000 
-6.78532e-04  4.72910e-04        00000 
-2.79900e-04 -3.01503e-06        00000 
-1.58469e-04 -1.19817e-04        00000 
 1.47134e-11 -8.76060e-11        00000 
 3.07769e-11 -1.41974e-10        00000 
 8.87840e-11 -3.01547e-10        00000 
 2.52818e-10 -6.02366e-10        00000 
 6.64704e-10 -1.05754e-09        00000 
 1.58113e-09 -1.40247e-09        00000 
 3.27150e-09 -2.39285e-10        00000 
 5.34293e-09  7.71669e-09        00000 
 4.48492e-09  3.99795e-08        00000 
-1.06509e-08  1.50406e-07        00000 
-6.59261e-08  4.95973e-07        00000 
-1.95463e-07  1.51253e-06        00000 
-3.84472e-07  4.34013e-06        00000 
-4.52324e-07  1.16878e-05        00000 
-2.91178e-07  2.89012e-05        00000 
-2.66645e-06  6.24102e-05        00000 
-2.51634e-05  1.04391e-04        00000 
-1.31288e-04  7.78408e-05        00000 
-4.71762e-04 -2.78829e-04        00000 
-1.23880e-03 -1.50056e-03        00000 
-2.34674e-03 -4.13966e-03        00000 
-2.96117e-03 -7.92609e-03        00000 
-1.83117e-03 -1.11245e-02        00000 
 9.36418e-04 -1.16327e-02        00000 
 2.97606e-03 -9.11446e-03        00000 
 2.82119e-03 -5.11305e-03        00000 
 1.58485e-03 -1.87530e-03        00000 
 5.85067e-04 -2.76786e-04        00000 
 1.45864e-04  1.53414e-04        00000 
-2.04475e-05  2.10177e-04        00000 
 4.03916e-12  9.16080e-11        00000 
 3.20026e-12  1.50551e-10        00000 
 1.93440e-12  3.26303e-10        00000 
-1.25461e-11  6.65154e-10        00000 
-6.43378e-11  1.18061e-09        00000 
-1.65284e-10  1.52271e-09        00000 
-1.46497e-10 -1.29476e-10        00000 
 9.66425e-10 -1.04118e-08        00000 
 6.56383e-09 -4.98584e-08        00000 
 2.48983e-08 -1.75595e-07        00000 
 6.67577e-08 -5.35121e-07        00000 
 1.11025e-07 -1.49355e-06        00000 
-4.98551e-08 -3.95020e-06        00000 
-1.27626e-06 -1.01531e-05        00000 
-5.99087e-06 -2.55927e-05        00000 
-1.83259e-05 -6.17718e-05        00000 
-3.63995e-05 -1.32412e-04        00000 
-1.46617e-05 -2.08977e-04        00000 
 2.34720e-04 -5.47515e-05        00000 
 1.15039e-03  1.09667e-03        00000 
 3.08803e-03  4.55689e-03        00000 
 5.00359e-03  1.07666e-02        00000 
 3.76446e-03  1.69145e-02        00000 
-1.80529e-03  1.80972e-02        00000 
-5.59292e-03  1.31258e-02        00000 
-4.17435e-03  6.00998e-03        00000 
-1.58850e-03  1.34777e-03        00000 
-2.54733e-04 -2.34349e-04        00000 
 6.67374e-05 -3.52333e-04        00000 
 1.77965e-04 -2.72657e-04        00000 
-2.15546e-11 -8.70085e-11        00000 
-3.64905e-11 -1.44688e-10        00000 
-9.33244e-11 -3.18176e-10        00000 
-2.36555e-10 -6.57110e-10        00000 
-5.72467e-10 -1.16928e-09        00000 
-1.34829e-09 -1.45072e-09        00000 
-3.13000e-09  5.39576e-10        00000 
-7.13950e-09  1.20324e-08        00000 
-1.55315e-08  5.44685e-08        00000 
-2.98112e-08  1.83741e-07        00000 
-3.91861e-08  5.30816e-07        00000 
 3.13483e-08  1.37914e-06        00000 
 5.10166e-07  3.33364e-06        00000 
 2.57584e-06  7.83067e-06        00000 
 9.85087e-06  1.89384e-05        00000 
 3.15479e-05  4.88959e-05        00000 
 8.39854e-05  1.29162e-04        00000 
 1.68431e-04  3.07132e-04        00000 
 1.48369e-04  5.13472e-04        00000 
-5.79117e-04  1.08749e-05        00000 
-3.38979e-03 -3.58737e-03        00000 
-8.20931e-03 -1.32431e-02        00000 
-8.34886e-03 -2.60534e-02        00000 
 3.72318e-03 -3.00784e-02        00000 
 1.11498e-02 -1.80187e-02        00000 
 5.47592e-03 -5.18609e-03        00000 
 7.68047e-04  3.82144e-04        00000 
-3.60953e-04  9.61985e-04        00000 
-2.79195e-04  4.74589e-04        00000 
-2.61581e-04  2.52233e-04        00000 
 3.63156e-11  7.39269e-11        00000 
 6.55169e-11  1.24116e-10        00000 
 1.75299e-10  2.74308e-10        00000 
 4.64834e-10  5.68515e-10        00000 
 1.16357e-09  1.00301e-09        00000 
 2.75313e-09  1.17152e-09        00000 
 6.10976e-09 -8.86683e-10        00000 
 1.24286e-08 -1.19244e-08        00000 
 2.18773e-08 -5.13676e-08        00000 
 2.74502e-08 -1.67915e-07        00000 
-6.46120e-09 -4.69140e-07        00000 
-2.10190e-07 -1.16478e-06        00000 
-1.00234e-06 -2.62470e-06        00000 
-3.65139e-06 -5.53927e-06        00000 
-1.19022e-05 -1.18507e-05        00000 
-3.64181e-05 -2.95462e-05        00000 
-1.04649e-04 -9.09512e-05        00000 
-2.69678e-04 -2.98739e-04        00000 
-5.52462e-04 -8.51417e-04        00000 
-5.31609e-04 -1.63309e-03        00000 
 1.80693e-03 -1.40892e-04        00000 
 1.11588e-02  1.21446e-02        00000 
 1.85008e-02  4.05115e-02        00000 
-7.66262e-03  6.07717e-02        00000 
-2.20927e-02  1.97597e-02        00000 
-4.10161e-03 -6.99490e-04        00000 
 1.47084e-03 -3.28614e-03        00000 
 8.53484e-04 -1.34010e-03        00000 
 3.76327e-04 -3.88855e-04        00000 
 2.57596e-04 -1.45988e-04        00000 
-4.60394e-11 -5.25390e-11        00000 
-8.43559e-11 -8.97628e-11        00000 
-2.31858e-10 -1.95080e-10        00000 
-6.25034e-10 -4.00387e-10        00000 
-1.57967e-09 -6.89105e-10        00000 
-3.73218e-09 -7.21354e-10        00000 
-8.12180e-09  1.04092e-09        00000 
-1.57290e-08  9.72314e-09        00000 
-2.47724e-08  3.96701e-08        00000 
-2.09379e-08  1.25869e-07        00000 
 5.16698e-08  3.43139e-07        00000 
 3.67570e-07  8.29640e-07        00000 
 1.41203e-06  1.79680e-06        00000 
 4.46053e-06  3.50203e-06        00000 
 1.28620e-05  6.35307e-06        00000 
 3.58208e-05  1.27958e-05        00000 
 9.97886e-05  4.00394e-05        00000 
 2.78780e-04  1.78917e-04        00000 
 7.40293e-04  7.83081e-04        00000 
 1.64844e-03  2.73807e-03        00000 
 1.91828e-03  6.22600e-03        00000 
-4.35910e-03  9.41241e-04        00000 
-3.33813e-02 -5.67803e-02        00000 
 1.33795e-02 -1.78048e-01        00000 
 3.47837e-02  1.15907e-02        00000 
-6.56090e-03  1.47263e-02        00000 
-2.13269e-03  4.26558e-03        00000 
-8.32461e-04  8.22956e-04        00000 
-2.71360e-04  1.61040e-04        00000 
-1.97030e-04  3.73078e-05        00000 
 4.38909e-11  2.42577e-11        00000 
 7.57104e-11  4.75205e-11        00000 
 2.20277e-10  9.77263e-11        00000 
 5.95983e-10  2.05498e-10        00000 
 1.50939e-09  3.70986e-10        00000 
 3.55510e-09  4.56205e-10        00000 
 7.64774e-09 -2.15208e-10        00000 
 1.44270e-08 -3.95432e-09        00000 
 2.13221e-08 -1.73052e-08        00000 
 1.26536e-08 -5.63933e-08        00000 
-6.82946e-08 -1.56288e-07        00000 
-3.89509e-07 -3.83855e-07        00000 
-1.39373e-06 -8.46731e-07        00000 
-4.16620e-06 -1.67394e-06        00000 
-1.12933e-05 -2.93305e-06        00000 
-2.91400e-05 -4.72734e-06        00000 
-7.50229e-05 -1.05050e-05        00000 
-2.01791e-04 -5.49859e-05        00000 
-5.79738e-04 -3.68283e-04        00000 
-1.70606e-03 -2.08630e-03        00000 
-4.76155e-03 -8.94450e-03        00000 
-1.05265e-02 -2.28613e-02        00000 
-1.93002e-02  3.56152e-02        00000 
 8.45338e-03  7.72525e-01        00000 
 3.16192e-04 -2.44779e-01        00000 
-7.15786e-05 -7.33569e-03        00000 
-2.60737e-05 -1.63437e-03        00000 
-1.01933e-05 -4.71358e-04        00000 
-3.40286e-06 -1.76462e-04        00000 
-7.22167e-06 -4.09510e-05        00000 
 1.45287e-12 -7.55345e-12        00000 
 9.41435e-13 -5.26659e-11        00000 
 2.70379e-12 -1.71016e-10        00000 
 7.30156e-12 -5.07823e-10        00000 
 1.84571e-11 -1.40065e-09        00000 
 4.33813e-11 -3.60951e-09        00000 
 9.30797e-11 -8.64960e-09        00000 
 1.74911e-10 -1.89841e-08        00000 
 2.56387e-10 -3.68953e-08        00000 
 1.43674e-10 -5.81617e-08        00000 
-8.60400e-10 -4.99171e-08        00000 
-4.81554e-09  1.13143e-07        00000 
-1.71448e-08  8.11410e-07        00000 
-5.11488e-08  3.05924e-06        00000 
-1.38609e-07  9.32710e-06        00000 
-3.58117e-07  2.52380e-05        00000 
-9.24418e-07  6.31087e-05        00000 
-2.49261e-06  1.51114e-04        00000 
-7.15409e-06  3.71352e-04        00000 
-2.09254e-05  1.07416e-03        00000 
-5.76133e-05  4.06466e-03        00000 
-1.25617e-04  1.79426e-02        00000 
-2.21345e-04  7.35705e-02        00000 
 9.43624e-05  2.11150e-01        00000 
-6.20804e-18  6.65545e-18        00000 
 9.42224e-19  5.00584e-19        00000 
-1.88960e-19  3.79503e-20        00000 
 3.20422e-20 -7.27231e-20        00000 
 2.63390e-21  2.45610e-20        00000 
-6.22892e-21 -1.44439e-21        00000 
-4.66568e-28  8.85614e-28        00000 
 1.24002e-27 -5.37450e-27        00000 
-3.39013e-27  1.06547e-26        00000 
 5.11901e-27 -3.47292e-26        00000 
-1.06553e-26 -4.17738e-26        00000 
 1.07933e-26  4.82032e-25        00000 
 1.82450e-26 -1.06966e-25        00000 
-9.66177e-26 -2.58361e-25        00000 
 1.86329e-25  1.55274e-25        00000 
-1.15788e-25 -1.23986e-24        00000 
-2.40314e-25  8.89526e-24        00000 
-1.93119e-24 -3.88536e-23        00000 
 1.53112e-23  4.58179e-23        00000 
-7.17642e-23  2.08745e-22        00000 
 2.18240e-22 -8.46291e-23        00000 
-4.07199e-22  8.00320e-22        00000 
 3.74887e-22 -3.88991e-21        00000 
-8.23355e-22  1.05996e-20        00000 
 3.25088e-21 -2.94442e-20        00000 
 1.96311e-21  9.48793e-20        00000 
-2.38694e-20 -3.24015e-19        00000 
 3.39205e-20  1.65710e-18        00000 
-9.78642e-21 -2.74141e-18        00000 
-2.42073e-19 -7.89218e-18        00000 
 5.14525e-19 -1.48970e-18        00000 
-3.44944e-19  3.97321e-19        00000 
 7.79447e-20 -5.74607e-20        00000 
-1.59751e-20  1.52998e-20        00000 
 2.18236e-21 -6.19818e-21        00000 
 2.02841e-22  2.94801e-21        00000 
 2.20681e-28 -6.23331e-28        00000 
-4.21252e-28  1.02626e-27        00000 
 4.71089e-28 -2.51830e-27        00000 
-1.37878e-27  7.57680e-28        00000 
 1.37733e-27  2.15836e-26        00000 
 5.77747e-28 -3.86814e-26        00000 
-7.82802e-27  2.82402e-27        00000 
 1.93437e-26 -3.83728e-27        00000 
-2.45808e-26 -5.30634e-26        00000 
 3.53564e-26  4.43650e-25        00000 
-1.64854e-25 -2.10588e-24        00000 
 9.77296e-25  4.42848e-24        00000 
-4.15527e-24  4.05013e-24        00000 
 1.65786e-23 -1.75392e-23        00000 
-4.52065e-23  7.11752e-23        00000 
 6.22996e-23 -3.88668e-22        00000 
-9.87183e-23  5.58353e-22        00000 
 1.90448e-22 -1.52358e-21        00000 
-1.26732e-22  9.18807e-21        00000 
-1.52856e-21 -3.13973e-20        00000 
 4.29785e-21  1.35548e-19        00000 
-4.13401e-21 -2.57454e-19        00000 
-1.10613e-20  7.37516e-20        00000 
 4.16129e-20  7.46873e-20        00000 
-6.57905e-20 -4.57922e-21        00000 
 5.32436e-20 -8.63132e-20        00000 
-2.33771e-20  2.65088e-20        00000 
 6.07385e-21 -9.00917e-21        00000 
-1.28409e-21  1.88437e-21        00000 
 3.74219e-22 -9.86003e-22        00000 
-5.75927e-29  1.52212e-28        00000 
 6.95205e-29 -2.11838e-28        00000 
-1.18711e-28  1.87059e-28        00000 
 1.82814e-28  8.82819e-28        00000 
-1.08609e-28 -3.30709e-27        00000 
-3.92564e-28  4.04158e-27        00000 
 1.55297e-27 -1.66440e-27        00000 
-2.98166e-27 -4.01547e-27        00000 
 3.69387e-27  2.99047e-26        00000 
-1.66767e-26 -1.39016e-25        00000 
 7.90612e-26  3.46446e-25        00000 
-3.38471e-25 -1.57067e-25        00000 
 1.25922e-24 -1.30691e-24        00000 
-3.66102e-24  6.30110e-24        00000 
 7.27193e-24 -2.62497e-23        00000 
-1.10976e-23  6.99692e-23        00000 
 1.10529e-23 -1.96581e-22        00000 
-1.72084e-23  7.08122e-22        00000 
-6.23975e-23 -2.69617e-21        00000 
 3.05184e-22  9.55530e-21        00000 
-5.21499e-22 -2.32151e-20        00000 
-1.28827e-22  2.90219e-20        00000 
 2.69834e-21 -1.41195e-20        00000 
-6.71307e-21 -1.28441e-21        00000 
 9.21765e-21 -5.34050e-21        00000 
-8.14870e-21  9.37837e-21        00000 
 4.61210e-21 -7.01364e-21        00000 
-1.74250e-21  6.52892e-22        00000 
 4.87719e-22 -5.85949e-22        00000 
-2.03636e-22  3.03157e-22        00000 
 1.14109e-29 -3.03259e-29        00000 
-1.39133e-29  2.73714e-29        00000 
 2.04531e-29  2.62825e-29        00000 
-2.22172e-29 -2.15721e-28        00000 
-6.69592e-30  4.71254e-28        00000 
 1.03977e-28 -5.00471e-28        00000 
-2.82225e-28 -2.14082e-29        00000 
 4.88838e-28  2.07342e-27        00000 
-6.36860e-28 -9.21931e-27        00000 
 6.60578e-27  2.64947e-26        00000 
-2.74402e-26 -3.13002e-26        00000 
 9.95717e-26 -6.46744e-26        00000 
-2.99315e-25  4.95863e-25        00000 
 6.94413e-25 -2.03796e-24        00000 
-1.23912e-24  6.44216e-24        00000 
 1.63300e-24 -1.89712e-23        00000 
-1.05386e-24  6.22264e-23        00000 
-2.07215e-24 -2.22170e-22        00000 
 1.87314e-23  7.41759e-22        00000 
-4.69953e-23 -1.96312e-21        00000 
 3.64135e-23  3.52661e-21        00000 
 1.28843e-22 -3.90456e-21        00000 
-5.36818e-22  2.40073e-21        00000 
 1.06588e-21 -8.96334e-22        00000 
-1.38788e-21  1.12543e-21        00000 
 1.26050e-21 -1.29206e-21        00000 
-8.20242e-22  1.00235e-21        00000 
 3.87169e-22 -4.10992e-22        00000 
-1.43277e-22  1.17650e-22        00000 
 7.38790e-23 -8.42689e-23        00000 
-2.23823e-30  4.32470e-30        00000 
 2.57516e-30 -1.44417e-30        00000 
-3.11168e-30 -1.18473e-29        00000 
 1.87110e-30  4.00968e-29        00000 
 5.23579e-30 -6.74112e-29        00000 
-2.28333e-29  4.92260e-29        00000 
 5.31270e-29  1.07017e-28        00000 
-1.07416e-28 -6.43634e-28        00000 
 3.71164e-28  1.90883e-27        00000 
-2.17364e-27 -3.25866e-27        00000 
 7.98080e-27 -1.99643e-27        00000 
-2.45650e-26  3.54764e-26        00000 
 6.21680e-26 -1.62483e-25        00000 
-1.26014e-25  5.60601e-25        00000 
 1.99290e-25 -1.74440e-24        00000 
-2.13542e-25  5.54297e-24        00000 
-8.35927e-27 -1.82561e-23        00000 
 1.06860e-24  6.00248e-23        00000 
-3.59175e-24 -1.65479e-22        00000 
 5.32134e-24  3.51931e-22        00000 
 2.92044e-24 -5.39491e-22        00000 
-3.55625e-23  5.71307e-22        00000 
 9.82408e-23 -4.12428e-22        00000 
-1.70852e-22  2.45857e-22        00000 
 2.13147e-22 -2.49696e-22        00000 
-1.98444e-22  2.02382e-22        00000 
 1.40423e-22 -1.56644e-22        00000 
-7.67401e-23  8.53911e-23        00000 
 3.49625e-23 -3.49810e-23        00000 
-2.14327e-23  2.03777e-23        00000 
 4.17383e-31 -3.42713e-31        00000 
-4.43203e-31 -3.82514e-31        00000 
 4.10123e-31  2.88224e-30        00000 
 6.56560e-32 -7.35642e-30        00000 
-1.83136e-30  1.76197e-29        00000 
 5.79759e-30 -7.57237e-30        00000 
-1.23051e-29 -2.60111e-29        00000 
 3.93845e-29  1.47449e-28        00000 
-1.71226e-28 -2.81572e-28        00000 
 5.52244e-28 -3.97673e-29        00000 
-1.59383e-27  2.29321e-27        00000 
 5.18725e-27 -1.12591e-26        00000 
-9.65696e-27  4.56564e-26        00000 
 2.24319e-26 -1.60440e-25        00000 
-2.36859e-26  5.02582e-25        00000 
 2.55550e-26 -1.57700e-24        00000 
 3.64734e-26  4.93467e-24        00000 