<?xml version="1.0" encoding="utf-8"?>
<VTKFile byte_order="LittleEndian" type="UnstructuredGrid" version="0.1">
   <UnstructuredGrid>
      <Piece NumberOfCells="3364" NumberOfPoints="1741">
         <Points>
            <DataArray Name="Points" NumberOfComponents="3" format="ascii" type="Float32">
0.0000 1.0000 0.0000
0.0000 1.0345 0.0000
0.0000 1.0690 0.0000
0.0000 1.1034 0.0000
0.0000 1.1379 0.0000
0.0000 1.1724 0.0000
0.0000 1.2069 0.0000
0.0000 1.2414 0.0000
0.0000 1.2759 0.0000
0.0000 1.3103 0.0000
0.0000 1.3448 0.0000
0.0000 1.3793 0.0000
0.0000 1.4138 0.0000
0.0000 1.4483 0.0000
0.0000 1.4828 0.0000
0.0000 1.5172 0.0000
0.0000 1.5517 0.0000
0.0000 1.5862 0.0000
0.0000 1.6207 0.0000
0.0000 1.6552 0.0000
0.0000 1.6897 0.0000
0.0000 1.7241 0.0000
0.0000 1.7586 0.0000
0.0000 1.7931 0.0000
0.0000 1.8276 0.0000
0.0000 1.8621 0.0000
0.0000 1.8966 0.0000
0.0000 1.9310 0.0000
0.0000 1.9655 0.0000
0.0000 2.0000 0.0000
0.0690 1.0000 0.0000
0.0690 1.0345 0.0000
0.0690 1.0690 0.0000
0.0690 1.1034 0.0000
0.0690 1.1379 0.0000
0.0690 1.1724 0.0000
0.0690 1.2069 0.0000
0.0690 1.2414 0.0000
0.0690 1.2759 0.0000
0.0690 1.3103 0.0000
0.0690 1.3448 0.0000
0.0690 1.3793 0.0000
0.0690 1.4138 0.0000
0.0690 1.4483 0.0000
0.0690 1.4828 0.0000
0.0690 1.5172 0.0000
0.0690 1.5517 0.0000
0.0690 1.5862 0.0000
0.0690 1.6207 0.0000
0.0690 1.6552 0.0000
0.0690 1.6897 0.0000
0.0690 1.7241 0.0000
0.0690 1.7586 0.0000
0.0690 1.7931 0.0000
0.0690 1.8276 0.0000
0.0690 1.8621 0.0000
0.0690 1.8966 0.0000
0.0690 1.9310 0.0000
0.0690 1.9655 0.0000
0.0690 2.0000 0.0000
0.1379 1.0000 0.0000
0.1379 1.0345 0.0000
0.1379 1.0690 0.0000
0.1379 1.1034 0.0000
0.1379 1.1379 0.0000
0.1379 1.1724 0.0000
0.1379 1.2069 0.0000
0.1379 1.2414 0.0000
0.1379 1.2759 0.0000
0.1379 1.3103 0.0000
0.1379 1.3448 0.0000
0.1379 1.3793 0.0000
0.1379 1.4138 0.0000
0.1379 1.4483 0.0000
0.1379 1.4828 0.0000
0.1379 1.5172 0.0000
0.1379 1.5517 0.0000
0.1379 1.5862 0.0000
0.1379 1.6207 0.0000
0.1379 1.6552 0.0000
0.1379 1.6897 0.0000
0.1379 1.7241 0.0000
0.1379 1.7586 0.0000
0.1379 1.7931 0.0000
0.1379 1.8276 0.0000
0.1379 1.8621 0.0000
0.1379 1.8966 0.0000
0.1379 1.9310 0.0000
0.1379 1.9655 0.0000
0.1379 2.0000 0.0000
0.2069 1.0000 0.0000
0.2069 1.0345 0.0000
0.2069 1.0690 0.0000
0.2069 1.1034 0.0000
0.2069 1.1379 0.0000
0.2069 1.1724 0.0000
0.2069 1.2069 0.0000
0.2069 1.2414 0.0000
0.2069 1.2759 0.0000
0.2069 1.3103 0.0000
0.2069 1.3448 0.0000
0.2069 1.3793 0.0000
0.2069 1.4138 0.0000
0.2069 1.4483 0.0000
0.2069 1.4828 0.0000
0.2069 1.5172 0.0000
0.2069 1.5517 0.0000
0.2069 1.5862 0.0000
0.2069 1.6207 0.0000
0.2069 1.6552 0.0000
0.2069 1.6897 0.0000
0.2069 1.7241 0.0000
0.2069 1.7586 0.0000
0.2069 1.7931 0.0000
0.2069 1.8276 0.0000
0.2069 1.8621 0.0000
0.2069 1.8966 0.0000
0.2069 1.9310 0.0000
0.2069 1.9655 0.0000
0.2069 2.0000 0.0000
0.2759 1.0000 0.0000
0.2759 1.0345 0.0000
0.2759 1.0690 0.0000
0.2759 1.1034 0.0000
0.2759 1.1379 0.0000
0.2759 1.1724 0.0000
0.2759 1.2069 0.0000
0.2759 1.2414 0.0000
0.2759 1.2759 0.0000
0.2759 1.3103 0.0000
0.2759 1.3448 0.0000
0.2759 1.3793 0.0000
0.2759 1.4138 0.0000
0.2759 1.4483 0.0000
0.2759 1.4828 0.0000
0.2759 1.5172 0.0000
0.2759 1.5517 0.0000
0.2759 1.5862 0.0000
0.2759 1.6207 0.0000
0.2759 1.6552 0.0000
0.2759 1.6897 0.0000
0.2759 1.7241 0.0000
0.2759 1.7586 0.0000
0.2759 1.7931 0.0000
0.2759 1.8276 0.0000
0.2759 1.8621 0.0000
0.2759 1.8966 0.0000
0.2759 1.9310 0.0000
0.2759 1.9655 0.0000
0.2759 2.0000 0.0000
0.3448 1.0000 0.0000
0.3448 1.0345 0.0000
0.3448 1.0690 0.0000
0.3448 1.1034 0.0000
0.3448 1.1379 0.0000
0.3448 1.1724 0.0000
0.3448 1.2069 0.0000
0.3448 1.2414 0.0000
0.3448 1.2759 0.0000
0.3448 1.3103 0.0000
0.3448 1.3448 0.0000
0.3448 1.3793 0.0000
0.3448 1.4138 0.0000
0.3448 1.4483 0.0000
0.3448 1.4828 0.0000
0.3448 1.5172 0.0000
0.3448 1.5517 0.0000
0.3448 1.5862 0.0000
0.3448 1.6207 0.0000
0.3448 1.6552 0.0000
0.3448 1.6897 0.0000
0.3448 1.7241 0.0000
0.3448 1.7586 0.0000
0.3448 1.7931 0.0000
0.3448 1.8276 0.0000
0.3448 1.8621 0.0000
0.3448 1.8966 0.0000
0.3448 1.9310 0.0000
0.3448 1.9655 0.0000
0.3448 2.0000 0.0000
0.4138 1.0000 0.0000
0.4138 1.0345 0.0000
0.4138 1.0690 0.0000
0.4138 1.1034 0.0000
0.4138 1.1379 0.0000
0.4138 1.1724 0.0000
0.4138 1.2069 0.0000
0.4138 1.2414 0.0000
0.4138 1.2759 0.0000
0.4138 1.3103 0.0000
0.4138 1.3448 0.0000
0.4138 1.3793 0.0000
0.4138 1.4138 0.0000
0.4138 1.4483 0.0000
0.4138 1.4828 0.0000
0.4138 1.5172 0.0000
0.4138 1.5517 0.0000
0.4138 1.5862 0.0000
0.4138 1.6207 0.0000
0.4138 1.6552 0.0000
0.4138 1.6897 0.0000
0.4138 1.7241 0.0000
0.4138 1.7586 0.0000
0.4138 1.7931 0.0000
0.4138 1.8276 0.0000
0.4138 1.8621 0.0000
0.4138 1.8966 0.0000
0.4138 1.9310 0.0000
0.4138 1.9655 0.0000
0.4138 2.0000 0.0000
0.4828 1.0000 0.0000
0.4828 1.0345 0.0000
0.4828 1.0690 0.0000
0.4828 1.1034 0.0000
0.4828 1.1379 0.0000
0.4828 1.1724 0.0000
0.4828 1.2069 0.0000
0.4828 1.2414 0.0000
0.4828 1.2759 0.0000
0.4828 1.3103 0.0000
0.4828 1.3448 0.0000
0.4828 1.3793 0.0000
0.4828 1.4138 0.0000
0.4828 1.4483 0.0000
0.4828 1.4828 0.0000
0.4828 1.5172 0.0000
0.4828 1.5517 0.0000
0.4828 1.5862 0.0000
0.4828 1.6207 0.0000
0.4828 1.6552 0.0000
0.4828 1.6897 0.0000
0.4828 1.7241 0.0000
0.4828 1.7586 0.0000
0.4828 1.7931 0.0000
0.4828 1.8276 0.0000
0.4828 1.8621 0.0000
0.4828 1.8966 0.0000
0.4828 1.9310 0.0000
0.4828 1.9655 0.0000
0.4828 2.0000 0.0000
0.5517 1.0000 0.0000
0.5517 1.0345 0.0000
0.5517 1.0690 0.0000
0.5517 1.1034 0.0000
0.5517 1.1379 0.0000
0.5517 1.1724 0.0000
0.5517 1.2069 0.0000
0.5517 1.2414 0.0000
0.5517 1.2759 0.0000
0.5517 1.3103 0.0000
0.5517 1.3448 0.0000
0.5517 1.3793 0.0000
0.5517 1.4138 0.0000
0.5517 1.4483 0.0000
0.5517 1.4828 0.0000
0.5517 1.5172 0.0000
0.5517 1.5517 0.0000
0.5517 1.5862 0.0000
0.5517 1.6207 0.0000
0.5517 1.6552 0.0000
0.5517 1.6897 0.0000
0.5517 1.7241 0.0000
0.5517 1.7586 0.0000
0.5517 1.7931 0.0000
0.5517 1.8276 0.0000
0.5517 1.8621 0.0000
0.5517 1.8966 0.0000
0.5517 1.9310 0.0000
0.5517 1.9655 0.0000
0.5517 2.0000 0.0000
0.6207 1.0000 0.0000
0.6207 1.0345 0.0000
0.6207 1.0690 0.0000
0.6207 1.1034 0.0000
0.6207 1.1379 0.0000
0.6207 1.1724 0.0000
0.6207 1.2069 0.0000
0.6207 1.2414 0.0000
0.6207 1.2759 0.0000
0.6207 1.3103 0.0000
0.6207 1.3448 0.0000
0.6207 1.3793 0.0000
0.6207 1.4138 0.0000
0.6207 1.4483 0.0000
0.6207 1.4828 0.0000
0.6207 1.5172 0.0000
0.6207 1.5517 0.0000
0.6207 1.5862 0.0000
0.6207 1.6207 0.0000
0.6207 1.6552 0.0000
0.6207 1.6897 0.0000
0.6207 1.7241 0.0000
0.6207 1.7586 0.0000
0.6207 1.7931 0.0000
0.6207 1.8276 0.0000
0.6207 1.8621 0.0000
0.6207 1.8966 0.0000
0.6207 1.9310 0.0000
0.6207 1.9655 0.0000
0.6207 2.0000 0.0000
0.6897 1.0000 0.0000
0.6897 1.0345 0.0000
0.6897 1.0690 0.0000
0.6897 1.1034 0.0000
0.6897 1.1379 0.0000
0.6897 1.1724 0.0000
0.6897 1.2069 0.0000
0.6897 1.2414 0.0000
0.6897 1.2759 0.0000
0.6897 1.3103 0.0000
0.6897 1.3448 0.0000
0.6897 1.3793 0.0000
0.6897 1.4138 0.0000
0.6897 1.4483 0.0000
0.6897 1.4828 0.0000
0.6897 1.5172 0.0000
0.6897 1.5517 0.0000
0.6897 1.5862 0.0000
0.6897 1.6207 0.0000
0.6897 1.6552 0.0000
0.6897 1.6897 0.0000
0.6897 1.7241 0.0000
0.6897 1.7586 0.0000
0.6897 1.7931 0.0000
0.6897 1.8276 0.0000
0.6897 1.8621 0.0000
0.6897 1.8966 0.0000
0.6897 1.9310 0.0000
0.6897 1.9655 0.0000
0.6897 2.0000 0.0000
0.7586 1.0000 0.0000
0.7586 1.0345 0.0000
0.7586 1.0690 0.0000
0.7586 1.1034 0.0000
0.7586 1.1379 0.0000
0.7586 1.1724 0.0000
0.7586 1.2069 0.0000
0.7586 1.2414 0.0000
0.7586 1.2759 0.0000
0.7586 1.3103 0.0000
0.7586 1.3448 0.0000
0.7586 1.3793 0.0000
0.7586 1.4138 0.0000
0.7586 1.4483 0.0000
0.7586 1.4828 0.0000
0.7586 1.5172 0.0000
0.7586 1.5517 0.0000
0.7586 1.5862 0.0000
0.7586 1.6207 0.0000
0.7586 1.6552 0.0000
0.7586 1.6897 0.0000
0.7586 1.7241 0.0000
0.7586 1.7586 0.0000
0.7586 1.7931 0.0000
0.7586 1.8276 0.0000
0.7586 1.8621 0.0000
0.7586 1.8966 0.0000
0.7586 1.9310 0.0000
0.7586 1.9655 0.0000
0.7586 2.0000 0.0000
0.8276 1.0000 0.0000
0.8276 1.0345 0.0000
0.8276 1.0690 0.0000
0.8276 1.1034 0.0000
0.8276 1.1379 0.0000
0.8276 1.1724 0.0000
0.8276 1.2069 0.0000
0.8276 1.2414 0.0000
0.8276 1.2759 0.0000
0.8276 1.3103 0.0000
0.8276 1.3448 0.0000
0.8276 1.3793 0.0000
0.8276 1.4138 0.0000
0.8276 1.4483 0.0000
0.8276 1.4828 0.0000
0.8276 1.5172 0.0000
0.8276 1.5517 0.0000
0.8276 1.5862 0.0000
0.8276 1.6207 0.0000
0.8276 1.6552 0.0000
0.8276 1.6897 0.0000
0.8276 1.7241 0.0000
0.8276 1.7586 0.0000
0.8276 1.7931 0.0000
0.8276 1.8276 0.0000
0.8276 1.8621 0.0000
0.8276 1.8966 0.0000
0.8276 1.9310 0.0000
0.8276 1.9655 0.0000
0.8276 2.0000 0.0000
0.8966 1.0000 0.0000
0.8966 1.0345 0.0000
0.8966 1.0690 0.0000
0.8966 1.1034 0.0000
0.8966 1.1379 0.0000
0.8966 1.1724 0.0000
0.8966 1.2069 0.0000
0.8966 1.2414 0.0000
0.8966 1.2759 0.0000
0.8966 1.3103 0.0000
0.8966 1.3448 0.0000
0.8966 1.3793 0.0000
0.8966 1.4138 0.0000
0.8966 1.4483 0.0000
0.8966 1.4828 0.0000
0.8966 1.5172 0.0000
0.8966 1.5517 0.0000
0.8966 1.5862 0.0000
0.8966 1.6207 0.0000
0.8966 1.6552 0.0000
0.8966 1.6897 0.0000
0.8966 1.7241 0.0000
0.8966 1.7586 0.0000
0.8966 1.7931 0.0000
0.8966 1.8276 0.0000
0.8966 1.8621 0.0000
0.8966 1.8966 0.0000
0.8966 1.9310 0.0000
0.8966 1.9655 0.0000
0.8966 2.0000 0.0000
0.9655 1.0000 0.0000
0.9655 1.0345 0.0000
0.9655 1.0690 0.0000
0.9655 1.1034 0.0000
0.9655 1.1379 0.0000
0.9655 1.1724 0.0000
0.9655 1.2069 0.0000
0.9655 1.2414 0.0000
0.9655 1.2759 0.0000
0.9655 1.3103 0.0000
0.9655 1.3448 0.0000
0.9655 1.3793 0.0000
0.9655 1.4138 0.0000
0.9655 1.4483 0.0000
0.9655 1.4828 0.0000
0.9655 1.5172 0.0000
0.9655 1.5517 0.0000
0.9655 1.5862 0.0000
0.9655 1.6207 0.0000
0.9655 1.6552 0.0000
0.9655 1.6897 0.0000
0.9655 1.7241 0.0000
0.9655 1.7586 0.0000
0.9655 1.7931 0.0000
0.9655 1.8276 0.0000
0.9655 1.8621 0.0000
0.9655 1.8966 0.0000
0.9655 1.9310 0.0000
0.9655 1.9655 0.0000
0.9655 2.0000 0.0000
1.0345 1.0000 0.0000
1.0345 1.0345 0.0000
1.0345 1.0690 0.0000
1.0345 1.1034 0.0000
1.0345 1.1379 0.0000
1.0345 1.1724 0.0000
1.0345 1.2069 0.0000
1.0345 1.2414 0.0000
1.0345 1.2759 0.0000
1.0345 1.3103 0.0000
1.0345 1.3448 0.0000
[...]
         <PointData>
            <DataArray Name="fValues" NumberOfComponents="3" format="ascii" type="Float64">
-1.53479e-29 -1.14330e-29        00000 
 5.35455e-30  1.07091e-29        00000 
-2.38274e-29  9.53098e-29        00000 
 1.59666e-29  6.91888e-29        00000 
       00000 -4.23599e-28        00000 
-2.52848e-28  2.46384e-27        00000 
-7.11646e-27 -6.52343e-27        00000 
-7.45110e-27 -1.83563e-26        00000 
 3.25324e-26  1.28774e-26        00000 
-1.33591e-25 -6.22866e-26        00000 
 3.25324e-26 -1.55884e-26        00000 
-3.37897e-25  1.45241e-24        00000 
 1.73506e-25 -1.99532e-24        00000 
-9.73157e-25 -1.75370e-24        00000 
-5.20519e-25 -9.97661e-24        00000 
-2.50698e-25  1.44424e-25        00000 
 1.66566e-23  5.55220e-24        00000 
 4.74218e-24 -1.92619e-22        00000 
 1.11044e-22  2.22088e-22        00000 
 7.14335e-22  1.07708e-21        00000 
 1.42136e-21 -6.21846e-22        00000 
 1.09029e-20  1.60808e-21        00000 
-1.67010e-20  5.27681e-20        00000 
 4.25922e-20 -7.46146e-20        00000 
-5.68545e-21  6.82254e-20        00000 
 9.88900e-20  4.64725e-20        00000 
-3.41127e-20  1.87620e-19        00000 
 3.47099e-20  1.24884e-19        00000 
 1.69159e-19 -1.14684e-19        00000 
-1.62628e-19 -7.53528e-19        00000 
 2.24413e-13  3.63081e-14        00000 
 8.18305e-14  7.67033e-14        00000 
 9.55164e-14  2.83596e-13        00000 
-1.79278e-13  8.19472e-13        00000 
-1.57037e-12  2.18638e-12        00000 
-6.57606e-12  5.42613e-12        00000 
-2.21083e-11  1.24942e-11        00000 
-6.59996e-11  2.64641e-11        00000 
-1.81512e-10  5.05817e-11        00000 
-4.67676e-10  8.33661e-11        00000 
-1.13796e-09  1.01944e-10        00000 
-2.62026e-09  8.66142e-12        00000 
-5.67951e-09 -5.52046e-10        00000 
-1.13592e-08 -2.86378e-09        00000 
-1.97401e-08 -1.15582e-08        00000 
-2.35547e-08 -4.26273e-08        00000 
 1.69560e-08 -1.46418e-07        00000 
 2.59053e-07 -4.61043e-07        00000 
 1.22952e-06 -1.29648e-06        00000 
 4.47321e-06 -3.13816e-06        00000 
 1.39481e-05 -6.10333e-06        00000 
 3.83073e-05 -7.72367e-06        00000 
 9.28384e-05  2.36096e-06        00000 
 1.96564e-04  4.99354e-05        00000 
 3.57386e-04  1.78225e-04        00000 
 5.45278e-04  4.29502e-04        00000 
 6.78722e-04  7.95014e-04        00000 
 6.38073e-04  1.12191e-03        00000 
 2.79594e-04  1.02770e-03        00000 
-2.96836e-03  1.16693e-03        00000 
-2.17108e-13 -7.12732e-14        00000 
-1.07898e-13 -1.63309e-13        00000 
-1.00441e-13 -5.21659e-13        00000 
 1.54685e-13 -1.59286e-12        00000 
 1.50046e-12 -4.44874e-12        00000 
 6.41403e-12 -1.15190e-11        00000 
 2.18429e-11 -2.77811e-11        00000 
 6.59725e-11 -6.22999e-11        00000 
 1.83544e-10 -1.28827e-10        00000 
 4.77997e-10 -2.40764e-10        00000 
 1.17218e-09 -3.85375e-10        00000 
 2.70309e-09 -4.26185e-10        00000 
 5.80250e-09  2.53329e-10        00000 
 1.12870e-08  4.05718e-09        00000 
 1.84796e-08  1.98361e-08        00000 
 1.86331e-08  7.82705e-08        00000 
-2.79246e-08  2.76984e-07        00000 
-2.63958e-07  8.92359e-07        00000 
-1.14785e-06  2.59082e-06        00000 
-4.03515e-06  6.62117e-06        00000 
-1.26172e-05  1.42515e-05        00000 
-3.59301e-05  2.32286e-05        00000 
-9.29362e-05  1.72834e-05        00000 
-2.14475e-04 -5.28609e-05        00000 
-4.29511e-04 -2.83148e-04        00000 
-7.22206e-04 -7.84242e-04        00000 
-9.80281e-04 -1.56438e-03        00000 
-1.00097e-03 -2.36728e-03        00000 
-4.74510e-05 -2.74669e-03        00000 
 3.81056e-03 -2.80304e-03        00000 
 1.59550e-13  9.41983e-14        00000 
 8.43637e-14  2.22042e-13        00000 
 8.10902e-14  6.89460e-13        00000 
-8.88883e-14  2.12673e-12        00000 
-1.02081e-12  6.01841e-12        00000 
-4.50192e-12  1.57991e-11        00000 
-1.56619e-11  3.87291e-11        00000 
-4.82890e-11  8.86111e-11        00000 
-1.37156e-10  1.87814e-10        00000 
-3.63977e-10  3.61618e-10        00000 
-9.04244e-10  6.00177e-10        00000 
-2.08745e-09  7.05094e-10        00000 
-4.39154e-09 -2.58367e-10        00000 
-8.05809e-09 -5.83166e-09        00000 
-1.13993e-08 -2.83072e-08        00000 
-5.48053e-09 -1.07781e-07        00000 
 4.01005e-08 -3.66397e-07        00000 
 2.13214e-07 -1.14506e-06        00000 
 7.56466e-07 -3.28841e-06        00000 
 2.36823e-06 -8.54374e-06        00000 
 7.18789e-06 -1.94376e-05        00000 
 2.17925e-05 -3.60367e-05        00000 
 6.44961e-05 -4.30515e-05        00000 
 1.77481e-04  2.16505e-05        00000 
 4.28087e-04  3.08578e-04        00000 
 8.53889e-04  1.04021e-03        00000 
 1.32958e-03  2.32307e-03        00000 
 1.44561e-03  3.82851e-03        00000 
 1.59676e-04  4.71152e-03        00000 
-4.79318e-03  4.72790e-03        00000 
-7.97749e-14 -1.08601e-13        00000 
-4.31214e-14 -2.55433e-13        00000 
-4.45292e-14 -7.84765e-13        00000 
 2.45214e-14 -2.42587e-12        00000 
 4.38848e-13 -6.90491e-12        00000 
 2.06334e-12 -1.82823e-11        00000 
 7.52502e-12 -4.53556e-11        00000 
 2.43002e-11 -1.05394e-10        00000 
 7.21736e-11 -2.27493e-10        00000 
 1.98917e-10 -4.46093e-10        00000 
 5.05830e-10 -7.48899e-10        00000 
 1.16502e-09 -8.60576e-10        00000 
 2.33595e-09  5.05557e-10        00000 
 3.69223e-09  8.01292e-09        00000 
 2.91351e-09  3.67311e-08        00000 
-7.72427e-09  1.31911e-07        00000 
-4.62520e-08  4.21459e-07        00000 
-1.41396e-07  1.24563e-06        00000 
-3.14520e-07  3.44630e-06        00000 
-5.60353e-07  8.90132e-06        00000 
-1.12149e-06  2.10837e-05        00000 
-4.44285e-06  4.38182e-05        00000 
-2.32929e-05  7.10116e-05        00000 
-1.02305e-04  4.93175e-05        00000 
-3.55769e-04 -2.08179e-04        00000 
-9.41543e-04 -1.09357e-03        00000 
-1.80571e-03 -2.99072e-03        00000 
-2.26318e-03 -5.57264e-03        00000 
-6.00948e-04 -7.29371e-03        00000 
 6.17919e-03 -7.26486e-03        00000 
-8.33091e-15  1.13192e-13        00000 
-4.49954e-15  2.64217e-13        00000 
 2.75639e-17  8.06201e-13        00000 
 3.11962e-14  2.49029e-12        00000 
 1.51488e-13  7.11049e-12        00000 
 4.89030e-13  1.89558e-11        00000 
 1.19161e-12  4.75299e-11        00000 
 2.03580e-12  1.11996e-10        00000 
 1.11225e-12  2.45533e-10        00000 
-7.73833e-12  4.88010e-10        00000 
-3.49538e-11  8.21514e-10        00000 
-7.07986e-11  9.00167e-10        00000 
 3.88268e-11 -8.58703e-10        00000 
 9.93906e-10 -9.97478e-09        00000 
 4.92927e-09 -4.32347e-08        00000 
 1.62489e-08 -1.47209e-07        00000 
 3.77956e-08 -4.42553e-07        00000 
 4.40430e-08 -1.22664e-06        00000 
-1.19990e-07 -3.20862e-06        00000 
-1.00720e-06 -8.03741e-06        00000 
-4.02007e-06 -1.93690e-05        00000 
-1.11904e-05 -4.42187e-05        00000 
-2.02548e-05 -9.04529e-05        00000 
 3.26314e-07 -1.39813e-04        00000 
 1.72885e-04 -3.94788e-05        00000 
 8.53483e-04  7.72459e-04        00000 
 2.33975e-03  3.30013e-03        00000 
 3.75180e-03  7.70616e-03        00000 
 1.91784e-03  1.12281e-02        00000 
-7.79753e-03  1.07502e-02        00000 
 9.46105e-14 -1.07495e-13        00000 
 5.09580e-14 -2.48702e-13        00000 
 4.44033e-14 -7.55412e-13        00000 
-7.83093e-14 -2.32778e-12        00000 
-6.98976e-13 -6.65501e-12        00000 
-2.90521e-12 -1.78356e-11        00000 
-9.60441e-12 -4.51231e-11        00000 
-2.80263e-11 -1.07555e-10        00000 
-7.51972e-11 -2.38607e-10        00000 
-1.89879e-10 -4.78131e-10        00000 
-4.59100e-10 -8.01024e-10        00000 
-1.07716e-09 -8.20596e-10        00000 
-2.46573e-09  1.18403e-09        00000 
-5.44536e-09  1.10259e-08        00000 
-1.11147e-08  4.55851e-08        00000 
-1.85585e-08  1.48793e-07        00000 
-1.30004e-08  4.25545e-07        00000 
 7.96887e-08  1.11183e-06        00000 
 5.39183e-07  2.73022e-06        00000 
 2.25570e-06  6.48986e-06        00000 
 7.65521e-06  1.54169e-05        00000 
 2.22657e-05  3.73519e-05        00000 
 5.45402e-05  9.07167e-05        00000 
 1.05039e-04  2.04797e-04        00000 
 8.66012e-05  3.50314e-04        00000 
-2.97417e-04  9.26425e-05        00000 
-2.47291e-03 -2.60060e-03        00000 
-6.22679e-03 -1.01924e-02        00000 
-6.23891e-03 -1.85229e-02        00000 
 7.82976e-03 -1.56233e-02        00000 
-1.69161e-13  9.19895e-14        00000 
-8.89492e-14  2.09555e-13        00000 
-8.07391e-14  6.37878e-13        00000 
 1.19487e-13  1.95760e-12        00000 
 1.16543e-12  5.58926e-12        00000 
 4.97525e-12  1.50182e-11        00000 
 1.69062e-11  3.82107e-11        00000 
 5.09786e-11  9.17296e-11        00000 
 1.41834e-10  2.04734e-10        00000 
 3.70388e-10  4.10519e-10        00000 
 9.13955e-10  6.77185e-10        00000 
 2.12861e-09  6.25740e-10        00000 
 4.62938e-09 -1.37064e-09        00000 
 9.13967e-09 -1.06498e-08        00000 
 1.51912e-08 -4.21732e-08        00000 
 1.56136e-08 -1.33067e-07        00000 
-2.23424e-08 -3.66327e-07        00000 
-2.14738e-07 -9.12811e-07        00000 
-9.25304e-07 -2.11489e-06        00000 
-3.20589e-06 -4.72403e-06        00000 
-9.91413e-06 -1.07645e-05        00000 
-2.81908e-05 -2.66194e-05        00000 
-7.43656e-05 -7.25419e-05        00000 
-1.75005e-04 -2.05165e-04        00000 
-3.65494e-04 -5.41656e-04        00000 
-4.02613e-04 -1.07913e-03        00000 
-2.18799e-04 -4.27921e-04        00000 
 9.97730e-03  1.17597e-02        00000 
 2.02484e-02  3.52954e-02        00000 
 4.25798e-03  2.25668e-02        00000 
 2.18373e-13 -6.76723e-14        00000 
 1.07467e-13 -1.45157e-13        00000 
 9.94288e-14 -4.57496e-13        00000 
-1.54393e-13 -1.39559e-12        00000 
-1.48760e-12 -3.96075e-12        00000 
-6.37290e-12 -1.06200e-11        00000 
-2.18451e-11 -2.70227e-11        00000 
-6.66664e-11 -6.48885e-11        00000 
-1.87933e-10 -1.44476e-10        00000 
-4.96314e-10 -2.86720e-10        00000 
-1.23127e-09 -4.57316e-10        00000 
-2.85195e-09 -3.47767e-10        00000 
-6.06142e-09  1.30451e-09        00000 
-1.13540e-08  8.51876e-09        00000 
-1.67288e-08  3.22309e-08        00000 
-9.71137e-09  9.86294e-08        00000 
 5.62826e-08  2.63466e-07        00000 
 3.25736e-07  6.33335e-07        00000 
 1.20472e-06  1.40028e-06        00000 
 3.77716e-06  2.95085e-06        00000 
 1.08663e-05  6.39162e-06        00000 
 2.98242e-05  1.58698e-05        00000 
 7.90532e-05  4.70577e-05        00000 
 2.05814e-04  1.51935e-04        00000 
 4.95791e-04  4.76492e-04        00000 
 1.26970e-03  1.32465e-03        00000 
 1.64502e-03  2.74170e-03        00000 
 9.53763e-03 -5.76977e-04        00000 
-8.93252e-02 -7.42925e-02        00000 
-6.60271e-02 -4.88853e-02        00000 
-2.12366e-13  2.71072e-14        00000 
-7.77379e-14  3.86648e-14        00000 
-9.04094e-14  1.96604e-13        00000 
 1.52934e-13  6.26421e-13        00000 
 1.40465e-12  1.82244e-12        00000 
 5.98573e-12  4.99596e-12        00000 
 2.05420e-11  1.29830e-11        00000 
 6.29272e-11  3.18460e-11        00000 
 1.78190e-10  7.26031e-11        00000 
 4.72216e-10  1.48743e-10        00000 
 1.17208e-09  2.52331e-10        00000 
 2.70210e-09  2.55647e-10        00000 
 5.66716e-09 -3.99458e-10        00000 
 1.03096e-08 -3.53066e-09        00000 
 1.40977e-08 -1.41358e-08        00000 
 3.86709e-09 -4.42611e-08        00000 
-6.61075e-08 -1.19696e-07        00000 
-3.29671e-07 -2.89955e-07        00000 
-1.14246e-06 -6.43853e-07        00000 
-3.40218e-06 -1.35786e-06        00000 
-9.36343e-06 -2.95215e-06        00000 
-2.48444e-05 -7.59738e-06        00000 
-6.59326e-05 -2.44044e-05        00000 
-1.76407e-04 -8.60579e-05        00000 
-4.93327e-04 -2.68849e-04        00000 
-1.26447e-03 -6.31682e-04        00000 
-4.06861e-03 -2.75532e-04        00000 
-1.13858e-03  1.65159e-03        00000 
-6.83241e-02  1.84395e-02        00000 
 7.77556e-01 -4.65049e-02        00000 
-1.12971e-14  8.05587e-14        00000 
-1.00053e-15  2.10173e-13        00000 
-1.05848e-15  3.10361e-13        00000 
 2.00337e-15  3.73229e-13        00000 
 1.75206e-14 -5.39266e-14        00000 
 7.40343e-14 -2.61096e-12        00000 
 2.53107e-13 -1.25295e-11        00000 
 7.73458e-13 -4.51471e-11        00000 
 2.18592e-12 -1.42498e-10        00000 
 5.78239e-12 -4.12604e-10        00000 
 1.43258e-11 -1.11401e-09        00000 
 3.29569e-11 -2.81289e-09        00000 
 6.89340e-11 -6.60007e-09        00000 
 1.24870e-10 -1.41426e-08        00000 
 1.69012e-10 -2.66110e-08        00000 
 3.87732e-11 -3.94549e-08        00000 
-8.28000e-10 -2.48952e-08        00000 
-4.07376e-09  1.17431e-07        00000 
-1.40609e-08  6.85317e-07        00000 
-4.18106e-08  2.46954e-06        00000 
-1.15043e-07  7.44342e-06        00000 
-3.05441e-07  2.04763e-05        00000 
-8.10794e-07  5.42523e-05        00000 
-2.17109e-06  1.45459e-04        00000 
-6.04368e-06  4.10360e-04        00000 
-1.55894e-05  1.20920e-03        00000 
-4.82247e-05  3.50363e-03        00000 
-2.17098e-05  8.63067e-03        00000 
-5.72934e-04  1.61621e-02        00000 
 9.12711e-03 -3.28457e-02        00000 
-1.27688e-30  1.47045e-30        00000 
 5.25973e-31  7.97991e-30        00000 
 2.24653e-30  4.72954e-31        00000 
-3.47589e-30 -1.69155e-29        00000 
       00000  4.16224e-29        00000 
-8.39526e-30  3.41290e-29        00000 
 9.51374e-29  1.18437e-28        00000 
-3.74029e-28  2.77897e-27        00000 
 2.42615e-28 -1.15849e-26        00000 
 3.04061e-27  8.52995e-27        00000 
-4.43408e-27 -2.06554e-26        00000 
-7.57932e-27 -1.18762e-25        00000 
 2.82427e-26 -5.48658e-26        00000 
-4.56617e-26  6.26952e-25        00000 
 4.09137e-26 -1.87279e-25        00000 
 1.18050e-26  2.16523e-24        00000 
-3.42653e-25  3.40659e-24        00000 
 3.72693e-24 -2.33537e-23        00000 
-1.17365e-23  3.36327e-23        00000 
 1.43325e-23 -8.42367e-24        00000 
 5.95148e-24  9.42318e-23        00000 
-1.15312e-22  4.38345e-22        00000 
 1.08659e-22 -1.48589e-22        00000 
 1.18707e-21 -1.17515e-20        00000 
-1.06957e-20 -4.32320e-21        00000 
 2.52134e-20 -2.16838e-20        00000 
-1.23833e-19 -4.62096e-19        00000 
 5.14575e-19 -6.34294e-20        00000 
-1.74864e-18  2.07246e-18        00000 
 2.27418e-18 -2.54708e-18        00000 
 1.50933e-31  1.37960e-31        00000 
-2.31289e-32 -3.80825e-31        00000 
-3.90746e-31 -1.89656e-31        00000 
 5.52685e-31  1.14851e-30        00000 
-8.21704e-31  5.22904e-30        00000 
-5.55753e-30 -4.46227e-29        00000 
-3.56897e-29  1.64669e-28        00000 
 4.16609e-29 -6.95233e-28        00000 
 7.66252e-29  9.65773e-28        00000 
-3.78386e-28 -4.80550e-28        00000 
-1.13307e-28 -6.44340e-27        00000 
 1.76772e-27  4.52391e-27        00000 
-4.47853e-27  1.56704e-26        00000 
 7.22065e-27 -5.76998e-26        00000 
-8.83728e-27  1.37604e-25        00000 
-1.78110e-26  7.26329e-26        00000 
 7.46406e-26 -1.26532e-24        00000 
-5.57953e-25  3.44071e-24        00000 
 1.48514e-24 -1.79454e-24        00000 
-1.02966e-24  1.27502e-23        00000 
-2.56232e-24 -2.01042e-23        00000 
-1.98751e-24  1.27200e-22        00000 
 6.58535e-23 -4.54730e-22        00000 
-7.98121e-22 -1.19650e-23        00000 
 3.05244e-21  1.01394e-23        00000 
-1.02817e-20 -1.70356e-20        00000 
 3.96021e-20  2.56295e-20        00000 
-1.27230e-19  7.19090e-20        00000 
 2.44148e-19 -1.62765e-19        00000 
-3.31452e-19  3.65740e-19        00000 
-1.06412e-32 -4.24379e-32        00000 
-1.06780e-32  3.04282e-32        00000 
 5.53045e-32  6.63876e-34        00000 
-8.98714e-32  3.76989e-31        00000 
-1.04243e-32 -3.13183e-30        00000 
-1.23170e-30  1.35206e-29        00000 
 4.04790e-30 -4.78691e-29        00000 
-1.16001e-30  1.03752e-28        00000 
-9.43652e-30 -1.21836e-28        00000 
 1.91071e-29 -1.98141e-28        00000 
 8.62293e-29  5.95126e-28        00000 
-3.59397e-28  2.77685e-28        00000 
 7.49088e-28 -3.85224e-27        00000 
-9.96853e-28  1.01688e-26        00000 
-4.47480e-28 -4.52322e-27        00000 
 8.27625e-27 -6.57233e-26        00000 
-5.23673e-26  2.48364e-25        00000 
 1.16165e-25 -4.59571e-25        00000 
-1.88219e-25  9.68894e-25        00000 
 1.34679e-25 -2.54723e-24        00000 
-6.97247e-25  9.04830e-24        00000 
 7.61237e-24 -2.95843e-23        00000 
-5.68555e-23  3.54281e-23        00000 
 2.58965e-22  3.30664e-23        00000 
-9.87434e-22 -6.35252e-22        00000 
 3.27468e-21  1.75972e-21        00000 
-1.00854e-20  1.48977e-21        00000 
 2.29368e-20 -1.04862e-20        00000 
-3.75773e-20  3.24992e-20        00000 
 4.74121e-20 -4.30940e-20        00000 
-5.41371e-34  6.72507e-33        00000 
 3.18745e-33 -7.76271e-33        00000 
-9.18475e-33  3.62363e-32        00000 
 1.48211e-32 -2.33336e-31        00000 
-6.99908e-32  1.04810e-30        00000 
 2.71601e-31 -3.63402e-30        00000 
-4.03223e-31  9.11704e-30        00000 
-2.93841e-33 -1.47282e-29        00000 
-4.73855e-31  6.16011e-30        00000 
 3.46883e-30  3.24073e-29        00000 
-2.40956e-29 -2.61846e-29        00000 
 6.62279e-29 -1.92322e-28        00000 
-1.08634e-28  7.23338e-28        00000 
 3.30228e-29 -8.13836e-28        00000 
 6.23139e-28 -3.04861e-27        00000 
-3.84162e-27  1.72333e-26        00000 
 1.63740e-26 -4.20758e-26        00000 
-2.16183e-26  1.01143e-25        00000 
 3.61634e-26 -2.47830e-25        00000 
-1.16603e-25  7.38663e-25        00000 
 7.48562e-25 -2.16372e-24        00000 
-4.52256e-24  3.86441e-24        00000 
 2.09811e-23 -2.80281e-25        00000 
-8.04969e-23 -3.01681e-23        00000 
 2.65946e-22  8.68149e-23        00000 
-8.24852e-22 -5.01516e-23        00000 
 2.06178e-21 -6.05927e-22        00000 
-4.04460e-21  2.31226e-21        00000 
 6.15593e-21 -4.03671e-21        00000 
-6.85968e-21  5.77658e-21        00000 
 3.97857e-34 -1.77865e-33        00000 
-7.69643e-34  3.98087e-33        00000 
 1.83980e-33 -1.90624e-32        00000 
-5.54836e-33  8.42230e-32        00000 
 1.90794e-32 -2.92080e-31        00000 
-4.24651e-32  7.82545e-31        00000 
 5.35208e-32 -1.52280e-30        00000 
-1.15908e-31  1.71386e-30        00000 
 9.46844e-31  3.25395e-31        00000 
-1.62975e-30 -2.40053e-30        00000 
 5.20336e-30 -7.34215e-30        00000 
-1.04981e-29  4.54254e-29        00000 
 8.61391e-30 -8.00408e-29        00000 
 3.89040e-29 -1.15358e-28        00000 
-2.72470e-28  1.12452e-27        00000 
 1.07250e-27 -3.64963e-27        00000 
-1.78643e-27  8.57323e-27        00000 
 5.15053e-27 -2.27171e-26        00000 
-1.52317e-26  6.17941e-26        00000 
 7.32362e-26 -1.68737e-25        00000 
-3.78908e-25  3.48559e-25        00000 
 1.70881e-24 -2.83947e-25        00000 
-6.59845e-24 -1.24614e-24        00000 
 2.22382e-23  4.71055e-24        00000 
-6.67643e-23  4.98594e-24        00000 
 1.80363e-22 -2.90405e-23        00000 
-3.90761e-22  1.59392e-22        00000 
 6.46782e-22 -3.87888e-22        00000 
-9.74921e-22  6.77979e-22        00000 
 1.09251e-21 -8.14487e-22        00000 
-1.15508e-34  7.23937e-34        00000 
 1.86381e-34 -1.72767e-33        00000 
-4.85406e-34  7.11633e-33        00000 
 1.34314e-33 -2.78072e-32        00000 
-1.52650e-33  1.22217e-31        00000 
 7.39489e-33 -2.08906e-31        00000 
-1.10908e-32  3.08319e-31        00000 
 7.71504e-32 -2.23677e-31        00000 
-2.08087e-31  1.04044e-31        00000 
 4.29037e-31 -3.34723e-31        00000 
-7.59332e-31  2.81746e-30        00000 
 1.60288e-30 -6.01542e-30        00000 
 2.83807e-30  4.98096e-31        00000 
-1.44439e-29  7.88372e-29        00000 
 8.14148e-29 -2.86304e-28        00000 
-1.74202e-28  7.88336e-28        00000 
 8.01988e-28 -1.33994e-27        00000 