<?xml version="1.0" encoding="utf-8"?>
<VTKFile byte_order="LittleEndian" type="UnstructuredGrid" version="0.1">
   <UnstructuredGrid>
      <Piece NumberOfCells="3364" NumberOfPoints="1741">
         <Points>
            <DataArray Name="Points" NumberOfComponents="3" format="ascii" type="Float32">
0.0000 1.0000 0.0000
0.0000 1.0345 0.0000
0.0000 1.0690 0.0000
0.0000 1.1034 0.0000
0.0000 1.1379 0.0000
0.0000 1.1724 0.0000
0.0000 1.2069 0.0000
0.0000 1.2414 0.0000
0.0000 1.2759 0.0000
0.0000 1.3103 0.0000
0.0000 1.3448 0.0000
0.0000 1.3793 0.0000
0.0000 1.4138 0.0000
0.0000 1.4483 0.0000
0.0000 1.4828 0.0000
0.0000 1.5172 0.0000
0.0000 1.5517 0.0000
0.0000 1.5862 0.0000
0.0000 1.6207 0.0000
0.0000 1.6552 0.0000
0.0000 1.6897 0.0000
0.0000 1.7241 0.0000
0.0000 1.7586 0.0000
0.0000 1.7931 0.0000
0.0000 1.8276 0.0000
0.0000 1.8621 0.0000
0.0000 1.8966 0.0000
0.0000 1.9310 0.0000
0.0000 1.9655 0.0000
0.0000 2.0000 0.0000
0.0690 1.0000 0.0000
0.0690 1.0345 0.0000
0.0690 1.0690 0.0000
0.0690 1.1034 0.0000
0.0690 1.1379 0.0000
0.0690 1.1724 0.0000
0.0690 1.2069 0.0000
0.0690 1.2414 0.0000
0.0690 1.2759 0.0000
0.0690 1.3103 0.0000
0.0690 1.3448 0.0000
0.0690 1.3793 0.0000
0.0690 1.4138 0.0000
0.0690 1.4483 0.0000
0.0690 1.4828 0.0000
0.0690 1.5172 0.0000
0.0690 1.5517 0.0000
0.0690 1.5862 0.0000
0.0690 1.6207 0.0000
0.0690 1.6552 0.0000
0.0690 1.6897 0.0000
0.0690 1.7241 0.0000
0.0690 1.7586 0.0000
0.0690 1.7931 0.0000
0.0690 1.8276 0.0000
0.0690 1.8621 0.0000
0.0690 1.8966 0.0000
0.0690 1.9310 0.0000
0.0690 1.9655 0.0000
0.0690 2.0000 0.0000
0.1379 1.0000 0.0000
0.1379 1.0345 0.0000
0.1379 1.0690 0.0000
0.1379 1.1034 0.0000
0.1379 1.1379 0.0000
0.1379 1.1724 0.0000
0.1379 1.2069 0.0000
0.1379 1.2414 0.0000
0.1379 1.2759 0.0000
0.1379 1.3103 0.0000
0.1379 1.3448 0.0000
0.1379 1.3793 0.0000
0.1379 1.4138 0.0000
0.1379 1.4483 0.0000
0.1379 1.4828 0.0000
0.1379 1.5172 0.0000
0.1379 1.5517 0.0000
0.1379 1.5862 0.0000
0.1379 1.6207 0.0000
0.1379 1.6552 0.0000
0.1379 1.6897 0.0000
0.1379 1.7241 0.0000
0.1379 1.7586 0.0000
0.1379 1.7931 0.0000
0.1379 1.8276 0.0000
0.1379 1.8621 0.0000
0.1379 1.8966 0.0000
0.1379 1.9310 0.0000
0.1379 1.9655 0.0000
0.1379 2.0000 0.0000
0.2069 1.0000 0.0000
0.2069 1.0345 0.0000
0.2069 1.0690 0.0000
0.2069 1.1034 0.0000
0.2069 1.1379 0.0000
0.2069 1.1724 0.0000
0.2069 1.2069 0.0000
0.2069 1.2414 0.0000
0.2069 1.2759 0.0000
0.2069 1.3103 0.0000
0.2069 1.3448 0.0000
0.2069 1.3793 0.0000
0.2069 1.4138 0.0000
0.2069 1.4483 0.0000
0.2069 1.4828 0.0000
0.2069 1.5172 0.0000
0.2069 1.5517 0.0000
0.2069 1.5862 0.0000
0.2069 1.6207 0.0000
0.2069 1.6552 0.0000
0.2069 1.6897 0.0000
0.2069 1.7241 0.0000
0.2069 1.7586 0.0000
0.2069 1.7931 0.0000
0.2069 1.8276 0.0000
0.2069 1.8621 0.0000
0.2069 1.8966 0.0000
0.2069 1.9310 0.0000
0.2069 1.9655 0.0000
0.2069 2.0000 0.0000
0.2759 1.0000 0.0000
0.2759 1.0345 0.0000
0.2759 1.0690 0.0000
0.2759 1.1034 0.0000
0.2759 1.1379 0.0000
0.2759 1.1724 0.0000
0.2759 1.2069 0.0000
0.2759 1.2414 0.0000
0.2759 1.2759 0.0000
0.2759 1.3103 0.0000
0.2759 1.3448 0.0000
0.2759 1.3793 0.0000
0.2759 1.4138 0.0000
0.2759 1.4483 0.0000
0.2759 1.4828 0.0000
0.2759 1.5172 0.0000
0.2759 1.5517 0.0000
0.2759 1.5862 0.0000
0.2759 1.6207 0.0000
0.2759 1.6552 0.0000
0.2759 1.6897 0.0000
0.2759 1.7241 0.0000
0.2759 1.7586 0.0000
0.2759 1.7931 0.0000
0.2759 1.8276 0.0000
0.2759 1.8621 0.0000
0.2759 1.8966 0.0000
0.2759 1.9310 0.0000
0.2759 1.9655 0.0000
0.2759 2.0000 0.0000
0.3448 1.0000 0.0000
0.3448 1.0345 0.0000
0.3448 1.0690 0.0000
0.3448 1.1034 0.0000
0.3448 1.1379 0.0000
0.3448 1.1724 0.0000
0.3448 1.2069 0.0000
0.3448 1.2414 0.0000
0.3448 1.2759 0.0000
0.3448 1.3103 0.0000
0.3448 1.3448 0.0000
0.3448 1.3793 0.0000
0.3448 1.4138 0.0000
0.3448 1.4483 0.0000
0.3448 1.4828 0.0000
0.3448 1.5172 0.0000
0.3448 1.5517 0.0000
0.3448 1.5862 0.0000
0.3448 1.6207 0.0000
0.3448 1.6552 0.0000
0.3448 1.6897 0.0000
0.3448 1.7241 0.0000
0.3448 1.7586 0.0000
0.3448 1.7931 0.0000
0.3448 1.8276 0.0000
0.3448 1.8621 0.0000
0.3448 1.8966 0.0000
0.3448 1.9310 0.0000
0.3448 1.9655 0.0000
0.3448 2.0000 0.0000
0.4138 1.0000 0.0000
0.4138 1.0345 0.0000
0.4138 1.0690 0.0000
0.4138 1.1034 0.0000
0.4138 1.1379 0.0000
0.4138 1.1724 0.0000
0.4138 1.2069 0.0000
0.4138 1.2414 0.0000
0.4138 1.2759 0.0000
0.4138 1.3103 0.0000
0.4138 1.3448 0.0000
0.4138 1.3793 0.0000
0.4138 1.4138 0.0000
0.4138 1.4483 0.0000
0.4138 1.4828 0.0000
0.4138 1.5172 0.0000
0.4138 1.5517 0.0000
0.4138 1.5862 0.0000
0.4138 1.6207 0.0000
0.4138 1.6552 0.0000
0.4138 1.6897 0.0000
0.4138 1.7241 0.0000
0.4138 1.7586 0.0000
0.4138 1.7931 0.0000
0.4138 1.8276 0.0000
0.4138 1.8621 0.0000
0.4138 1.8966 0.0000
0.4138 1.9310 0.0000
0.4138 1.9655 0.0000
0.4138 2.0000 0.0000
0.4828 1.0000 0.0000
0.4828 1.0345 0.0000
0.4828 1.0690 0.0000
0.4828 1.1034 0.0000
0.4828 1.1379 0.0000
0.4828 1.1724 0.0000
0.4828 1.2069 0.0000
0.4828 1.2414 0.0000
0.4828 1.2759 0.0000
0.4828 1.3103 0.0000
0.4828 1.3448 0.0000
0.4828 1.3793 0.0000
0.4828 1.4138 0.0000
0.4828 1.4483 0.0000
0.4828 1.4828 0.0000
0.4828 1.5172 0.0000
0.4828 1.5517 0.0000
0.4828 1.5862 0.0000
0.4828 1.6207 0.0000
0.4828 1.6552 0.0000
0.4828 1.6897 0.0000
0.4828 1.7241 0.0000
0.4828 1.7586 0.0000
0.4828 1.7931 0.0000
0.4828 1.8276 0.0000
0.4828 1.8621 0.0000
0.4828 1.8966 0.0000
0.4828 1.9310 0.0000
0.4828 1.9655 0.0000
0.4828 2.0000 0.0000
0.5517 1.0000 0.0000
0.5517 1.0345 0.0000
0.5517 1.0690 0.0000
0.5517 1.1034 0.0000
0.5517 1.1379 0.0000
0.5517 1.1724 0.0000
0.5517 1.2069 0.0000
0.5517 1.2414 0.0000
0.5517 1.2759 0.0000
0.5517 1.3103 0.0000
0.5517 1.3448 0.0000
0.5517 1.3793 0.0000
0.5517 1.4138 0.0000
0.5517 1.4483 0.0000
0.5517 1.4828 0.0000
0.5517 1.5172 0.0000
0.5517 1.5517 0.0000
0.5517 1.5862 0.0000
0.5517 1.6207 0.0000
0.5517 1.6552 0.0000
0.5517 1.6897 0.0000
0.5517 1.7241 0.0000
0.5517 1.7586 0.0000
0.5517 1.7931 0.0000
0.5517 1.8276 0.0000
0.5517 1.8621 0.0000
0.5517 1.8966 0.0000
0.5517 1.9310 0.0000
0.5517 1.9655 0.0000
0.5517 2.0000 0.0000
0.6207 1.0000 0.0000
0.6207 1.0345 0.0000
0.6207 1.0690 0.0000
0.6207 1.1034 0.0000
0.6207 1.1379 0.0000
0.6207 1.1724 0.0000
0.6207 1.2069 0.0000
0.6207 1.2414 0.0000
0.6207 1.2759 0.0000
0.6207 1.3103 0.0000
0.6207 1.3448 0.0000
0.6207 1.3793 0.0000
0.6207 1.4138 0.0000
0.6207 1.4483 0.0000
0.6207 1.4828 0.0000
0.6207 1.5172 0.0000
0.6207 1.5517 0.0000
0.6207 1.5862 0.0000
0.6207 1.6207 0.0000
0.6207 1.6552 0.0000
0.6207 1.6897 0.0000
0.6207 1.7241 0.0000
0.6207 1.7586 0.0000
0.6207 1.7931 0.0000
0.6207 1.8276 0.0000
0.6207 1.8621 0.0000
0.6207 1.8966 0.0000
0.6207 1.9310 0.0000
0.6207 1.9655 0.0000
0.6207 2.0000 0.0000
0.6897 1.0000 0.0000
0.6897 1.0345 0.0000
0.6897 1.0690 0.0000
0.6897 1.1034 0.0000
0.6897 1.1379 0.0000
0.6897 1.1724 0.0000
0.6897 1.2069 0.0000
0.6897 1.2414 0.0000
0.6897 1.2759 0.0000
0.6897 1.3103 0.0000
0.6897 1.3448 0.0000
0.6897 1.3793 0.0000
0.6897 1.4138 0.0000
0.6897 1.4483 0.0000
0.6897 1.4828 0.0000
0.6897 1.5172 0.0000
0.6897 1.5517 0.0000
0.6897 1.5862 0.0000
0.6897 1.6207 0.0000
0.6897 1.6552 0.0000
0.6897 1.6897 0.0000
0.6897 1.7241 0.0000
0.6897 1.7586 0.0000
0.6897 1.7931 0.0000
0.6897 1.8276 0.0000
0.6897 1.8621 0.0000
0.6897 1.8966 0.0000
0.6897 1.9310 0.0000
0.6897 1.9655 0.0000
0.6897 2.0000 0.0000
0.7586 1.0000 0.0000
0.7586 1.0345 0.0000
0.7586 1.0690 0.0000
0.7586 1.1034 0.0000
0.7586 1.1379 0.0000
0.7586 1.1724 0.0000
0.7586 1.2069 0.0000
0.7586 1.2414 0.0000
0.7586 1.2759 0.0000
0.7586 1.3103 0.0000
0.7586 1.3448 0.0000
0.7586 1.3793 0.0000
0.7586 1.4138 0.0000
0.7586 1.4483 0.0000
0.7586 1.4828 0.0000
0.7586 1.5172 0.0000
0.7586 1.5517 0.0000
0.7586 1.5862 0.0000
0.7586 1.6207 0.0000
0.7586 1.6552 0.0000
0.7586 1.6897 0.0000
0.7586 1.7241 0.0000
0.7586 1.7586 0.0000
0.7586 1.7931 0.0000
0.7586 1.8276 0.0000
0.7586 1.8621 0.0000
0.7586 1.8966 0.0000
0.7586 1.9310 0.0000
0.7586 1.9655 0.0000
0.7586 2.0000 0.0000
0.8276 1.0000 0.0000
0.8276 1.0345 0.0000
0.8276 1.0690 0.0000
0.8276 1.1034 0.0000
0.8276 1.1379 0.0000
0.8276 1.1724 0.0000
0.8276 1.2069 0.0000
0.8276 1.2414 0.0000
0.8276 1.2759 0.0000
0.8276 1.3103 0.0000
0.8276 1.3448 0.0000
0.8276 1.3793 0.0000
0.8276 1.4138 0.0000
0.8276 1.4483 0.0000
0.8276 1.4828 0.0000
0.8276 1.5172 0.0000
0.8276 1.5517 0.0000
0.8276 1.5862 0.0000
0.8276 1.6207 0.0000
0.8276 1.6552 0.0000
0.8276 1.6897 0.0000
0.8276 1.7241 0.0000
0.8276 1.7586 0.0000
0.8276 1.7931 0.0000
0.8276 1.8276 0.0000
0.8276 1.8621 0.0000
0.8276 1.8966 0.0000
0.8276 1.9310 0.0000
0.8276 1.9655 0.0000
0.8276 2.0000 0.0000
0.8966 1.0000 0.0000
0.8966 1.0345 0.0000
0.8966 1.0690 0.0000
0.8966 1.1034 0.0000
0.8966 1.1379 0.0000
0.8966 1.1724 0.0000
0.8966 1.2069 0.0000
0.8966 1.2414 0.0000
0.8966 1.2759 0.0000
0.8966 1.3103 0.0000
0.8966 1.3448 0.0000
0.8966 1.3793 0.0000
0.8966 1.4138 0.0000
0.8966 1.4483 0.0000
0.8966 1.4828 0.0000
0.8966 1.5172 0.0000
0.8966 1.5517 0.0000
0.8966 1.5862 0.0000
0.8966 1.6207 0.0000
0.8966 1.6552 0.0000
0.8966 1.6897 0.0000
0.8966 1.7241 0.0000
0.8966 1.7586 0.0000
0.8966 1.7931 0.0000
0.8966 1.8276 0.0000
0.8966 1.8621 0.0000
0.8966 1.8966 0.0000
0.8966 1.9310 0.0000
0.8966 1.9655 0.0000
0.8966 2.0000 0.0000
0.9655 1.0000 0.0000
0.9655 1.0345 0.0000
0.9655 1.0690 0.0000
0.9655 1.1034 0.0000
0.9655 1.1379 0.0000
0.9655 1.1724 0.0000
0.9655 1.2069 0.0000
0.9655 1.2414 0.0000
0.9655 1.2759 0.0000
0.9655 1.3103 0.0000
0.9655 1.3448 0.0000
0.9655 1.3793 0.0000
0.9655 1.4138 0.0000
0.9655 1.4483 0.0000
0.9655 1.4828 0.0000
0.9655 1.5172 0.0000
0.9655 1.5517 0.0000
0.9655 1.5862 0.0000
0.9655 1.6207 0.0000
0.9655 1.6552 0.0000
0.9655 1.6897 0.0000
0.9655 1.7241 0.0000
0.9655 1.7586 0.0000
0.9655 1.7931 0.0000
0.9655 1.8276 0.0000
0.9655 1.8621 0.0000
0.9655 1.8966 0.0000
0.9655 1.9310 0.0000
0.9655 1.9655 0.0000
0.9655 2.0000 0.0000
1.0345 1.0000 0.0000
1.0345 1.0345 0.0000
1.0345 1.0690 0.0000
1.0345 1.1034 0.0000
1.0345 1.1379 0.0000
1.0345 1.1724 0.0000
1.0345 1.2069 0.0000
1.0345 1.2414 0.0000
1.0345 1.2759 0.0000
1.0345 1.3103 0.0000
1.0345 1.3448 0.0000
[...]
         <PointData>
            <DataArray Name="fValues" NumberOfComponents="3" format="ascii" type="Float64">
 1.56694e-24 -2.56455e-24        00000 
 8.42198e-24  8.42198e-24        00000 
 2.77610e-23  1.38805e-24        00000 
-4.46460e-23  1.70910e-22        00000 
 3.99758e-22  6.99577e-22        00000 
 2.37691e-24 -1.78385e-21        00000 
 6.21846e-22  4.60555e-21        00000 
 8.37112e-22 -3.09539e-21        00000 
-3.55341e-22  7.10681e-22        00000 
 5.84805e-21  8.44267e-21        00000 
 2.13204e-21  4.19302e-20        00000 
-8.92919e-22 -1.23223e-20        00000 
 7.10681e-22 -1.42136e-20        00000 
-1.65118e-21  4.84049e-20        00000 
-5.68545e-21  4.26409e-21        00000 
 1.25009e-21  7.41123e-21        00000 
-1.24369e-20 -1.42136e-21        00000 
-1.68325e-21  4.50015e-21        00000 
-3.55341e-22 -9.23886e-21        00000 
-1.09383e-21 -8.21486e-21        00000 
 2.13204e-21  6.39613e-21        00000 
 1.78017e-21 -1.36221e-21        00000 
 7.10681e-22 -3.37574e-21        00000 
 1.56261e-22 -1.27241e-21        00000 
 4.66385e-22 -8.07845e-22        00000 
 4.45885e-22 -3.42706e-22        00000 
 2.22088e-23 -1.47133e-22        00000 
 8.38673e-24 -7.26850e-23        00000 
-5.81856e-24 -1.23809e-23        00000 
-1.87437e-23 -3.33155e-24        00000 
 9.29944e-08 -1.37734e-08        00000 
 8.63138e-08 -2.88794e-08        00000 
 2.34428e-07 -5.11533e-08        00000 
 6.02676e-07 -1.00656e-07        00000 
 1.48111e-06 -1.21228e-07        00000 
 3.43862e-06  1.31552e-07        00000 
 7.40164e-06  1.39015e-06        00000 
 1.44606e-05  5.28726e-06        00000 
 2.50276e-05  1.45133e-05        00000 
 3.71893e-05  3.19380e-05        00000 
 4.51415e-05  5.80676e-05        00000 
 4.00528e-05  8.77424e-05        00000 
 1.54106e-05  1.09244e-04        00000 
-2.52761e-05  1.08997e-04        00000 
-6.58437e-05  8.05521e-05        00000 
-8.58383e-05  3.10071e-05        00000 
-7.51415e-05 -2.14348e-05        00000 
-4.16290e-05 -5.78049e-05        00000 
-4.38673e-06 -6.90289e-05        00000 
 2.05035e-05 -5.91503e-05        00000 
 2.85303e-05 -3.97304e-05        00000 
 2.47385e-05 -2.13761e-05        00000 
 1.66702e-05 -9.08174e-06        00000 
 9.37836e-06 -2.81402e-06        00000 
 4.57137e-06 -4.06247e-07        00000 
 1.97895e-06  2.02045e-07        00000 
 7.75453e-07  2.12503e-07        00000 
 2.79400e-07  1.19022e-07        00000 
 9.37799e-08  5.87925e-08        00000 
 6.15111e-08  3.14090e-08        00000 
-9.78809e-08  2.68107e-08        00000 
-1.00057e-07  5.26374e-08        00000 
-2.38591e-07  1.29922e-07        00000 
-6.05070e-07  2.83886e-07        00000 
-1.48291e-06  4.82525e-07        00000 
-3.50341e-06  3.85988e-07        00000 
-7.84045e-06 -1.25169e-06        00000 
-1.62262e-05 -7.59295e-06        00000 
-3.01634e-05 -2.45354e-05        00000 
-4.85679e-05 -5.95230e-05        00000 
-6.42799e-05 -1.16092e-04        00000 
-6.30919e-05 -1.84964e-04        00000 
-3.09705e-05 -2.39265e-04        00000 
 3.08648e-05 -2.44259e-04        00000 
 9.67035e-05 -1.81052e-04        00000 
 1.29380e-04 -6.56959e-05        00000 
 1.09881e-04  5.61534e-05        00000 
 5.38166e-05  1.37027e-04        00000 
-3.63743e-06  1.56254e-04        00000 
-3.67239e-05  1.27200e-04        00000 
-4.25375e-05  8.01225e-05        00000 
-3.28435e-05  3.96030e-05        00000 
-2.00195e-05  1.48133e-05        00000 
-1.03052e-05  3.47506e-06        00000 
-4.66865e-06 -2.15912e-07        00000 
-1.92046e-06 -7.92179e-07        00000 
-7.35214e-07 -5.43842e-07        00000 
-2.66054e-07 -2.67273e-07        00000 
-9.81633e-08 -1.13722e-07        00000 
-6.54839e-08 -6.11131e-08        00000 
 8.52825e-08 -3.50034e-08        00000 
 8.42284e-08 -6.57989e-08        00000 
 1.87928e-07 -1.71475e-07        00000 
 4.55143e-07 -3.88527e-07        00000 
 1.09440e-06 -7.25658e-07        00000 
 2.64331e-06 -8.72932e-07        00000 
 6.32883e-06  5.99645e-07        00000 
 1.45316e-05  7.90597e-06        00000 
 3.06312e-05  3.01653e-05        00000 
 5.64286e-05  8.12833e-05        00000 
 8.56137e-05  1.72253e-04        00000 
 9.71900e-05  2.93538e-04        00000 
 6.18386e-05  3.99569e-04        00000 
-2.97397e-05  4.21170e-04        00000 
-1.38389e-04  3.14315e-04        00000 
-1.93342e-04  1.06203e-04        00000 
-1.56271e-04 -1.13070e-04        00000 
-6.04493e-05 -2.50061e-04        00000 
 2.61688e-05 -2.69268e-04        00000 
 6.40252e-05 -2.04993e-04        00000 
 5.95762e-05 -1.18831e-04        00000 
 3.87002e-05 -5.28567e-05        00000 
 1.99573e-05 -1.69557e-05        00000 
 8.74112e-06 -2.63916e-06        00000 
 3.43863e-06  1.13254e-06        00000 
 1.28440e-06  1.28996e-06        00000 
 4.77783e-07  7.56477e-07        00000 
 1.80315e-07  3.48856e-07        00000 
 7.34532e-08  1.43479e-07        00000 
 5.75081e-08  7.83527e-08        00000 
-6.43822e-08  3.87691e-08        00000 
-5.92295e-08  6.99487e-08        00000 
-1.20878e-07  1.81435e-07        00000 
-2.65236e-07  4.15531e-07        00000 
-5.93593e-07  8.31869e-07        00000 
-1.45226e-06  1.27123e-06        00000 
-3.90474e-06  5.50251e-07        00000 
-1.07379e-05 -5.69373e-06        00000 
-2.76324e-05 -2.90332e-05        00000 
-6.18332e-05 -9.17268e-05        00000 
-1.12618e-04 -2.20065e-04        00000 
-1.52805e-04 -4.15014e-04        00000 
-1.24161e-04 -6.10675e-04        00000 
 1.47123e-05 -6.76836e-04        00000 
 2.07906e-04 -5.12167e-04        00000 
 3.09446e-04 -1.56496e-04        00000 
 2.33152e-04  2.17004e-04        00000 
 5.74436e-05  4.29196e-04        00000 
-7.59940e-05  4.26306e-04        00000 
-1.10106e-04  2.93795e-04        00000 
-8.12487e-05  1.50094e-04        00000 
-4.22141e-05  5.65123e-05        00000 
-1.69609e-05  1.37324e-05        00000 
-5.56750e-06  6.01338e-08        00000 
-1.60215e-06 -2.22775e-06        00000 
-4.70602e-07 -1.61299e-06        00000 
-1.74865e-07 -8.27789e-07        00000 
-8.11728e-08 -3.64701e-07        00000 
-4.19969e-08 -1.50364e-07        00000 
-4.32563e-08 -8.48671e-08        00000 
 3.75470e-08 -3.95503e-08        00000 
 2.99903e-08 -6.74130e-08        00000 
 4.97044e-08 -1.68324e-07        00000 
 7.52243e-08 -3.78290e-07        00000 
 9.65977e-08 -7.94067e-07        00000 
 2.06115e-07 -1.46123e-06        00000 
 1.03681e-06 -1.82084e-06        00000 
 5.13635e-06  1.39653e-06        00000 
 1.98179e-05  1.98837e-05        00000 
 5.99079e-05  8.37826e-05        00000 
 1.39663e-04  2.44908e-04        00000 
 2.36621e-04  5.39937e-04        00000 
 2.47104e-04  8.95792e-04        00000 
 4.27066e-05  1.07526e-03        00000 
-3.20809e-04  8.36639e-04        00000 
-5.25078e-04  2.21930e-04        00000 
-3.57429e-04 -4.20876e-04        00000 
-1.88614e-05 -7.32655e-04        00000 
 1.79904e-04 -6.48484e-04        00000 
 1.80455e-04 -3.84712e-04        00000 
 1.01817e-04 -1.60826e-04        00000 
 3.88215e-05 -4.47718e-05        00000 
 9.91653e-06 -4.53394e-06        00000 
 1.12557e-06  3.62398e-06        00000 
-4.20646e-07  3.10831e-06        00000 
-3.04938e-07  1.65893e-06        00000 
-9.63846e-08  7.59693e-07        00000 
-9.84559e-09  3.28700e-07        00000 
 9.59780e-09  1.40655e-07        00000 
 2.30096e-08  8.38542e-08        00000 
-6.25065e-09  3.81627e-08        00000 
 1.53586e-09  6.07858e-08        00000 
 2.07889e-08  1.42225e-07        00000 
 9.77218e-08  3.00973e-07        00000 
 3.33264e-07  6.36830e-07        00000 
 8.90939e-07  1.35152e-06        00000 
 1.75612e-06  2.62591e-06        00000 
 1.50724e-06  3.36287e-06        00000 
-6.73857e-06 -4.45463e-06        00000 
-4.33475e-05 -5.20430e-05        00000 
-1.49285e-04 -2.21420e-04        00000 
-3.41619e-04 -6.31534e-04        00000 
-4.78583e-04 -1.26918e-03        00000 
-2.23512e-04 -1.73697e-03        00000 
 4.77850e-04 -1.43202e-03        00000 
 9.17880e-04 -3.10299e-04        00000 
 5.30366e-04  8.56336e-04        00000 
-1.32887e-04  1.27382e-03        00000 
-3.82710e-04  9.48720e-04        00000 
-2.67256e-04  4.43256e-04        00000 
-1.04646e-04  1.28533e-04        00000 
-2.22544e-05  1.39645e-05        00000 
 1.08956e-06 -8.34642e-06        00000 
 3.71003e-06 -6.79651e-06        00000 
 2.16106e-06 -3.29432e-06        00000 
 8.93517e-07 -1.39511e-06        00000 
 3.02337e-07 -5.92769e-07        00000 
 8.71517e-08 -2.64819e-07        00000 
 2.26244e-08 -1.22111e-07        00000 
 2.73602e-09 -7.78974e-08        00000 
-2.73496e-08 -3.50442e-08        00000 
-3.36481e-08 -5.21682e-08        00000 
-8.81278e-08 -1.12305e-07        00000 
-2.48764e-07 -2.12716e-07        00000 
-6.74633e-07 -4.23428e-07        00000 
-1.72109e-06 -9.84802e-07        00000 
-3.98540e-06 -2.58258e-06        00000 
-7.70595e-06 -6.43269e-06        00000 
-9.47943e-06 -1.15362e-05        00000 
 1.02133e-05  1.42285e-06        00000 
 1.08276e-04  1.20998e-04        00000 
 4.14961e-04  5.97906e-04        00000 
 8.59111e-04  1.68541e-03        00000 
 7.49975e-04  2.89949e-03        00000 
-5.57176e-04  2.70436e-03        00000 
-1.51695e-03  4.33415e-04        00000 
-6.23802e-04 -1.90926e-03        00000 
 6.16075e-04 -2.28100e-03        00000 
 7.21175e-04 -1.28270e-03        00000 
 3.18016e-04 -3.83413e-04        00000 
 5.89586e-05 -2.95902e-05        00000 
-7.65955e-06  2.89154e-05        00000 
-1.33419e-05  1.90277e-05        00000 
-7.50880e-06  7.64716e-06        00000 
-3.25581e-06  2.62144e-06        00000 
-1.24677e-06  9.34589e-07        00000 
-4.46515e-07  3.98315e-07        00000 
-1.53018e-07  1.97255e-07        00000 
-5.41240e-08  1.00509e-07        00000 
-3.15493e-08  6.82497e-08        00000 
 6.03448e-08  3.03894e-08        00000 
 6.40808e-08  4.27631e-08        00000 
 1.49664e-07  8.39958e-08        00000 
 3.77836e-07  1.35440e-07        00000 
 9.35347e-07  2.25610e-07        00000 
 2.27992e-06  5.32350e-07        00000 
 5.40928e-06  1.83277e-06        00000 
 1.21226e-05  6.65593e-06        00000 
 2.36521e-05  2.06980e-05        00000 
 3.31446e-05  4.75738e-05        00000 
-1.62872e-05  4.01715e-05        00000 
-2.61002e-04 -2.77887e-04        00000 
-1.31128e-03 -1.87343e-03        00000 
-2.08872e-03 -4.97903e-03        00000 
-3.61437e-04 -6.00462e-03        00000 
 1.66730e-03 -6.05363e-04        00000 
-3.24575e-04  4.88183e-03        00000 
-1.89975e-03  4.15841e-03        00000 
-1.11810e-03  1.38787e-03        00000 
-1.43135e-04  5.70341e-05        00000 
 3.05099e-05 -1.11913e-04        00000 
 4.15668e-05 -6.15210e-05        00000 
 2.16797e-05 -2.10106e-05        00000 
 9.26254e-06 -5.73248e-06        00000 
 3.65655e-06 -1.47934e-06        00000 
 1.41917e-06 -4.84173e-07        00000 
 5.48402e-07 -2.37054e-07        00000 
 2.08617e-07 -1.38238e-07        00000 
 8.22636e-08 -7.78180e-08        00000 
 5.90989e-08 -5.49065e-08        00000 
-8.90995e-08 -2.41794e-08        00000 
-8.94477e-08 -3.31704e-08        00000 
-2.00778e-07 -5.84804e-08        00000 
-4.81282e-07 -7.66855e-08        00000 
-1.12600e-06 -8.49664e-08        00000 
-2.61993e-06 -1.69969e-07        00000 
-6.12010e-06 -9.16686e-07        00000 
-1.42407e-05 -4.83506e-06        00000 
-3.23792e-05 -2.02874e-05        00000 
-6.61315e-05 -6.84470e-05        00000 
-1.15615e-04 -1.76866e-04        00000 
-7.90990e-06 -2.24184e-04        00000 
 2.62067e-04  7.99233e-04        00000 
 5.95572e-03  8.18715e-03        00000 
 5.73944e-03  1.61110e-02        00000 
 6.05939e-03  7.94948e-04        00000 
 5.99194e-03 -1.43285e-02        00000 
 5.74476e-03 -7.11038e-03        00000 
 5.13276e-05 -2.49222e-04        00000 
-1.36390e-04  4.10287e-04        00000 
-1.31733e-04  1.97410e-04        00000 
-5.83689e-05  5.94412e-05        00000 
-2.33430e-05  1.38705e-05        00000 
-8.99557e-06  2.69533e-06        00000 
-3.57487e-06  5.26259e-07        00000 
-1.46439e-06  1.88704e-07        00000 
-6.05660e-07  1.24522e-07        00000 
-2.44179e-07  8.59883e-08        00000 
-9.96297e-08  5.39338e-08        00000 
-7.88184e-08  3.72874e-08        00000 
 1.07752e-07  1.60357e-08        00000 
 1.02901e-07  2.44598e-08        00000 
 2.30757e-07  3.47903e-08        00000 
 5.39784e-07  3.39378e-08        00000 
 1.21952e-06  5.95169e-09        00000 
 2.73559e-06 -2.69105e-08        00000 
 6.20547e-06  2.78610e-07        00000 
 1.44526e-05  2.72816e-06        00000 
 3.43510e-05  1.43453e-05        00000 
 8.35950e-05  5.70590e-05        00000 
 1.87678e-04  1.85547e-04        00000 
 4.71119e-04  4.68708e-04        00000 
 2.44736e-04  5.28425e-04        00000 
 3.42302e-03 -4.03851e-03        00000 
-5.68771e-02 -4.85510e-02        00000 
-4.34812e-02 -5.25891e-04        00000 
-5.84743e-02  4.44638e-02        00000 
 2.85528e-03  2.61876e-03        00000 
 5.54819e-04 -1.26613e-03        00000 
 4.01015e-04 -5.12888e-04        00000 
 1.39299e-04 -1.37942e-04        00000 
 5.00063e-05 -2.94300e-05        00000 
 1.78868e-05 -5.56267e-06        00000 
 6.94821e-06 -1.01088e-06        00000 
 2.87986e-06 -2.51851e-07        00000 
 1.23803e-06 -1.19416e-07        00000 
 5.31712e-07 -7.53091e-08        00000 
 2.20892e-07 -4.76493e-08        00000 
 8.45662e-08 -3.46808e-08        00000 
 7.74171e-08 -1.75069e-08        00000 
-1.01700e-07 -8.78716e-09        00000 
-8.30053e-08 -2.49186e-08        00000 
-2.06340e-07 -2.62854e-08        00000 
-4.74299e-07 -3.73234e-08        00000 
-1.05238e-06 -5.12445e-08        00000 
-2.30853e-06 -8.95285e-08        00000 
-5.12131e-06 -3.44101e-07        00000 
-1.17662e-05 -1.83435e-06        00000 
-2.87325e-05 -8.67203e-06        00000 
-7.35779e-05 -3.37612e-05        00000 
-2.02828e-04 -9.84261e-05        00000 
-4.90126e-04 -1.93121e-04        00000 
-1.60740e-03  7.87419e-05        00000 
 1.60637e-03  3.60670e-05        00000 
-2.86555e-02  6.33000e-03        00000 
 8.62913e-01 -6.66497e-03        00000 
-1.07797e-02  1.20973e-02        00000 
 2.45690e-05  4.70094e-03        00000 
 6.80934e-06  1.30304e-03        00000 
 4.80449e-06  3.51899e-04        00000 
 1.70964e-06  1.04823e-04        00000 
 6.15262e-07  3.70620e-05        00000 
 2.20564e-07  1.50460e-05        00000 
 8.54816e-08  6.54420e-06        00000 
 3.53442e-08  2.88670e-06        00000 
 1.51670e-08  1.25213e-06        00000 
 6.50933e-09  5.25291e-07        00000 
 2.70481e-09  2.12047e-07        00000 
 1.05729e-09  8.57598e-08        00000 
 3.30760e-09  2.10189e-08        00000 
-4.72827e-09  3.15354e-08        00000 
-1.04488e-09  1.06109e-07        00000 
-2.52436e-09  2.26407e-07        00000 
-5.79986e-09  5.13046e-07        00000 
-1.28707e-08  1.15286e-06        00000 
-2.82534e-08  2.54300e-06        00000 
-6.27559e-08  5.53901e-06        00000 
-1.44432e-07  1.21193e-05        00000 
-3.52960e-07  2.74796e-05        00000 
-9.04870e-07  6.71529e-05        00000 
-2.47829e-06  1.80341e-04        00000 
-6.04069e-06  5.09538e-04        00000 
-1.87096e-05  1.38693e-03        00000 
 1.57459e-05  3.07537e-03        00000 
-2.08944e-04  5.48936e-03        00000 
 1.00883e-02  7.31063e-18        00000 
-3.64171e-18  1.94276e-18        00000 
 2.95106e-18 -7.30773e-19        00000 
-4.52720e-19  2.03965e-19        00000 
 7.00715e-20  1.24902e-21        00000 
-9.82654e-21  2.33593e-21        00000 
 1.64864e-21 -1.46678e-21        00000 
-3.43544e-22  1.26157e-21        00000 
 9.87041e-23  1.02080e-22        00000 
-1.73907e-24 -2.00490e-22        00000 
-1.41444e-23  1.40662e-22        00000 
 2.52840e-24 -2.66634e-23        00000 
 1.44524e-24  2.77289e-23        00000 
-8.69260e-25 -3.81853e-24        00000 
 6.10394e-25  6.75793e-24        00000 
 1.24708e-24 -5.55220e-24        00000 
-1.00367e-24  2.96468e-24        00000 
 1.06941e-24  9.42309e-24        00000 
-2.51509e-24 -3.14080e-23        00000 
-5.61896e-26 -6.94400e-23        00000 
 2.45375e-23  1.25632e-22        00000 
-4.91930e-23  3.14099e-23        00000 
-3.46528e-23 -2.32787e-22        00000 
 2.36061e-22  1.57346e-21        00000 
-5.33254e-22  1.65169e-21        00000 
-5.05347e-22  2.33691e-20        00000 
-5.02528e-22 -4.82427e-20        00000 
 3.80705e-20 -1.08091e-19        00000 
-4.04032e-19  6.43235e-19        00000 
 1.24261e-18 -7.37388e-19        00000 
-1.09701e-18 -7.54247e-20        00000 
 8.58485e-19  1.15338e-19        00000 
-4.43706e-19  1.24793e-19        00000 
 1.80774e-19 -5.14090e-20        00000 
-3.73039e-20  1.16572e-20        00000 
 6.70286e-21 -1.22543e-21        00000 
-1.12850e-21  3.75577e-22        00000 
 2.00853e-22 -1.77861e-22        00000 
-3.98766e-23  4.43474e-23        00000 
 5.83719e-24  1.98528e-23        00000 
 4.37660e-25 -1.78460e-23        00000 
-6.06503e-25  8.98481e-24        00000 
-6.37876e-26 -3.35852e-24        00000 
 1.85962e-25  1.93904e-24        00000 
-1.35834e-25 -1.07893e-24        00000 
-1.94836e-25  6.97593e-25        00000 
 1.89180e-25 -1.24180e-25        00000 
-2.16505e-25 -1.78925e-24        00000 
 1.38781e-25 -9.87464e-25        00000 
 1.05926e-24  1.04125e-23        00000 
-3.64022e-24 -2.35327e-23        00000 
 2.17073e-24 -3.93426e-25        00000 
 1.37048e-23  7.08911e-23        00000 
-5.84446e-23  1.46577e-22        00000 
 7.18774e-23  1.00740e-21        00000 
-3.51519e-22 -2.98911e-21        00000 
 3.55324e-21 -1.29878e-21        00000 
-2.48121e-20  3.08610e-20        00000 
 8.32585e-20 -8.93091e-20        00000 
-1.68084e-19  8.28396e-20        00000 
 1.73355e-19 -1.97760e-20        00000 
-1.42792e-19 -9.07662e-21        00000 
 8.38631e-20 -6.73340e-21        00000 
-3.81928e-20  9.40877e-21        00000 
 1.28353e-20 -3.54636e-21        00000 
-3.00150e-21  8.28416e-22        00000 
 6.04032e-22 -1.53512e-22        00000 
-1.13643e-22  4.30850e-23        00000 
 2.13869e-23 -1.27368e-23        00000 
-4.05704e-24  2.30241e-25        00000 
 5.53566e-25  2.40426e-24        00000 
-9.07455e-28 -1.65870e-24        00000 
-6.03806e-27  7.98948e-25        00000 
-2.53020e-26 -3.68073e-25        00000 
 2.47927e-26  2.82337e-25        00000 
 3.29374e-26 -5.73911e-26        00000 
-3.31729e-26 -1.54968e-26        00000 
 2.75227e-26  3.82222e-26        00000 
 3.36897e-26  5.22154e-25        00000 
-2.19337e-25 -1.73044e-24        00000 
 3.26281e-25  2.04107e-24        00000 
 5.67895e-25  1.72053e-24        00000 
-4.23964e-24 -9.27042e-25        00000 
 1.27401e-23  1.11383e-23        00000 
-4.88394e-23 -1.75679e-22        00000 
 3.07510e-22  8.07091e-23        00000 
-1.73339e-21  1.60418e-21        00000 
 6.68116e-21 -6.48912e-21        00000 
-1.54534e-20  1.18483e-20        00000 
 2.47359e-20 -1.11266e-20        00000 
-2.73583e-20  4.88903e-21        00000 
 2.19594e-20  1.03895e-22        00000 
-1.49355e-20  5.83366e-22        00000 
 7.69445e-21 -1.14996e-21        00000 
-3.11975e-21  7.34088e-22        00000 
 9.80793e-22 -2.56762e-22        00000 
-2.43986e-22  6.46405e-23        00000 
 5.31295e-23 -1.48615e-23        00000 
-1.08382e-23  3.87064e-24        00000 
 2.18247e-24 -6.94202e-25        00000 
-3.93883e-25 -1.83522e-25        00000 
 5.83370e-26  2.59852e-25        00000 
-6.67293e-27 -1.59896e-25        00000 
 3.61242e-27  8.33489e-26        00000 
-4.24850e-27 -6.05375e-26        00000 
-5.64252e-27  8.22660e-27        00000 
 5.11856e-27 -4.46937e-27        00000 
-1.83458e-27  2.03812e-26        00000 
-7.44331e-27 -1.30496e-25        00000 
-1.85633e-26  3.56326e-25        00000 
 1.06619e-25 -2.32865e-25        00000 
-4.45625e-25 -7.76344e-25        00000 
 1.35335e-24  9.37943e-25        00000 
-5.25812e-24 -1.98909e-24        00000 
 2.50790e-23 -9.18783e-24        00000 
-1.17868e-22  1.05624e-22        00000 
 4.56869e-22 -3.49549e-22        00000 
-1.25581e-21  8.26053e-22        00000 
 2.67131e-21 -1.23040e-21        00000 
-3.85020e-21  9.15250e-22        00000 
 3.82799e-21 -2.43800e-22        00000 
-3.54781e-21  1.29801e-22        00000 