<?xml version="1.0" encoding="utf-8"?>
<VTKFile byte_order="LittleEndian" type="UnstructuredGrid" version="0.1">
   <UnstructuredGrid>
      <Piece NumberOfCells="3364" NumberOfPoints="1741">
         <Points>
            <DataArray Name="Points" NumberOfComponents="3" format="ascii" type="Float32">
0.0000 1.0000 0.0000
0.0000 1.0345 0.0000
0.0000 1.0690 0.0000
0.0000 1.1034 0.0000
0.0000 1.1379 0.0000
0.0000 1.1724 0.0000
0.0000 1.2069 0.0000
0.0000 1.2414 0.0000
0.0000 1.2759 0.0000
0.0000 1.3103 0.0000
0.0000 1.3448 0.0000
0.0000 1.3793 0.0000
0.0000 1.4138 0.0000
0.0000 1.4483 0.0000
0.0000 1.4828 0.0000
0.0000 1.5172 0.0000
0.0000 1.5517 0.0000
0.0000 1.5862 0.0000
0.0000 1.6207 0.0000
0.0000 1.6552 0.0000
0.0000 1.6897 0.0000
0.0000 1.7241 0.0000
0.0000 1.7586 0.0000
0.0000 1.7931 0.0000
0.0000 1.8276 0.0000
0.0000 1.8621 0.0000
0.0000 1.8966 0.0000
0.0000 1.9310 0.0000
0.0000 1.9655 0.0000
0.0000 2.0000 0.0000
0.0690 1.0000 0.0000
0.0690 1.0345 0.0000
0.0690 1.0690 0.0000
0.0690 1.1034 0.0000
0.0690 1.1379 0.0000
0.0690 1.1724 0.0000
0.0690 1.2069 0.0000
0.0690 1.2414 0.0000
0.0690 1.2759 0.0000
0.0690 1.3103 0.0000
0.0690 1.3448 0.0000
0.0690 1.3793 0.0000
0.0690 1.4138 0.0000
0.0690 1.4483 0.0000
0.0690 1.4828 0.0000
0.0690 1.5172 0.0000
0.0690 1.5517 0.0000
0.0690 1.5862 0.0000
0.0690 1.6207 0.0000
0.0690 1.6552 0.0000
0.0690 1.6897 0.0000
0.0690 1.7241 0.0000
0.0690 1.7586 0.0000
0.0690 1.7931 0.0000
0.0690 1.8276 0.0000
0.0690 1.8621 0.0000
0.0690 1.8966 0.0000
0.0690 1.9310 0.0000
0.0690 1.9655 0.0000
0.0690 2.0000 0.0000
0.1379 1.0000 0.0000
0.1379 1.0345 0.0000
0.1379 1.0690 0.0000
0.1379 1.1034 0.0000
0.1379 1.1379 0.0000
0.1379 1.1724 0.0000
0.1379 1.2069 0.0000
0.1379 1.2414 0.0000
0.1379 1.2759 0.0000
0.1379 1.3103 0.0000
0.1379 1.3448 0.0000
0.1379 1.3793 0.0000
0.1379 1.4138 0.0000
0.1379 1.4483 0.0000
0.1379 1.4828 0.0000
0.1379 1.5172 0.0000
0.1379 1.5517 0.0000
0.1379 1.5862 0.0000
0.1379 1.6207 0.0000
0.1379 1.6552 0.0000
0.1379 1.6897 0.0000
0.1379 1.7241 0.0000
0.1379 1.7586 0.0000
0.1379 1.7931 0.0000
0.1379 1.8276 0.0000
0.1379 1.8621 0.0000
0.1379 1.8966 0.0000
0.1379 1.9310 0.0000
0.1379 1.9655 0.0000
0.1379 2.0000 0.0000
0.2069 1.0000 0.0000
0.2069 1.0345 0.0000
0.2069 1.0690 0.0000
0.2069 1.1034 0.0000
0.2069 1.1379 0.0000
0.2069 1.1724 0.0000
0.2069 1.2069 0.0000
0.2069 1.2414 0.0000
0.2069 1.2759 0.0000
0.2069 1.3103 0.0000
0.2069 1.3448 0.0000
0.2069 1.3793 0.0000
0.2069 1.4138 0.0000
0.2069 1.4483 0.0000
0.2069 1.4828 0.0000
0.2069 1.5172 0.0000
0.2069 1.5517 0.0000
0.2069 1.5862 0.0000
0.2069 1.6207 0.0000
0.2069 1.6552 0.0000
0.2069 1.6897 0.0000
0.2069 1.7241 0.0000
0.2069 1.7586 0.0000
0.2069 1.7931 0.0000
0.2069 1.8276 0.0000
0.2069 1.8621 0.0000
0.2069 1.8966 0.0000
0.2069 1.9310 0.0000
0.2069 1.9655 0.0000
0.2069 2.0000 0.0000
0.2759 1.0000 0.0000
0.2759 1.0345 0.0000
0.2759 1.0690 0.0000
0.2759 1.1034 0.0000
0.2759 1.1379 0.0000
0.2759 1.1724 0.0000
0.2759 1.2069 0.0000
0.2759 1.2414 0.0000
0.2759 1.2759 0.0000
0.2759 1.3103 0.0000
0.2759 1.3448 0.0000
0.2759 1.3793 0.0000
0.2759 1.4138 0.0000
0.2759 1.4483 0.0000
0.2759 1.4828 0.0000
0.2759 1.5172 0.0000
0.2759 1.5517 0.0000
0.2759 1.5862 0.0000
0.2759 1.6207 0.0000
0.2759 1.6552 0.0000
0.2759 1.6897 0.0000
0.2759 1.7241 0.0000
0.2759 1.7586 0.0000
0.2759 1.7931 0.0000
0.2759 1.8276 0.0000
0.2759 1.8621 0.0000
0.2759 1.8966 0.0000
0.2759 1.9310 0.0000
0.2759 1.9655 0.0000
0.2759 2.0000 0.0000
0.3448 1.0000 0.0000
0.3448 1.0345 0.0000
0.3448 1.0690 0.0000
0.3448 1.1034 0.0000
0.3448 1.1379 0.0000
0.3448 1.1724 0.0000
0.3448 1.2069 0.0000
0.3448 1.2414 0.0000
0.3448 1.2759 0.0000
0.3448 1.3103 0.0000
0.3448 1.3448 0.0000
0.3448 1.3793 0.0000
0.3448 1.4138 0.0000
0.3448 1.4483 0.0000
0.3448 1.4828 0.0000
0.3448 1.5172 0.0000
0.3448 1.5517 0.0000
0.3448 1.5862 0.0000
0.3448 1.6207 0.0000
0.3448 1.6552 0.0000
0.3448 1.6897 0.0000
0.3448 1.7241 0.0000
0.3448 1.7586 0.0000
0.3448 1.7931 0.0000
0.3448 1.8276 0.0000
0.3448 1.8621 0.0000
0.3448 1.8966 0.0000
0.3448 1.9310 0.0000
0.3448 1.9655 0.0000
0.3448 2.0000 0.0000
0.4138 1.0000 0.0000
0.4138 1.0345 0.0000
0.4138 1.0690 0.0000
0.4138 1.1034 0.0000
0.4138 1.1379 0.0000
0.4138 1.1724 0.0000
0.4138 1.2069 0.0000
0.4138 1.2414 0.0000
0.4138 1.2759 0.0000
0.4138 1.3103 0.0000
0.4138 1.3448 0.0000
0.4138 1.3793 0.0000
0.4138 1.4138 0.0000
0.4138 1.4483 0.0000
0.4138 1.4828 0.0000
0.4138 1.5172 0.0000
0.4138 1.5517 0.0000
0.4138 1.5862 0.0000
0.4138 1.6207 0.0000
0.4138 1.6552 0.0000
0.4138 1.6897 0.0000
0.4138 1.7241 0.0000
0.4138 1.7586 0.0000
0.4138 1.7931 0.0000
0.4138 1.8276 0.0000
0.4138 1.8621 0.0000
0.4138 1.8966 0.0000
0.4138 1.9310 0.0000
0.4138 1.9655 0.0000
0.4138 2.0000 0.0000
0.4828 1.0000 0.0000
0.4828 1.0345 0.0000
0.4828 1.0690 0.0000
0.4828 1.1034 0.0000
0.4828 1.1379 0.0000
0.4828 1.1724 0.0000
0.4828 1.2069 0.0000
0.4828 1.2414 0.0000
0.4828 1.2759 0.0000
0.4828 1.3103 0.0000
0.4828 1.3448 0.0000
0.4828 1.3793 0.0000
0.4828 1.4138 0.0000
0.4828 1.4483 0.0000
0.4828 1.4828 0.0000
0.4828 1.5172 0.0000
0.4828 1.5517 0.0000
0.4828 1.5862 0.0000
0.4828 1.6207 0.0000
0.4828 1.6552 0.0000
0.4828 1.6897 0.0000
0.4828 1.7241 0.0000
0.4828 1.7586 0.0000
0.4828 1.7931 0.0000
0.4828 1.8276 0.0000
0.4828 1.8621 0.0000
0.4828 1.8966 0.0000
0.4828 1.9310 0.0000
0.4828 1.9655 0.0000
0.4828 2.0000 0.0000
0.5517 1.0000 0.0000
0.5517 1.0345 0.0000
0.5517 1.0690 0.0000
0.5517 1.1034 0.0000
0.5517 1.1379 0.0000
0.5517 1.1724 0.0000
0.5517 1.2069 0.0000
0.5517 1.2414 0.0000
0.5517 1.2759 0.0000
0.5517 1.3103 0.0000
0.5517 1.3448 0.0000
0.5517 1.3793 0.0000
0.5517 1.4138 0.0000
0.5517 1.4483 0.0000
0.5517 1.4828 0.0000
0.5517 1.5172 0.0000
0.5517 1.5517 0.0000
0.5517 1.5862 0.0000
0.5517 1.6207 0.0000
0.5517 1.6552 0.0000
0.5517 1.6897 0.0000
0.5517 1.7241 0.0000
0.5517 1.7586 0.0000
0.5517 1.7931 0.0000
0.5517 1.8276 0.0000
0.5517 1.8621 0.0000
0.5517 1.8966 0.0000
0.5517 1.9310 0.0000
0.5517 1.9655 0.0000
0.5517 2.0000 0.0000
0.6207 1.0000 0.0000
0.6207 1.0345 0.0000
0.6207 1.0690 0.0000
0.6207 1.1034 0.0000
0.6207 1.1379 0.0000
0.6207 1.1724 0.0000
0.6207 1.2069 0.0000
0.6207 1.2414 0.0000
0.6207 1.2759 0.0000
0.6207 1.3103 0.0000
0.6207 1.3448 0.0000
0.6207 1.3793 0.0000
0.6207 1.4138 0.0000
0.6207 1.4483 0.0000
0.6207 1.4828 0.0000
0.6207 1.5172 0.0000
0.6207 1.5517 0.0000
0.6207 1.5862 0.0000
0.6207 1.6207 0.0000
0.6207 1.6552 0.0000
0.6207 1.6897 0.0000
0.6207 1.7241 0.0000
0.6207 1.7586 0.0000
0.6207 1.7931 0.0000
0.6207 1.8276 0.0000
0.6207 1.8621 0.0000
0.6207 1.8966 0.0000
0.6207 1.9310 0.0000
0.6207 1.9655 0.0000
0.6207 2.0000 0.0000
0.6897 1.0000 0.0000
0.6897 1.0345 0.0000
0.6897 1.0690 0.0000
0.6897 1.1034 0.0000
0.6897 1.1379 0.0000
0.6897 1.1724 0.0000
0.6897 1.2069 0.0000
0.6897 1.2414 0.0000
0.6897 1.2759 0.0000
0.6897 1.3103 0.0000
0.6897 1.3448 0.0000
0.6897 1.3793 0.0000
0.6897 1.4138 0.0000
0.6897 1.4483 0.0000
0.6897 1.4828 0.0000
0.6897 1.5172 0.0000
0.6897 1.5517 0.0000
0.6897 1.5862 0.0000
0.6897 1.6207 0.0000
0.6897 1.6552 0.0000
0.6897 1.6897 0.0000
0.6897 1.7241 0.0000
0.6897 1.7586 0.0000
0.6897 1.7931 0.0000
0.6897 1.8276 0.0000
0.6897 1.8621 0.0000
0.6897 1.8966 0.0000
0.6897 1.9310 0.0000
0.6897 1.9655 0.0000
0.6897 2.0000 0.0000
0.7586 1.0000 0.0000
0.7586 1.0345 0.0000
0.7586 1.0690 0.0000
0.7586 1.1034 0.0000
0.7586 1.1379 0.0000
0.7586 1.1724 0.0000
0.7586 1.2069 0.0000
0.7586 1.2414 0.0000
0.7586 1.2759 0.0000
0.7586 1.3103 0.0000
0.7586 1.3448 0.0000
0.7586 1.3793 0.0000
0.7586 1.4138 0.0000
0.7586 1.4483 0.0000
0.7586 1.4828 0.0000
0.7586 1.5172 0.0000
0.7586 1.5517 0.0000
0.7586 1.5862 0.0000
0.7586 1.6207 0.0000
0.7586 1.6552 0.0000
0.7586 1.6897 0.0000
0.7586 1.7241 0.0000
0.7586 1.7586 0.0000
0.7586 1.7931 0.0000
0.7586 1.8276 0.0000
0.7586 1.8621 0.0000
0.7586 1.8966 0.0000
0.7586 1.9310 0.0000
0.7586 1.9655 0.0000
0.7586 2.0000 0.0000
0.8276 1.0000 0.0000
0.8276 1.0345 0.0000
0.8276 1.0690 0.0000
0.8276 1.1034 0.0000
0.8276 1.1379 0.0000
0.8276 1.1724 0.0000
0.8276 1.2069 0.0000
0.8276 1.2414 0.0000
0.8276 1.2759 0.0000
0.8276 1.3103 0.0000
0.8276 1.3448 0.0000
0.8276 1.3793 0.0000
0.8276 1.4138 0.0000
0.8276 1.4483 0.0000
0.8276 1.4828 0.0000
0.8276 1.5172 0.0000
0.8276 1.5517 0.0000
0.8276 1.5862 0.0000
0.8276 1.6207 0.0000
0.8276 1.6552 0.0000
0.8276 1.6897 0.0000
0.8276 1.7241 0.0000
0.8276 1.7586 0.0000
0.8276 1.7931 0.0000
0.8276 1.8276 0.0000
0.8276 1.8621 0.0000
0.8276 1.8966 0.0000
0.8276 1.9310 0.0000
0.8276 1.9655 0.0000
0.8276 2.0000 0.0000
0.8966 1.0000 0.0000
0.8966 1.0345 0.0000
0.8966 1.0690 0.0000
0.8966 1.1034 0.0000
0.8966 1.1379 0.0000
0.8966 1.1724 0.0000
0.8966 1.2069 0.0000
0.8966 1.2414 0.0000
0.8966 1.2759 0.0000
0.8966 1.3103 0.0000
0.8966 1.3448 0.0000
0.8966 1.3793 0.0000
0.8966 1.4138 0.0000
0.8966 1.4483 0.0000
0.8966 1.4828 0.0000
0.8966 1.5172 0.0000
0.8966 1.5517 0.0000
0.8966 1.5862 0.0000
0.8966 1.6207 0.0000
0.8966 1.6552 0.0000
0.8966 1.6897 0.0000
0.8966 1.7241 0.0000
0.8966 1.7586 0.0000
0.8966 1.7931 0.0000
0.8966 1.8276 0.0000
0.8966 1.8621 0.0000
0.8966 1.8966 0.0000
0.8966 1.9310 0.0000
0.8966 1.9655 0.0000
0.8966 2.0000 0.0000
0.9655 1.0000 0.0000
0.9655 1.0345 0.0000
0.9655 1.0690 0.0000
0.9655 1.1034 0.0000
0.9655 1.1379 0.0000
0.9655 1.1724 0.0000
0.9655 1.2069 0.0000
0.9655 1.2414 0.0000
0.9655 1.2759 0.0000
0.9655 1.3103 0.0000
0.9655 1.3448 0.0000
0.9655 1.3793 0.0000
0.9655 1.4138 0.0000
0.9655 1.4483 0.0000
0.9655 1.4828 0.0000
0.9655 1.5172 0.0000
0.9655 1.5517 0.0000
0.9655 1.5862 0.0000
0.9655 1.6207 0.0000
0.9655 1.6552 0.0000
0.9655 1.6897 0.0000
0.9655 1.7241 0.0000
0.9655 1.7586 0.0000
0.9655 1.7931 0.0000
0.9655 1.8276 0.0000
0.9655 1.8621 0.0000
0.9655 1.8966 0.0000
0.9655 1.9310 0.0000
0.9655 1.9655 0.0000
0.9655 2.0000 0.0000
1.0345 1.0000 0.0000
1.0345 1.0345 0.0000
1.0345 1.0690 0.0000
1.0345 1.1034 0.0000
1.0345 1.1379 0.0000
1.0345 1.1724 0.0000
1.0345 1.2069 0.0000
1.0345 1.2414 0.0000
1.0345 1.2759 0.0000
1.0345 1.3103 0.0000
1.0345 1.3448 0.0000
[...]
         <PointData>
            <DataArray Name="fValues" NumberOfComponents="3" format="ascii" type="Float64">
-1.46897e-23  2.46511e-23        00000 
       00000 -3.15824e-23        00000 
-5.55220e-23 -1.23536e-22        00000 
-6.13882e-23 -6.61841e-23        00000 
-4.44176e-22 -8.09233e-22        00000 
-9.30956e-22  2.15734e-21        00000 
-2.75389e-21  1.46439e-21        00000 
-1.85839e-21 -1.49484e-20        00000 
-5.68545e-21 -9.94954e-21        00000 
-3.04899e-21  4.04494e-20        00000 
-2.70059e-20 -4.05088e-20        00000 
 2.42874e-20 -7.57195e-20        00000 
-3.69554e-20 -1.13709e-20        00000 
-3.88849e-20 -2.42923e-19        00000 
-1.13709e-20 -2.78587e-19        00000 
-4.82176e-21  7.14335e-21        00000 
       00000 -3.92296e-19        00000 
 1.51414e-20 -4.60916e-19        00000 
 3.12700e-20  6.82254e-20        00000 
-1.60725e-21 -6.30401e-20        00000 
 4.40622e-20  6.82254e-20        00000 
-1.99727e-20  4.77814e-20        00000 
 2.41632e-20  2.55845e-20        00000 
 3.39309e-21  2.49124e-20        00000 
 5.33011e-22 -2.13204e-21        00000 
 2.76650e-21  1.42123e-21        00000 
-7.10681e-22 -2.27085e-21        00000 
 5.36751e-22 -2.06523e-22        00000 
-1.95994e-23  3.80088e-22        00000 
-1.71377e-22  3.23635e-22        00000 
-2.68082e-07  3.01139e-09        00000 
-1.86461e-07  2.12360e-08        00000 
-4.71949e-07  1.75111e-08        00000 
-1.13534e-06  5.56934e-08        00000 
-2.67480e-06  8.72112e-08        00000 
-6.15688e-06 -1.22910e-07        00000 
-1.36347e-05 -1.43158e-06        00000 
-2.85289e-05 -6.19607e-06        00000 
-5.54418e-05 -1.95728e-05        00000 
-9.84937e-05 -5.05826e-05        00000 
-1.57480e-04 -1.11353e-04        00000 
-2.22756e-04 -2.12648e-04        00000 
-2.72591e-04 -3.55545e-04        00000 
-2.78237e-04 -5.23153e-04        00000 
-2.18318e-04 -6.79445e-04        00000 
-9.54188e-05 -7.80172e-04        00000 
 5.83667e-05 -7.92422e-04        00000 
 1.94688e-04 -7.11408e-04        00000 
 2.73801e-04 -5.63247e-04        00000 
 2.83618e-04 -3.91724e-04        00000 
 2.40403e-04 -2.37823e-04        00000 
 1.73834e-04 -1.24763e-04        00000 
 1.09762e-04 -5.55030e-05        00000 
 6.15423e-05 -2.00918e-05        00000 
 3.10895e-05 -5.24233e-06        00000 
 1.43517e-05 -4.22539e-07        00000 
 6.13709e-06  5.36187e-07        00000 
 2.45407e-06  4.41352e-07        00000 
 9.09298e-07  3.06898e-07        00000 
 9.58469e-07  1.61273e-07        00000 
 2.83633e-07 -3.54967e-09        00000 
 2.31492e-07 -2.54980e-08        00000 
 5.01114e-07 -9.59314e-08        00000 
 1.19172e-06 -2.61372e-07        00000 
 2.77170e-06 -5.54012e-07        00000 
 6.36525e-06 -7.36067e-07        00000 
 1.42785e-05  4.54205e-07        00000 
 3.07244e-05  7.06006e-06        00000 
 6.21528e-05  2.88836e-05        00000 
 1.15826e-04  8.46405e-05        00000 
 1.94866e-04  2.01837e-04        00000 
 2.89709e-04  4.08164e-04        00000 
 3.70866e-04  7.12181e-04        00000 
 3.93006e-04  1.08102e-03        00000 
 3.17103e-04  1.43352e-03        00000 
 1.41256e-04  1.66437e-03        00000 
-8.53125e-05  1.69311e-03        00000 
-2.83736e-04  1.50770e-03        00000 
-3.90480e-04  1.17193e-03        00000 
-3.90853e-04  7.91116e-04        00000 
-3.16799e-04  4.59947e-04        00000 
-2.17355e-04  2.26890e-04        00000 
-1.29684e-04  9.20077e-05        00000 
-6.87463e-05  2.81412e-05        00000 
-3.30372e-05  4.28126e-06        00000 
-1.46849e-05 -1.84956e-06        00000 
-6.14905e-06 -2.09514e-06        00000 
-2.44389e-06 -1.22537e-06        00000 
-1.02177e-06 -5.67849e-07        00000 
-9.93628e-07 -3.10835e-07        00000 
-2.51444e-07  2.46149e-09        00000 
-2.08344e-07  2.31471e-08        00000 
-4.30401e-07  1.25794e-07        00000 
-9.85518e-07  3.53092e-07        00000 
-2.22211e-06  7.91106e-07        00000 
-5.03338e-06  1.28024e-06        00000 
-1.14739e-05  4.95361e-07        00000 
-2.59063e-05 -6.48182e-06        00000 
-5.63685e-05 -3.29451e-05        00000 
-1.14537e-04 -1.06982e-04        00000 
-2.10780e-04 -2.74501e-04        00000 
-3.41171e-04 -5.88601e-04        00000 
-4.70688e-04 -1.07674e-03        00000 
-5.30163e-04 -1.69494e-03        00000 
-4.47416e-04 -2.30478e-03        00000 
-2.05434e-04 -2.71247e-03        00000 
 1.21691e-04 -2.76464e-03        00000 
 4.02826e-04 -2.43775e-03        00000 
 5.35401e-04 -1.85304e-03        00000 
 5.06776e-04 -1.20716e-03        00000 
 3.81198e-04 -6.67628e-04        00000 
 2.38921e-04 -3.07968e-04        00000 
 1.28815e-04 -1.13646e-04        00000 
 6.15287e-05 -2.93141e-05        00000 
 2.68959e-05 -1.45198e-06        00000 
 1.11538e-05  4.02202e-06        00000 
 4.53039e-06  3.19160e-06        00000 
 1.82528e-06  1.67550e-06        00000 
 8.13475e-07  7.04585e-07        00000 
 8.47230e-07  3.90591e-07        00000 
 1.97522e-07  4.67356e-10        00000 
 1.63085e-07 -1.71233e-08        00000 
 3.24036e-07 -1.23083e-07        00000 
 7.01146e-07 -3.47852e-07        00000 
 1.48163e-06 -8.10238e-07        00000 
 3.20435e-06 -1.49120e-06        00000 
 7.35928e-06 -1.39581e-06        00000 
 1.78984e-05  4.11606e-06        00000 
 4.39917e-05  2.97084e-05        00000 
 1.02779e-04  1.11063e-04        00000 
 2.16750e-04  3.15436e-04        00000 
 3.96492e-04  7.34870e-04        00000 
 6.06874e-04  1.43886e-03        00000 
 7.42781e-04  2.38766e-03        00000 
 6.66255e-04  3.36766e-03        00000 
 3.18790e-04  4.04225e-03        00000 
-1.84246e-04  4.13173e-03        00000 
-6.05997e-04  3.59209e-03        00000 
-7.68043e-04  2.64311e-03        00000 
-6.73138e-04  1.63389e-03        00000 
-4.55840e-04  8.39173e-04        00000 
-2.50213e-04  3.50195e-04        00000 
-1.15098e-04  1.11718e-04        00000 
-4.60017e-05  2.10374e-05        00000 
-1.68585e-05 -3.48174e-06        00000 
-6.14808e-06 -5.91607e-06        00000 
-2.42237e-06 -3.73309e-06        00000 
-1.04069e-06 -1.79949e-06        00000 
-5.20977e-07 -7.21027e-07        00000 
-6.24327e-07 -4.03182e-07        00000 
-1.29319e-07 -2.70589e-09        00000 
-1.05645e-07  9.86089e-09        00000 
-1.99700e-07  1.01526e-07        00000 
-3.91677e-07  2.74470e-07        00000 
-7.08450e-07  6.44189e-07        00000 
-1.28604e-06  1.33066e-06        00000 
-2.79661e-06  1.95109e-06        00000 
-8.01923e-06 -6.22749e-07        00000 
-2.58749e-05 -1.92645e-05        00000 
-7.83667e-05 -9.25468e-05        00000 
-2.04884e-04 -3.08580e-04        00000 
-4.45860e-04 -8.15084e-04        00000 
-7.84781e-04 -1.76547e-03        00000 
-1.07225e-03 -3.16654e-03        00000 
-1.04355e-03 -4.71238e-03        00000 
-5.28349e-04 -5.82115e-03        00000 
 2.96147e-04 -5.97457e-03        00000 
 9.65616e-04 -5.09084e-03        00000 
 1.14695e-03 -3.57099e-03        00000 
 9.05590e-04 -2.03995e-03        00000 
 5.30383e-04 -9.34360e-04        00000 
 2.39540e-04 -3.30950e-04        00000 
 8.43146e-05 -7.99339e-05        00000 
 2.28179e-05 -3.72360e-06        00000 
 4.58706e-06  9.30399e-06        00000 
 7.78963e-07  6.98816e-06        00000 
 3.22717e-07  3.63342e-06        00000 
 2.68165e-07  1.63591e-06        00000 
 2.13187e-07  6.43253e-07        00000 
 3.52266e-07  3.72720e-07        00000 
 5.08070e-08  3.60181e-09        00000 
 3.98415e-08 -3.46046e-09        00000 
 6.41459e-08 -7.31565e-08        00000 
 7.82064e-08 -1.68437e-07        00000 
-2.15043e-08 -3.57116e-07        00000 
-4.69477e-07 -8.11068e-07        00000 
-1.52494e-06 -1.76361e-06        00000 
-2.35664e-06 -2.41273e-06        00000 
 3.34231e-06  4.75526e-06        00000 
 3.86026e-05  5.25618e-05        00000 
 1.60452e-04  2.40187e-04        00000 
 4.59885e-04  7.82306e-04        00000 
 9.85556e-04  1.98223e-03        00000 
 1.56474e-03  3.99725e-03        00000 
 1.70526e-03  6.44444e-03        00000 
 9.37166e-04  8.30771e-03        00000 
-5.05093e-04  8.57847e-03        00000 
-1.62695e-03  7.10168e-03        00000 
-1.75963e-03  4.63544e-03        00000 
-1.19805e-03  2.34117e-03        00000 
-5.66888e-04  8.86407e-04        00000 
-1.83929e-04  2.27710e-04        00000 
-3.16533e-05  1.95248e-05        00000 
 6.10250e-06 -1.76089e-05        00000 
 7.87515e-06 -1.34776e-05        00000 
 4.00076e-06 -6.63896e-06        00000 
 1.46012e-06 -2.92820e-06        00000 
 4.13634e-07 -1.28119e-06        00000 
 8.71314e-08 -5.17027e-07        00000 
-4.23971e-08 -3.22943e-07        00000 
 3.34277e-08 -3.37140e-09        00000 
 3.07635e-08 -8.83124e-10        00000 
 7.73056e-08  4.73226e-08        00000 
 2.30236e-07  6.66872e-08        00000 
 6.80934e-07  4.73843e-08        00000 
 1.93214e-06  8.21613e-08        00000 
 5.05870e-06  7.04572e-07        00000 
 1.15349e-05  3.29014e-06        00000 
 2.02032e-05  8.01061e-06        00000 
 1.45454e-05 -1.15180e-06        00000 
-6.97843e-05 -1.09264e-04        00000 
-3.87645e-04 -5.81672e-04        00000 
-1.13888e-03 -1.94747e-03        00000 
-2.24678e-03 -4.73998e-03        00000 
-2.88292e-03 -8.65911e-03        00000 
-1.79513e-03 -1.19373e-02        00000 
 9.19534e-04 -1.24511e-02        00000 
 2.91063e-03 -9.86297e-03        00000 
 2.72494e-03 -5.73617e-03        00000 
 1.47980e-03 -2.34879e-03        00000 
 4.86034e-04 -6.02599e-04        00000 
 5.83652e-05 -3.40859e-05        00000 
-3.99777e-05  5.37965e-05        00000 
-3.51539e-05  3.36027e-05        00000 
-1.80012e-05  1.34955e-05        00000 
-7.50061e-06  4.80319e-06        00000 
-2.81116e-06  1.88447e-06        00000 
-9.94267e-07  8.79157e-07        00000 
-3.74822e-07  3.89731e-07        00000 
-2.88896e-07  2.70945e-07        00000 
-1.17850e-07  2.48186e-09        00000 
-1.01546e-07  3.02626e-09        00000 
-2.17647e-07 -2.83374e-08        00000 
-5.26919e-07  5.69318e-09        00000 
-1.27315e-06  1.88526e-07        00000 
-3.10340e-06  5.94909e-07        00000 
-7.59015e-06  8.49829e-07        00000 
-1.81095e-05 -1.37267e-06        00000 
-3.97258e-05 -1.29665e-05        00000 
-7.08656e-05 -4.21295e-05        00000 
-6.48120e-05 -5.55460e-05        00000 
 1.69557e-04  1.84709e-04        00000 
 1.07601e-03  1.43947e-03        00000 
 3.01547e-03  5.00622e-03        00000 
 4.94689e-03  1.13048e-02        00000 
 3.73676e-03  1.75031e-02        00000 
-1.79595e-03  1.86853e-02        00000 
-5.54753e-03  1.36639e-02        00000 
-4.10331e-03  6.46201e-03        00000 
-1.50547e-03  1.69605e-03        00000 
-1.69095e-04  7.75315e-06        00000 
 1.36615e-04 -2.05797e-04        00000 
 1.11763e-04 -1.06612e-04        00000 
 5.63451e-05 -3.50291e-05        00000 
 2.39788e-05 -8.96390e-06        00000 
 9.61852e-06 -2.27127e-06        00000 
 3.80416e-06 -9.10690e-07        00000 
 1.49586e-06 -5.52897e-07        00000 
 6.43614e-07 -2.88541e-07        00000 
 6.14834e-07 -2.22091e-07        00000 
 1.96362e-07 -1.30262e-09        00000 
 1.66829e-07 -3.21785e-09        00000 
 3.47258e-07  1.56611e-08        00000 
 7.99588e-07 -4.34947e-08        00000 
 1.80233e-06 -3.01821e-07        00000 
 4.06019e-06 -9.83233e-07        00000 
 9.29527e-06 -2.15170e-06        00000 
 2.17619e-05 -2.12117e-06        00000 
 5.11502e-05  8.09961e-06        00000 
 1.13667e-04  5.63653e-05        00000 
 2.09367e-04  1.87319e-04        00000 
 1.99173e-04  3.31538e-04        00000 
-5.23267e-04 -2.43784e-04        00000 
-3.33656e-03 -3.91511e-03        00000 
-8.16711e-03 -1.36292e-02        00000 
-8.32542e-03 -2.64682e-02        00000 
 3.72055e-03 -3.04855e-02        00000 
 1.11180e-02 -1.83871e-02        00000 
 5.42133e-03 -5.49574e-03        00000 
 7.00740e-04  1.42012e-04        00000 
-4.32626e-04  7.93925e-04        00000 
-3.24918e-04  3.63758e-04        00000 
-1.55786e-04  1.04938e-04        00000 
-6.43091e-05  2.11726e-05        00000 
-2.60373e-05  2.71598e-06        00000 
-1.07803e-05  2.63448e-07        00000 
-4.56160e-06  2.95153e-07        00000 
-1.91688e-06  3.38029e-07        00000 
-8.69572e-07  2.15121e-07        00000 
-8.98245e-07  1.71836e-07        00000 
-2.61834e-07  3.22745e-10        00000 
-2.19154e-07  1.09927e-09        00000 
-4.53392e-07 -6.28725e-09        00000 
-1.02514e-06  5.75754e-08        00000 
-2.24179e-06  3.08309e-07        00000 
-4.83645e-06  1.01603e-06        00000 
-1.04843e-05  2.59468e-06        00000 
-2.33330e-05  4.77053e-06        00000 
-5.42401e-05  1.71212e-06        00000 
-1.30336e-04 -3.66681e-05        00000 
-3.03570e-04 -2.11524e-04        00000 
-5.92872e-04 -7.21628e-04        00000 
-5.74391e-04 -1.45415e-03        00000 
 1.76751e-03  8.70508e-05        00000 
 1.11272e-02  1.24101e-02        00000 
 1.84791e-02  4.07887e-02        00000 
-7.66661e-03  6.10285e-02        00000 
-2.20700e-02  1.99812e-02        00000 
-4.05731e-03 -5.14104e-04        00000 
 1.52558e-03 -3.14094e-03        00000 
 9.11920e-04 -1.23475e-03        00000 
 4.02441e-04 -3.07220e-04        00000 
 1.54435e-04 -5.24608e-05        00000 
 6.10374e-05 -3.97342e-06        00000 
 2.55576e-05  1.20569e-06        00000 
 1.12282e-05  5.40070e-07        00000 
 4.99912e-06 -2.89607e-08        00000 
 2.16772e-06 -1.90964e-07        00000 
 9.86900e-07 -1.66263e-07        00000 
 1.07990e-06 -1.11138e-07        00000 
 3.01324e-07 -7.70166e-10        00000 
 2.43428e-07  6.43724e-09        00000 
 5.12486e-07 -1.37813e-09        00000 
 1.15288e-06 -5.91014e-08        00000 
 2.48736e-06 -2.50902e-07        00000 
 5.26238e-06 -7.90823e-07        00000 
 1.10552e-05 -2.12452e-06        00000 
 2.34648e-05 -4.86676e-06        00000 
 5.17297e-05 -7.83819e-06        00000 
 1.21908e-04  4.92660e-06        00000 
 3.07017e-04  1.23508e-04        00000 
 7.72938e-04  7.01830e-04        00000 
 1.68183e-03  2.62703e-03        00000 
 1.94739e-03  6.08427e-03        00000 
-4.33803e-03  7.74448e-04        00000 
-3.33644e-02 -5.69475e-02        00000 
 1.33873e-02 -1.78160e-01        00000 
 3.47663e-02  1.15244e-02        00000 
-6.59509e-03  1.46649e-02        00000 
-2.17183e-03  4.21472e-03        00000 
-8.72204e-04  7.82466e-04        00000 
-3.00960e-04  1.10386e-04        00000 
-1.14278e-04  1.01211e-05        00000 
-4.72977e-05  1.14147e-07        00000 
-2.10115e-05  1.79972e-09        00000 
-9.59703e-06  2.34863e-07        00000 
-4.37198e-06  2.47224e-07        00000 
-1.92922e-06  1.96469e-07        00000 
-7.87196e-07  2.14788e-07        00000 
-1.01616e-06  6.61946e-08        00000 
-2.78262e-07 -5.09888e-09        00000 
-1.89314e-07 -4.17173e-08        00000 
-4.54664e-07 -2.78196e-08        00000 
-1.01278e-06 -3.03806e-08        00000 
-2.17237e-06 -1.50622e-08        00000 
-4.56483e-06  7.32555e-08        00000 
-9.47881e-06  3.65854e-07        00000 
-1.96444e-05  1.16788e-06        00000 
-4.13949e-05  2.82835e-06        00000 
-9.17047e-05  2.32933e-06        00000 
-2.22675e-04 -3.48081e-05        00000 
-6.03455e-04 -3.38802e-04        00000 
-1.72984e-03 -2.04591e-03        00000 
-4.78108e-03 -8.89141e-03        00000 
-1.05363e-02 -2.27927e-02        00000 
-1.92943e-02  3.56848e-02        00000 
 8.47189e-03  7.72405e-01        00000 
 3.15765e-04 -2.45014e-01        00000 
-7.19923e-05 -7.49019e-03        00000 
-2.65494e-05 -1.75677e-03        00000 
-1.06752e-05 -5.60435e-04        00000 
-3.71570e-06 -2.32420e-04        00000 
-1.40787e-06 -1.06923e-04        00000 
-5.80962e-07 -5.01253e-05        00000 
-2.57373e-07 -2.33485e-05        00000 
-1.17393e-07 -1.07222e-05        00000 
-5.34545e-08 -4.84783e-06        00000 
-2.35962e-08 -2.18395e-06        00000 
-9.92266e-09 -1.05136e-06        00000 
-4.78341e-08 -3.21161e-07        00000 
-1.34490e-08  9.15188e-08        00000 
-2.39628e-09  2.81261e-07        00000 
-5.55925e-09  5.49811e-07        00000 
-1.23753e-08  1.17307e-06        00000 
-2.65383e-08  2.52805e-06        00000 
-5.57609e-08  5.39830e-06        00000 
-1.15810e-07  1.13756e-05        00000 
-2.40208e-07  2.36614e-05        00000 
-5.07151e-07  4.86594e-05        00000 
-1.12722e-06  9.93015e-05        00000 
-2.74641e-06  2.03901e-04        00000 
-7.44223e-06  4.43873e-04        00000 
-2.12141e-05  1.16778e-03        00000 
-5.78505e-05  4.17756e-03        00000 
-1.25736e-04  1.80669e-02        00000 
-2.21278e-04  7.36834e-02        00000 
 9.45785e-05  2.11199e-01        00000 
 3.06481e-18  2.14897e-18        00000 
-4.01403e-19  2.96756e-18        00000 
 7.08564e-20 -6.35195e-19        00000 
-2.03658e-20  7.73865e-20        00000 
 3.81607e-21 -4.02022e-21        00000 
 6.52642e-22 -2.51261e-21        00000 
-7.44742e-22  3.41518e-21        00000 
 1.55082e-22 -2.00289e-21        00000 
 2.37470e-23  1.17470e-21        00000 
-5.18497e-24 -2.70022e-22        00000 
-1.68956e-23        00000        00000 
 2.47950e-24  2.55078e-23        00000 
 5.88889e-25 -3.82000e-24        00000 
 6.10394e-24 -1.33851e-23        00000 
-9.68604e-24  2.15297e-23        00000 
 1.92987e-23  2.41810e-23        00000 
-2.36759e-23 -7.90340e-23        00000 
-1.58222e-24  1.23496e-22        00000 
 3.43877e-23  2.23626e-22        00000 
-5.59247e-23 -4.58766e-23        00000 
-2.52671e-23 -1.37469e-21        00000 
-3.92902e-22  4.20211e-21        00000 
-1.60562e-22 -6.70845e-21        00000 
-1.10740e-23  3.40411e-21        00000 
 2.61294e-21 -4.30232e-22        00000 
-2.32584e-20 -1.44760e-19        00000 
 8.37374e-20  4.19063e-19        00000 
-1.45517e-19 -8.71015e-19        00000 
 1.72901e-19 -2.29575e-18        00000 
 1.12266e-20  2.53722e-18        00000 
-2.08335e-19 -3.34041e-18        00000 
 1.61955e-19  5.38145e-19        00000 
-3.41038e-20  1.42021e-19        00000 
 7.35702e-21 -5.71442e-20        00000 
-1.67132e-21  7.11088e-21        00000 
 2.07179e-22 -4.69220e-22        00000 
 6.35625e-23 -4.83080e-22        00000 
-4.10520e-23  1.59151e-22        00000 
 6.90168e-24 -1.84539e-22        00000 
-9.02488e-26  7.76257e-23        00000 
 1.28698e-24 -1.55863e-23        00000 
-1.06257e-24 -2.52607e-25        00000 
 3.08512e-25  2.21172e-24        00000 
-1.45093e-24  2.67339e-24        00000 
 1.95260e-24 -1.16420e-24        00000 
-2.83609e-24 -4.95928e-24        00000 
 2.45669e-24  1.17543e-23        00000 
 1.17190e-24 -4.48366e-24        00000 
-5.16963e-24 -7.20414e-24        00000 
 6.46870e-24 -6.35903e-23        00000 
-2.05676e-23  3.12202e-22        00000 
 6.87541e-23 -7.17077e-22        00000 
-2.94017e-23  7.86407e-22        00000 
 2.07070e-22  1.34352e-22        00000 
-1.45287e-21 -7.66875e-21        00000 
 5.47075e-21  2.84842e-20        00000 
-1.40991e-20 -6.99242e-20        00000 
 2.20322e-20 -1.64056e-20        00000 
-1.83548e-20  2.60898e-19        00000 
-6.33257e-21 -4.97446e-19        00000 
 2.35431e-20  4.03888e-19        00000 
-2.30917e-20 -1.88848e-19        00000 
 1.06199e-20  2.17612e-20        00000 
-2.71602e-21  7.74581e-21        00000 
 6.39429e-22 -3.36487e-21        00000 
-1.30721e-22  5.99640e-22        00000 
 1.30756e-23 -3.99477e-23        00000 
 3.60287e-24 -9.74719e-24        00000 
-2.23402e-24  2.32389e-23        00000 
 4.88457e-25 -1.49940e-23        00000 
-1.60029e-25  5.29957e-24        00000 
 1.57763e-25 -9.09326e-25        00000 
-1.24232e-25 -1.13805e-26        00000 
 2.81655e-25 -2.04629e-25        00000 
-3.36184e-25 -2.02881e-26        00000 
 4.17610e-25  8.23963e-25        00000 
-2.26804e-25 -1.35722e-24        00000 
-4.80467e-25  9.51890e-25        00000 
 6.46983e-25 -4.93912e-24        00000 
-1.41145e-24  2.09387e-23        00000 
 5.20916e-24 -6.44076e-23        00000 
-1.53243e-23  1.24958e-22        00000 
 4.68038e-23 -9.25434e-23        00000 
-7.98142e-23 -4.79224e-22        00000 
 1.52462e-22  3.07816e-21        00000 
-4.44654e-22 -1.03573e-20        00000 
 9.80527e-22  2.25731e-20        00000 
-1.11259e-21 -2.43177e-20        00000 
 1.11640e-21 -1.39632e-20        00000 
 9.02555e-22  1.61351e-20        00000 