<?xml version="1.0" encoding="utf-8"?>
<VTKFile byte_order="LittleEndian" type="UnstructuredGrid" version="0.1">
   <UnstructuredGrid>
      <Piece NumberOfCells="3364" NumberOfPoints="1741">
         <Points>
            <DataArray Name="Points" NumberOfComponents="3" format="ascii" type="Float32">
0.0000 1.0000 0.0000
0.0000 1.0345 0.0000
0.0000 1.0690 0.0000
0.0000 1.1034 0.0000
0.0000 1.1379 0.0000
0.0000 1.1724 0.0000
0.0000 1.2069 0.0000
0.0000 1.2414 0.0000
0.0000 1.2759 0.0000
0.0000 1.3103 0.0000
0.0000 1.3448 0.0000
0.0000 1.3793 0.0000
0.0000 1.4138 0.0000
0.0000 1.4483 0.0000
0.0000 1.4828 0.0000
0.0000 1.5172 0.0000
0.0000 1.5517 0.0000
0.0000 1.5862 0.0000
0.0000 1.6207 0.0000
0.0000 1.6552 0.0000
0.0000 1.6897 0.0000
0.0000 1.7241 0.0000
0.0000 1.7586 0.0000
0.0000 1.7931 0.0000
0.0000 1.8276 0.0000
0.0000 1.8621 0.0000
0.0000 1.8966 0.0000
0.0000 1.9310 0.0000
0.0000 1.9655 0.0000
0.0000 2.0000 0.0000
0.0690 1.0000 0.0000
0.0690 1.0345 0.0000
0.0690 1.0690 0.0000
0.0690 1.1034 0.0000
0.0690 1.1379 0.0000
0.0690 1.1724 0.0000
0.0690 1.2069 0.0000
0.0690 1.2414 0.0000
0.0690 1.2759 0.0000
0.0690 1.3103 0.0000
0.0690 1.3448 0.0000
0.0690 1.3793 0.0000
0.0690 1.4138 0.0000
0.0690 1.4483 0.0000
0.0690 1.4828 0.0000
0.0690 1.5172 0.0000
0.0690 1.5517 0.0000
0.0690 1.5862 0.0000
0.0690 1.6207 0.0000
0.0690 1.6552 0.0000
0.0690 1.6897 0.0000
0.0690 1.7241 0.0000
0.0690 1.7586 0.0000
0.0690 1.7931 0.0000
0.0690 1.8276 0.0000
0.0690 1.8621 0.0000
0.0690 1.8966 0.0000
0.0690 1.9310 0.0000
0.0690 1.9655 0.0000
0.0690 2.0000 0.0000
0.1379 1.0000 0.0000
0.1379 1.0345 0.0000
0.1379 1.0690 0.0000
0.1379 1.1034 0.0000
0.1379 1.1379 0.0000
0.1379 1.1724 0.0000
0.1379 1.2069 0.0000
0.1379 1.2414 0.0000
0.1379 1.2759 0.0000
0.1379 1.3103 0.0000
0.1379 1.3448 0.0000
0.1379 1.3793 0.0000
0.1379 1.4138 0.0000
0.1379 1.4483 0.0000
0.1379 1.4828 0.0000
0.1379 1.5172 0.0000
0.1379 1.5517 0.0000
0.1379 1.5862 0.0000
0.1379 1.6207 0.0000
0.1379 1.6552 0.0000
0.1379 1.6897 0.0000
0.1379 1.7241 0.0000
0.1379 1.7586 0.0000
0.1379 1.7931 0.0000
0.1379 1.8276 0.0000
0.1379 1.8621 0.0000
0.1379 1.8966 0.0000
0.1379 1.9310 0.0000
0.1379 1.9655 0.0000
0.1379 2.0000 0.0000
0.2069 1.0000 0.0000
0.2069 1.0345 0.0000
0.2069 1.0690 0.0000
0.2069 1.1034 0.0000
0.2069 1.1379 0.0000
0.2069 1.1724 0.0000
0.2069 1.2069 0.0000
0.2069 1.2414 0.0000
0.2069 1.2759 0.0000
0.2069 1.3103 0.0000
0.2069 1.3448 0.0000
0.2069 1.3793 0.0000
0.2069 1.4138 0.0000
0.2069 1.4483 0.0000
0.2069 1.4828 0.0000
0.2069 1.5172 0.0000
0.2069 1.5517 0.0000
0.2069 1.5862 0.0000
0.2069 1.6207 0.0000
0.2069 1.6552 0.0000
0.2069 1.6897 0.0000
0.2069 1.7241 0.0000
0.2069 1.7586 0.0000
0.2069 1.7931 0.0000
0.2069 1.8276 0.0000
0.2069 1.8621 0.0000
0.2069 1.8966 0.0000
0.2069 1.9310 0.0000
0.2069 1.9655 0.0000
0.2069 2.0000 0.0000
0.2759 1.0000 0.0000
0.2759 1.0345 0.0000
0.2759 1.0690 0.0000
0.2759 1.1034 0.0000
0.2759 1.1379 0.0000
0.2759 1.1724 0.0000
0.2759 1.2069 0.0000
0.2759 1.2414 0.0000
0.2759 1.2759 0.0000
0.2759 1.3103 0.0000
0.2759 1.3448 0.0000
0.2759 1.3793 0.0000
0.2759 1.4138 0.0000
0.2759 1.4483 0.0000
0.2759 1.4828 0.0000
0.2759 1.5172 0.0000
0.2759 1.5517 0.0000
0.2759 1.5862 0.0000
0.2759 1.6207 0.0000
0.2759 1.6552 0.0000
0.2759 1.6897 0.0000
0.2759 1.7241 0.0000
0.2759 1.7586 0.0000
0.2759 1.7931 0.0000
0.2759 1.8276 0.0000
0.2759 1.8621 0.0000
0.2759 1.8966 0.0000
0.2759 1.9310 0.0000
0.2759 1.9655 0.0000
0.2759 2.0000 0.0000
0.3448 1.0000 0.0000
0.3448 1.0345 0.0000
0.3448 1.0690 0.0000
0.3448 1.1034 0.0000
0.3448 1.1379 0.0000
0.3448 1.1724 0.0000
0.3448 1.2069 0.0000
0.3448 1.2414 0.0000
0.3448 1.2759 0.0000
0.3448 1.3103 0.0000
0.3448 1.3448 0.0000
0.3448 1.3793 0.0000
0.3448 1.4138 0.0000
0.3448 1.4483 0.0000
0.3448 1.4828 0.0000
0.3448 1.5172 0.0000
0.3448 1.5517 0.0000
0.3448 1.5862 0.0000
0.3448 1.6207 0.0000
0.3448 1.6552 0.0000
0.3448 1.6897 0.0000
0.3448 1.7241 0.0000
0.3448 1.7586 0.0000
0.3448 1.7931 0.0000
0.3448 1.8276 0.0000
0.3448 1.8621 0.0000
0.3448 1.8966 0.0000
0.3448 1.9310 0.0000
0.3448 1.9655 0.0000
0.3448 2.0000 0.0000
0.4138 1.0000 0.0000
0.4138 1.0345 0.0000
0.4138 1.0690 0.0000
0.4138 1.1034 0.0000
0.4138 1.1379 0.0000
0.4138 1.1724 0.0000
0.4138 1.2069 0.0000
0.4138 1.2414 0.0000
0.4138 1.2759 0.0000
0.4138 1.3103 0.0000
0.4138 1.3448 0.0000
0.4138 1.3793 0.0000
0.4138 1.4138 0.0000
0.4138 1.4483 0.0000
0.4138 1.4828 0.0000
0.4138 1.5172 0.0000
0.4138 1.5517 0.0000
0.4138 1.5862 0.0000
0.4138 1.6207 0.0000
0.4138 1.6552 0.0000
0.4138 1.6897 0.0000
0.4138 1.7241 0.0000
0.4138 1.7586 0.0000
0.4138 1.7931 0.0000
0.4138 1.8276 0.0000
0.4138 1.8621 0.0000
0.4138 1.8966 0.0000
0.4138 1.9310 0.0000
0.4138 1.9655 0.0000
0.4138 2.0000 0.0000
0.4828 1.0000 0.0000
0.4828 1.0345 0.0000
0.4828 1.0690 0.0000
0.4828 1.1034 0.0000
0.4828 1.1379 0.0000
0.4828 1.1724 0.0000
0.4828 1.2069 0.0000
0.4828 1.2414 0.0000
0.4828 1.2759 0.0000
0.4828 1.3103 0.0000
0.4828 1.3448 0.0000
0.4828 1.3793 0.0000
0.4828 1.4138 0.0000
0.4828 1.4483 0.0000
0.4828 1.4828 0.0000
0.4828 1.5172 0.0000
0.4828 1.5517 0.0000
0.4828 1.5862 0.0000
0.4828 1.6207 0.0000
0.4828 1.6552 0.0000
0.4828 1.6897 0.0000
0.4828 1.7241 0.0000
0.4828 1.7586 0.0000
0.4828 1.7931 0.0000
0.4828 1.8276 0.0000
0.4828 1.8621 0.0000
0.4828 1.8966 0.0000
0.4828 1.9310 0.0000
0.4828 1.9655 0.0000
0.4828 2.0000 0.0000
0.5517 1.0000 0.0000
0.5517 1.0345 0.0000
0.5517 1.0690 0.0000
0.5517 1.1034 0.0000
0.5517 1.1379 0.0000
0.5517 1.1724 0.0000
0.5517 1.2069 0.0000
0.5517 1.2414 0.0000
0.5517 1.2759 0.0000
0.5517 1.3103 0.0000
0.5517 1.3448 0.0000
0.5517 1.3793 0.0000
0.5517 1.4138 0.0000
0.5517 1.4483 0.0000
0.5517 1.4828 0.0000
0.5517 1.5172 0.0000
0.5517 1.5517 0.0000
0.5517 1.5862 0.0000
0.5517 1.6207 0.0000
0.5517 1.6552 0.0000
0.5517 1.6897 0.0000
0.5517 1.7241 0.0000
0.5517 1.7586 0.0000
0.5517 1.7931 0.0000
0.5517 1.8276 0.0000
0.5517 1.8621 0.0000
0.5517 1.8966 0.0000
0.5517 1.9310 0.0000
0.5517 1.9655 0.0000
0.5517 2.0000 0.0000
0.6207 1.0000 0.0000
0.6207 1.0345 0.0000
0.6207 1.0690 0.0000
0.6207 1.1034 0.0000
0.6207 1.1379 0.0000
0.6207 1.1724 0.0000
0.6207 1.2069 0.0000
0.6207 1.2414 0.0000
0.6207 1.2759 0.0000
0.6207 1.3103 0.0000
0.6207 1.3448 0.0000
0.6207 1.3793 0.0000
0.6207 1.4138 0.0000
0.6207 1.4483 0.0000
0.6207 1.4828 0.0000
0.6207 1.5172 0.0000
0.6207 1.5517 0.0000
0.6207 1.5862 0.0000
0.6207 1.6207 0.0000
0.6207 1.6552 0.0000
0.6207 1.6897 0.0000
0.6207 1.7241 0.0000
0.6207 1.7586 0.0000
0.6207 1.7931 0.0000
0.6207 1.8276 0.0000
0.6207 1.8621 0.0000
0.6207 1.8966 0.0000
0.6207 1.9310 0.0000
0.6207 1.9655 0.0000
0.6207 2.0000 0.0000
0.6897 1.0000 0.0000
0.6897 1.0345 0.0000
0.6897 1.0690 0.0000
0.6897 1.1034 0.0000
0.6897 1.1379 0.0000
0.6897 1.1724 0.0000
0.6897 1.2069 0.0000
0.6897 1.2414 0.0000
0.6897 1.2759 0.0000
0.6897 1.3103 0.0000
0.6897 1.3448 0.0000
0.6897 1.3793 0.0000
0.6897 1.4138 0.0000
0.6897 1.4483 0.0000
0.6897 1.4828 0.0000
0.6897 1.5172 0.0000
0.6897 1.5517 0.0000
0.6897 1.5862 0.0000
0.6897 1.6207 0.0000
0.6897 1.6552 0.0000
0.6897 1.6897 0.0000
0.6897 1.7241 0.0000
0.6897 1.7586 0.0000
0.6897 1.7931 0.0000
0.6897 1.8276 0.0000
0.6897 1.8621 0.0000
0.6897 1.8966 0.0000
0.6897 1.9310 0.0000
0.6897 1.9655 0.0000
0.6897 2.0000 0.0000
0.7586 1.0000 0.0000
0.7586 1.0345 0.0000
0.7586 1.0690 0.0000
0.7586 1.1034 0.0000
0.7586 1.1379 0.0000
0.7586 1.1724 0.0000
0.7586 1.2069 0.0000
0.7586 1.2414 0.0000
0.7586 1.2759 0.0000
0.7586 1.3103 0.0000
0.7586 1.3448 0.0000
0.7586 1.3793 0.0000
0.7586 1.4138 0.0000
0.7586 1.4483 0.0000
0.7586 1.4828 0.0000
0.7586 1.5172 0.0000
0.7586 1.5517 0.0000
0.7586 1.5862 0.0000
0.7586 1.6207 0.0000
0.7586 1.6552 0.0000
0.7586 1.6897 0.0000
0.7586 1.7241 0.0000
0.7586 1.7586 0.0000
0.7586 1.7931 0.0000
0.7586 1.8276 0.0000
0.7586 1.8621 0.0000
0.7586 1.8966 0.0000
0.7586 1.9310 0.0000
0.7586 1.9655 0.0000
0.7586 2.0000 0.0000
0.8276 1.0000 0.0000
0.8276 1.0345 0.0000
0.8276 1.0690 0.0000
0.8276 1.1034 0.0000
0.8276 1.1379 0.0000
0.8276 1.1724 0.0000
0.8276 1.2069 0.0000
0.8276 1.2414 0.0000
0.8276 1.2759 0.0000
0.8276 1.3103 0.0000
0.8276 1.3448 0.0000
0.8276 1.3793 0.0000
0.8276 1.4138 0.0000
0.8276 1.4483 0.0000
0.8276 1.4828 0.0000
0.8276 1.5172 0.0000
0.8276 1.5517 0.0000
0.8276 1.5862 0.0000
0.8276 1.6207 0.0000
0.8276 1.6552 0.0000
0.8276 1.6897 0.0000
0.8276 1.7241 0.0000
0.8276 1.7586 0.0000
0.8276 1.7931 0.0000
0.8276 1.8276 0.0000
0.8276 1.8621 0.0000
0.8276 1.8966 0.0000
0.8276 1.9310 0.0000
0.8276 1.9655 0.0000
0.8276 2.0000 0.0000
0.8966 1.0000 0.0000
0.8966 1.0345 0.0000
0.8966 1.0690 0.0000
0.8966 1.1034 0.0000
0.8966 1.1379 0.0000
0.8966 1.1724 0.0000
0.8966 1.2069 0.0000
0.8966 1.2414 0.0000
0.8966 1.2759 0.0000
0.8966 1.3103 0.0000
0.8966 1.3448 0.0000
0.8966 1.3793 0.0000
0.8966 1.4138 0.0000
0.8966 1.4483 0.0000
0.8966 1.4828 0.0000
0.8966 1.5172 0.0000
0.8966 1.5517 0.0000
0.8966 1.5862 0.0000
0.8966 1.6207 0.0000
0.8966 1.6552 0.0000
0.8966 1.6897 0.0000
0.8966 1.7241 0.0000
0.8966 1.7586 0.0000
0.8966 1.7931 0.0000
0.8966 1.8276 0.0000
0.8966 1.8621 0.0000
0.8966 1.8966 0.0000
0.8966 1.9310 0.0000
0.8966 1.9655 0.0000
0.8966 2.0000 0.0000
0.9655 1.0000 0.0000
0.9655 1.0345 0.0000
0.9655 1.0690 0.0000
0.9655 1.1034 0.0000
0.9655 1.1379 0.0000
0.9655 1.1724 0.0000
0.9655 1.2069 0.0000
0.9655 1.2414 0.0000
0.9655 1.2759 0.0000
0.9655 1.3103 0.0000
0.9655 1.3448 0.0000
0.9655 1.3793 0.0000
0.9655 1.4138 0.0000
0.9655 1.4483 0.0000
0.9655 1.4828 0.0000
0.9655 1.5172 0.0000
0.9655 1.5517 0.0000
0.9655 1.5862 0.0000
0.9655 1.6207 0.0000
0.9655 1.6552 0.0000
0.9655 1.6897 0.0000
0.9655 1.7241 0.0000
0.9655 1.7586 0.0000
0.9655 1.7931 0.0000
0.9655 1.8276 0.0000
0.9655 1.8621 0.0000
0.9655 1.8966 0.0000
0.9655 1.9310 0.0000
0.9655 1.9655 0.0000
0.9655 2.0000 0.0000
1.0345 1.0000 0.0000
1.0345 1.0345 0.0000
1.0345 1.0690 0.0000
1.0345 1.1034 0.0000
1.0345 1.1379 0.0000
1.0345 1.1724 0.0000
1.0345 1.2069 0.0000
1.0345 1.2414 0.0000
1.0345 1.2759 0.0000
1.0345 1.3103 0.0000
1.0345 1.3448 0.0000
[...]
         <PointData>
            <DataArray Name="fValues" NumberOfComponents="3" format="ascii" type="Float64">
 8.85454e-23 -1.30443e-22        00000 
-2.80733e-22  4.04255e-22        00000 
 1.37695e-21 -4.99698e-22        00000 
-4.92222e-21  6.78619e-21        00000 
 3.36685e-20 -1.13709e-20        00000 
-2.09860e-19  6.00235e-20        00000 
 1.02063e-18  2.89958e-19        00000 
-5.47834e-18 -3.55882e-18        00000 
 1.01883e-17 -7.04996e-19        00000 
-2.22600e-17 -1.22862e-18        00000 
 1.12799e-17  6.82254e-19        00000 
-5.69094e-18  1.94871e-18        00000 
 1.06222e-18 -1.62035e-19        00000 
-1.68212e-19 -6.11995e-21        00000 
 3.03594e-20 -1.42136e-20        00000 
-5.25148e-21  7.14335e-22        00000 
 9.04315e-22 -1.94327e-22        00000 
-1.52368e-22  8.12303e-23        00000 
 2.28574e-23 -5.55220e-24        00000 
-4.79293e-24  1.41818e-24        00000 
 7.23890e-25 -5.36785e-25        00000 
-1.19048e-25  5.56725e-26        00000 
 2.09187e-26 -1.89772e-26        00000 
-3.11987e-27  3.06559e-27        00000 
 5.56649e-28 -7.21442e-29        00000 
-1.06323e-28 -4.42074e-29        00000 
 1.34409e-29  3.64030e-30        00000 
-2.46273e-30 -3.29093e-30        00000 
 4.44844e-31 -3.18130e-31        00000 
-1.75233e-31  1.34256e-31        00000 
-1.01806e-07 -4.25156e-07        00000 
 2.02080e-07 -1.40774e-06        00000 
 1.02520e-06 -4.12243e-06        00000 
 3.72991e-06  1.37272e-07        00000 
 1.79900e-06  7.47595e-05        00000 
 1.11498e-05  4.73035e-04        00000 
-4.29441e-04  1.36255e-03        00000 
 2.82600e-03 -2.68112e-04        00000 
-5.47880e-02 -4.33383e-02        00000 
-3.88620e-02 -5.48327e-04        00000 
-5.59222e-02  4.08335e-02        00000 
 2.39252e-03  5.54210e-04        00000 
-6.75606e-05 -1.31067e-03        00000 
 1.82666e-06 -3.25341e-04        00000 
-4.91012e-08 -2.96866e-05        00000 
 1.31880e-09  4.54670e-06        00000 
-3.54175e-11  2.10769e-06        00000 
 9.51151e-13  3.31417e-07        00000 
-2.55435e-14  2.99751e-09        00000 
 6.85981e-16 -1.09879e-08        00000 
-1.84223e-17 -2.66934e-09        00000 
 4.94737e-19 -2.35311e-10        00000 
-1.32863e-20  3.92316e-11        00000 
 3.56809e-22  1.74514e-11        00000 
-9.45049e-24  2.68818e-12        00000 
-4.66691e-24  1.17734e-14        00000 
 1.83047e-22 -9.20505e-14        00000 
-6.73289e-21 -2.18816e-14        00000 
 2.28254e-19 -1.79145e-15        00000 
-2.45449e-18  5.09371e-16        00000 
-1.18576e-07  4.08971e-07        00000 
 2.12746e-07  1.25394e-06        00000 
 1.30916e-06  3.15545e-06        00000 
 5.61649e-06 -2.42648e-06        00000 
 5.86192e-06 -5.55783e-05        00000 
-2.55379e-05 -2.42838e-04        00000 
-8.08728e-04 -4.08559e-04        00000 
 2.07864e-03 -1.25220e-03        00000 
-2.98353e-02  5.19440e-03        00000 
 8.61847e-01 -4.28536e-03        00000 
-1.07351e-02  9.26416e-03        00000 
 2.02372e-05  2.17890e-03        00000 
-5.52804e-07  1.81672e-04        00000 
 1.48804e-08 -3.44513e-05        00000 
-3.99747e-10 -1.44445e-05        00000 
 1.07358e-11 -2.15521e-06        00000 
-2.88316e-13  6.53954e-09        00000 
 7.74285e-15  7.75282e-08        00000 
-2.07937e-16  1.78578e-08        00000 
 5.58422e-18  1.43248e-09        00000 
-1.49966e-19 -2.95529e-10        00000 
 4.02730e-21 -1.19467e-10        00000 
-1.08141e-22 -1.74516e-11        00000 
 2.90171e-24  1.41234e-13        00000 
-7.64500e-26  6.48375e-13        00000 
-3.80718e-26  1.46295e-13        00000 
 1.49202e-24  1.12685e-14        00000 
-5.53243e-23 -2.52738e-15        00000 
 1.99679e-21 -9.86312e-16        00000 
-9.87272e-18 -1.03817e-16        00000 
-1.54349e-08  1.41537e-07        00000 
 2.60850e-09  1.05314e-07        00000 
 1.59561e-08 -1.20097e-06        00000 
 6.60618e-08 -7.57446e-06        00000 
 6.42762e-08 -2.25788e-05        00000 
-4.05556e-07 -1.01115e-05        00000 
-9.15219e-06  2.52456e-04        00000 
 2.12805e-05  1.21730e-03        00000 
-2.23125e-04  3.79074e-03        00000 
 1.00750e-02  1.49302e-18        00000 
-2.57900e-17 -5.27939e-18        00000 
 5.14410e-18  1.58896e-19        00000 
-8.32818e-19  3.48449e-20        00000 
 1.37599e-19 -1.52349e-21        00000 
-2.32023e-20  8.11539e-22        00000 
 3.80605e-21 -1.23070e-22        00000 
-6.30401e-22 -2.47006e-23        00000 
 1.04821e-22 -1.48779e-24        00000 
-1.77238e-23  1.10346e-24        00000 
 2.97311e-24 -1.78936e-25        00000 
-4.90992e-25  1.00745e-25        00000 
 8.29055e-26 -1.94425e-26        00000 
-1.40738e-26  4.41245e-27        00000 
 2.39108e-27 -1.13455e-27        00000 
-4.06819e-28  8.49658e-29        00000 
 6.83136e-29  1.80035e-29        00000 
-1.13547e-29 -5.80419e-30        00000 
 1.96041e-30  8.65339e-31        00000 
-3.42198e-31 -1.09312e-31        00000 
 1.12956e-31 -5.06760e-33        00000 
 2.39867e-23  1.31025e-23        00000 
-7.40141e-23 -1.34256e-23        00000 
 4.52950e-22  6.61080e-23        00000 
-2.59470e-21 -6.29197e-22        00000 
 1.43356e-20  1.78619e-21        00000 
-7.93910e-20 -6.16522e-21        00000 
 4.07297e-19 -1.06012e-20        00000 
-1.68600e-18  4.99329e-20        00000 
 4.01064e-18 -2.39800e-19        00000 
-3.90307e-18  7.97875e-20        00000 
 3.67231e-18  3.06994e-19        00000 
-1.25511e-18 -2.18022e-19        00000 
 3.20496e-19  2.32800e-20        00000 
-6.65828e-20 -1.03456e-21        00000 
 1.29898e-20  1.88949e-22        00000 
-2.37799e-21 -1.76058e-23        00000 
 4.20190e-22 -1.83499e-23        00000 
-7.31828e-23  8.45663e-25        00000 
 1.26582e-23  1.95297e-25        00000 
-2.18591e-24 -1.58336e-26        00000 
 3.75233e-25 -2.01833e-26        00000 
-6.40178e-26  4.14990e-27        00000 
 1.09525e-26 -1.50174e-27        00000 
-1.87704e-27  3.28179e-28        00000 
 3.21824e-28 -6.95262e-29        00000 
-5.51162e-29  8.36320e-30        00000 
 9.39366e-30  2.64296e-31        00000 
-1.59930e-30 -2.61563e-31        00000 
 2.81683e-31  5.59570e-32        00000 
-9.36115e-32 -1.65135e-32        00000 
-1.64327e-23 -3.28362e-24        00000 
 4.85437e-23  7.53040e-24        00000 
-2.58703e-22 -4.01338e-23        00000 
 1.35796e-21  1.42056e-22        00000 
-6.85423e-21 -3.56934e-22        00000 
 3.17379e-20 -1.51711e-22        00000 
-1.22792e-19  3.54222e-21        00000 
 3.35886e-19 -1.47125e-20        00000 
-5.68085e-19  2.32698e-20        00000 
 6.44443e-19 -2.82974e-21        00000 
-5.24170e-19 -2.92646e-20        00000 
 2.83993e-19  3.08382e-20        00000 
-9.59230e-20 -1.21813e-20        00000 
 2.53527e-20  1.94922e-21        00000 
-5.71894e-21 -2.33303e-22        00000 
 1.18531e-21  3.17842e-23        00000 
-2.30998e-22 -2.72442e-24        00000 
 4.32329e-23 -3.45785e-25        00000 
-7.89310e-24  2.04437e-26        00000 
 1.41871e-24  7.69162e-27        00000 
-2.52379e-25  2.93634e-28        00000 
 4.44966e-26 -1.08370e-27        00000 
-7.79047e-27  3.57277e-28        00000 
 1.35929e-27 -1.11161e-28        00000 
-2.36650e-28  2.35510e-29        00000 
 4.11198e-29 -5.25511e-30        00000 
-7.12784e-30  7.65941e-31        00000 
 1.23272e-30 -8.66980e-32        00000 
-2.18757e-31 -4.68911e-33        00000 
 7.33103e-32  5.09209e-33        00000 
 9.43246e-24  1.30440e-24        00000 
-2.55368e-23 -3.07749e-24        00000 
 1.23483e-22  1.04954e-23        00000 
-5.83551e-22 -2.56665e-23        00000 
 2.52843e-21  1.09144e-23        00000 
-9.42874e-21  2.06603e-22        00000 
 2.75673e-20 -9.90487e-22        00000 
-5.83849e-20  2.29624e-21        00000 
 8.87790e-20 -2.47564e-21        00000 
-9.94159e-20 -9.18237e-23        00000 
 8.31935e-20  3.45067e-21        00000 
-5.12864e-20 -4.17733e-21        00000 
 2.28190e-20  2.45395e-21        00000 
-7.53753e-21 -7.99690e-22        00000 
 2.04526e-21  1.57707e-22        00000 
-4.85848e-22 -2.52942e-23        00000 
 1.05877e-22  3.79590e-24        00000 
-2.16954e-23 -4.60819e-25        00000 
 4.25649e-24  3.84228e-26        00000 
-8.10191e-25 -5.33364e-27        00000 
 1.50953e-25  9.69459e-28        00000 
-2.76882e-26 -1.76806e-29        00000 
 5.01651e-27 -6.19248e-29        00000 
-9.00240e-28  2.62986e-29        00000 
 1.60439e-28 -8.69745e-30        00000 
-2.84445e-29  2.00516e-30        00000 
 5.02166e-30 -4.28077e-31        00000 
-8.83893e-31  7.45846e-32        00000 
 1.59455e-31 -9.44310e-33        00000 
-5.40794e-32  1.11637e-33        00000 
-4.58163e-24 -4.54995e-25        00000 
 1.14228e-23  8.37677e-25        00000 
-4.95484e-23 -1.96137e-24        00000 
 2.04926e-22  1.76935e-24        00000 
-7.47350e-22  1.08364e-23        00000 
 2.26531e-21 -6.67082e-23        00000 
-5.41299e-21  1.92784e-22        00000 
 9.95678e-21 -3.27052e-22        00000 
-1.41080e-20  2.78417e-22        00000 
 1.55398e-20  5.58264e-23        00000 
-1.33716e-20 -4.52459e-22        00000 
 8.95427e-21  5.82020e-22        00000 
-4.63605e-21 -4.17312e-22        00000 
 1.86684e-21  1.89940e-22        00000 
-6.05274e-22 -5.77613e-23        00000 
 1.67241e-22  1.27525e-23        00000 
-4.11773e-23 -2.36930e-24        00000 
 9.33876e-24  3.96862e-25        00000 
-1.99351e-24 -5.88475e-26        00000 
 4.06867e-25  7.95623e-27        00000 
-8.03188e-26 -1.15161e-27        00000 
 1.54639e-26  1.66075e-28        00000 
-2.92065e-27 -1.45466e-29        00000 
 5.43314e-28 -2.40685e-30        00000 
-9.98599e-29  1.70050e-30        00000 
 1.81808e-29 -6.04493e-31        00000 
-3.28515e-30  1.56760e-31        00000 
 5.90462e-31 -3.49577e-32        00000 
-1.08672e-31  6.67135e-33        00000 
 3.74599e-32 -1.98934e-33        00000 
 1.92917e-24  1.50651e-25        00000 
-4.39874e-24 -1.62030e-25        00000 
 1.68626e-23  1.92728e-25        00000 
-6.04775e-23  5.78151e-25        00000 
 1.87308e-22 -4.48741e-24        00000 
-4.81698e-22  1.52183e-23        00000 
 1.00407e-21 -3.28853e-23        00000 
-1.68156e-21  4.56248e-23        00000 
 2.26457e-21 -3.23349e-23        00000 
-2.46154e-21 -1.27729e-23        00000 
 2.16409e-21  6.31629e-23        00000 
-1.53718e-21 -8.35567e-23        00000 
 8.80302e-22  6.74647e-23        00000 
-4.07357e-22 -3.73968e-23        00000 
 1.54438e-22  1.48650e-23        00000 
-4.93805e-23 -4.40632e-24        00000 
 1.38165e-23  1.03879e-24        00000 
-3.49253e-24 -2.11191e-25        00000 
 8.17656e-25  3.87062e-26        00000 
-1.80522e-25 -6.49111e-27        00000 
 3.80968e-26  1.02837e-27        00000 
-7.76400e-27 -1.61163e-28        00000 
 1.53971e-27  2.41821e-29        00000 
-2.98819e-28 -2.91056e-30        00000 
 5.69933e-29  1.32361e-31        00000 
-1.07178e-29  8.42128e-32        00000 
 1.99254e-30 -3.93671e-32        00000 
-3.67309e-31  1.15299e-32        00000 
 6.92293e-32 -2.83820e-33        00000 
-2.43294e-32  1.11035e-33        00000 
-7.11434e-25 -2.59482e-26        00000 
 1.47872e-24  2.33884e-26        00000 
-4.98107e-24  2.48946e-26        00000 
 1.55965e-23 -2.94929e-25        00000 
-4.20949e-23  1.15791e-24        00000 
 9.56171e-23 -2.95932e-24        00000 
-1.80611e-22  5.29648e-24        00000 
 2.82563e-22 -6.34740e-24        00000 
-3.66272e-22  3.80905e-24        00000 
 3.94036e-22  2.46238e-24        00000 
-3.52172e-22 -9.18636e-24        00000 
 2.61435e-22  1.22980e-23        00000 
-1.61104e-22 -1.07305e-23        00000 
 8.25246e-23  6.77555e-24        00000 
-3.53751e-23 -3.22044e-24        00000 
 1.28801e-23  1.18321e-24        00000 
-4.07592e-24 -3.47313e-25        00000 
 1.15075e-24  8.53581e-26        00000 
-2.96789e-25 -1.84560e-26        00000 
 7.12847e-26  3.62690e-27        00000 
-1.61856e-26 -6.61391e-28        00000 
 3.51471e-27  1.14581e-28        00000 
-7.36547e-28 -1.92095e-29        00000 
 1.50001e-28  3.06570e-30        00000 
-2.98473e-29 -4.32670e-31        00000 
 5.82700e-30  4.50627e-32        00000 
-1.11985e-30  4.97292e-34        00000 
 2.12646e-31 -1.89057e-33        00000 
-4.12103e-32  8.00979e-34        00000 
 1.48108e-32 -4.06869e-34        00000 
 2.33010e-25  3.49849e-27        00000 
-4.41729e-25 -3.18647e-28        00000 
 1.31330e-24 -1.88092e-26        00000 
-3.64975e-24  8.60034e-26        00000 
 8.81318e-24 -2.50608e-25        00000 
-1.81930e-23  5.31839e-25        00000 
 3.18907e-23 -8.28708e-25        00000 
-4.73629e-23  8.84992e-25        00000 
 5.96007e-23 -4.47661e-25        00000 
-6.35976e-23 -4.45414e-25        00000 
 5.75772e-23  1.37491e-24        00000 
-4.42289e-23 -1.84665e-24        00000 
 2.88271e-23  1.70012e-24        00000 
-1.59585e-23 -1.17720e-24        00000 
 7.53228e-24  6.35558e-25        00000 
-3.05642e-24 -2.73336e-25        00000 
 1.08105e-24  9.56191e-26        00000 
-3.39416e-25 -2.79606e-26        00000 
 9.64734e-26  7.07136e-27        00000 
-2.52775e-26 -1.59927e-27        00000 
 6.19978e-27  3.31695e-28        00000 
-1.44126e-27 -6.43135e-29        00000 
 3.20753e-28  1.18604e-29        00000 
-6.88857e-29 -2.10167e-30        00000 
 1.43672e-29  3.55848e-31        00000 
-2.92472e-30 -5.53807e-32        00000 
 5.83487e-31  7.39023e-33        00000 
-1.14584e-31 -6.92441e-34        00000 
 2.29222e-32 -6.26906e-35        00000 
-8.45039e-33  8.29709e-35        00000 
-6.87778e-26 -6.95974e-29        00000 
 1.19754e-25 -1.06461e-27        00000 
-3.17561e-25  6.22722e-27        00000 
 7.97214e-25 -2.04382e-26        00000 
-1.75900e-24  4.94884e-26        00000 
 3.36646e-24 -9.13074e-26        00000 
-5.56415e-24  1.27715e-25        00000 
 7.93062e-24 -1.23738e-25        00000 
-9.74655e-24  5.15072e-26        00000 
 1.03321e-23  7.81926e-26        00000 
-9.45080e-24 -2.10152e-25        00000 
 7.46023e-24  2.81809e-25        00000 
-5.08308e-24 -2.69661e-25        00000 
 2.99201e-24  1.99937e-25        00000 
-1.52515e-24 -1.18728e-25        00000 
 6.76657e-25  5.75300e-26        00000 
-2.63539e-25 -2.31002e-26        00000 
 9.12033e-26  7.82279e-27        00000 
-2.84598e-26 -2.28434e-27        00000 
 8.13137e-27  5.89984e-28        00000 
-2.15783e-27 -1.38082e-28        00000 
 5.38519e-28  2.98746e-29        00000 
-1.27719e-28 -6.07257e-30        00000 
 2.90355e-29  1.17510e-30        00000 
-6.37212e-30 -2.18014e-31        00000 
 1.35774e-30  3.87058e-32        00000 
-2.82215e-31 -6.45830e-33        00000 
 5.75164e-32  9.80389e-34        00000 
-1.19198e-32 -1.23672e-34        00000 
 4.52011e-33  1.81979e-35        00000 
 1.85974e-26 -2.04115e-28        00000 
-3.00461e-26  5.09438e-28        00000 
 7.19626e-26 -1.59750e-27        00000 
-1.65709e-25  4.34889e-27        00000 
 3.39490e-25 -9.11964e-27        00000 
-6.11063e-25  1.52738e-26        00000 
 9.63071e-25 -1.95381e-26        00000 
-1.32761e-24  1.73452e-26        00000 
 1.60045e-24 -5.63018e-27        00000 
-1.68751e-24 -1.35091e-26        00000 
 1.55657e-24  3.26380e-26        00000 
-1.25629e-24 -4.35760e-26        00000 
 8.87400e-25  4.29062e-26        00000 
-5.48996e-25 -3.35264e-26        00000 
 2.97967e-25  2.14317e-26        00000 
-1.42348e-25 -1.13980e-26        00000 
 6.01910e-26  5.10685e-27        00000 
-2.27112e-26 -1.95213e-27        00000 
 7.72746e-27  6.46275e-28        00000 
-2.39954e-27 -1.88663e-28        00000 
 6.88425e-28  4.95205e-29        00000 
-1.84607e-28 -1.19060e-29        00000 
 4.67492e-29  2.66420e-30        00000 
-1.12793e-29 -5.62330e-31        00000 
 2.61228e-30  1.13132e-31        00000 
-5.84394e-31 -2.18243e-32        00000 
 1.26947e-31  4.03622e-33        00000 
-2.69329e-32 -7.09819e-34        00000 
 5.80098e-33  1.18656e-34        00000 
-2.26837e-33 -3.44315e-35        00000 
-4.68116e-27  7.47293e-29        00000 
 7.09294e-27 -1.38641e-28        00000 
-1.55289e-26  3.71733e-28        00000 
 3.32081e-26 -8.61203e-28        00000 
-6.39459e-26  1.63275e-27        00000 
 1.09398e-25 -2.49844e-27        00000 
-1.65774e-25  2.97139e-27        00000 
 2.22294e-25 -2.43104e-27        00000 
-2.63723e-25  5.49090e-28        00000 
 2.76824e-25  2.31273e-27        00000 
-2.57131e-25 -5.13247e-27        00000 
 2.11383e-25  6.81185e-27        00000 
-1.53841e-25 -6.85353e-27        00000 
 9.91785e-26  5.58112e-27        00000 
-5.67081e-26 -3.78310e-27        00000 
 2.88238e-26  2.16761e-27        00000 
-1.30731e-26 -1.06126e-27        00000 
 5.32055e-27  4.48366e-28        00000 
-1.95763e-27 -1.65244e-28        00000 
 6.57100e-28  5.38107e-29        00000 
-2.03230e-28 -1.57122e-29        00000 
 5.85032e-29  4.17754e-30        00000 
-1.58257e-29 -1.02634e-30        00000 
 4.05775e-30  2.36042e-31        00000 
-9.93667e-31 -5.13768e-32        00000 
 2.33918e-31  1.06765e-32        00000 
-5.32355e-32 -2.12916e-33        00000 
 1.17874e-32  4.08197e-34        00000 
-2.64609e-33 -7.68759e-35        00000 
 1.06922e-33  2.59828e-35        00000 
 1.11155e-27 -2.10750e-29        00000 
-1.59532e-27  3.42996e-29        00000 
 3.22796e-27 -7.88715e-29        00000 
-6.47443e-27  1.63465e-28        00000 
 1.18280e-26 -2.84005e-28        00000 
-1.93878e-26  4.04140e-28        00000 
 2.84237e-26 -4.50329e-28        00000 
-3.72382e-26  3.40125e-28        00000 
 4.35861e-26 -3.90805e-29        00000 
-4.55782e-26 -3.93784e-28        00000 
 4.25851e-26  8.15174e-28        00000 
-3.55561e-26 -1.07456e-27        00000 
 2.65363e-26  1.09920e-27        00000 
-1.77114e-26 -9.25332e-28        00000 
 1.05819e-26  6.57812e-28        00000 
-5.66899e-27 -4.00570e-28        00000 
 2.73048e-27  2.10968e-28        00000 
-1.18710e-27 -9.68829e-29        00000 
 4.68374e-28  3.91189e-29        00000 
-1.68844e-28 -1.40199e-29        00000 
 5.60489e-29  4.50902e-30        00000 
-1.72775e-29 -1.31723e-30        00000 
 4.98760e-30  3.53918e-31        00000 
-1.35921e-30 -8.85043e-32        00000 
 3.52251e-31  2.08200e-32        00000 
-8.73847e-32 -4.65009e-33        00000 
 2.08719e-32  9.93212e-34        00000 
-4.83296e-33 -2.04044e-34        00000 
 1.13344e-33  4.16397e-35        00000 
-4.74087e-34 -1.52807e-35        00000 
-2.51751e-28  5.27651e-30        00000 
 3.45195e-28 -7.80288e-30        00000 
-6.51772e-28  1.58703e-29        00000 
 1.23593e-27 -3.00202e-29        00000 
-2.15774e-27  4.84809e-29        00000 
 3.40977e-27 -6.48218e-29        00000 
-4.85994e-27  6.81017e-29        00000 
 6.24189e-27 -4.73794e-29        00000 
-7.22215e-27 -7.58648e-31        00000 
 7.52778e-27  6.68232e-29        00000 
-7.06878e-27 -1.30525e-28        00000 
 5.98078e-27  1.70816e-28        00000 
-4.56046e-27 -1.76999e-28        00000 
 3.13533e-27  1.53094e-28        00000 
-1.94495e-27 -1.13202e-28        00000 
 1.09002e-27  7.25115e-29        00000 
-5.52995e-28 -4.05915e-29        00000 
 2.54698e-28  1.99982e-29        00000 
-1.06922e-28 -8.72950e-30        00000 
 4.11192e-29  3.40095e-30        00000 
-1.45744e-29 -1.19243e-30        00000 
 4.79357e-30  3.79818e-31        00000 
-1.47353e-30 -1.11026e-31        00000 
 4.26381e-31  3.00919e-32        00000 
-1.16936e-31 -7.63705e-33        00000 
 3.05880e-32  1.83106e-33        00000 
-7.67596e-33 -4.18006e-34        00000 
 1.86141e-33  9.15457e-35        00000 
-4.56938e-34 -1.99918e-35        00000 
 1.98099e-34  7.80055e-36        00000 
 5.48652e-29 -1.21684e-30        00000 
-7.23918e-29  1.67399e-30        00000 
 1.28616e-28 -3.07639e-30        00000 
-2.32074e-28  5.38607e-30        00000 
 3.89423e-28 -8.20845e-30        00000 
-5.96184e-28  1.03627e-29        00000 
 8.29284e-28 -1.02978e-29        00000 
-1.04699e-27  6.56426e-30        00000 
 1.19940e-27  1.14651e-30        00000 
-1.24664e-27 -1.13171e-29        00000 
 1.17571e-27  2.10401e-29        00000 
-1.00620e-27 -2.73322e-29        00000 
 7.81612e-28  2.86089e-29        00000 
-5.51282e-28 -2.53064e-29        00000 
 3.53266e-28  1.93398e-29        00000 
-2.05874e-28 -1.29281e-29        00000 
 1.09276e-28  7.62078e-30        00000 