<?xml version="1.0" encoding="utf-8"?>
<VTKFile byte_order="LittleEndian" type="UnstructuredGrid" version="0.1">
   <UnstructuredGrid>
      <Piece NumberOfCells="3364" NumberOfPoints="1741">
         <Points>
            <DataArray Name="Points" NumberOfComponents="3" format="ascii" type="Float32">
0.0000 1.0000 0.0000
0.0000 1.0345 0.0000
0.0000 1.0690 0.0000
0.0000 1.1034 0.0000
0.0000 1.1379 0.0000
0.0000 1.1724 0.0000
0.0000 1.2069 0.0000
0.0000 1.2414 0.0000
0.0000 1.2759 0.0000
0.0000 1.3103 0.0000
0.0000 1.3448 0.0000
0.0000 1.3793 0.0000
0.0000 1.4138 0.0000
0.0000 1.4483 0.0000
0.0000 1.4828 0.0000
0.0000 1.5172 0.0000
0.0000 1.5517 0.0000
0.0000 1.5862 0.0000
0.0000 1.6207 0.0000
0.0000 1.6552 0.0000
0.0000 1.6897 0.0000
0.0000 1.7241 0.0000
0.0000 1.7586 0.0000
0.0000 1.7931 0.0000
0.0000 1.8276 0.0000
0.0000 1.8621 0.0000
0.0000 1.8966 0.0000
0.0000 1.9310 0.0000
0.0000 1.9655 0.0000
0.0000 2.0000 0.0000
0.0690 1.0000 0.0000
0.0690 1.0345 0.0000
0.0690 1.0690 0.0000
0.0690 1.1034 0.0000
0.0690 1.1379 0.0000
0.0690 1.1724 0.0000
0.0690 1.2069 0.0000
0.0690 1.2414 0.0000
0.0690 1.2759 0.0000
0.0690 1.3103 0.0000
0.0690 1.3448 0.0000
0.0690 1.3793 0.0000
0.0690 1.4138 0.0000
0.0690 1.4483 0.0000
0.0690 1.4828 0.0000
0.0690 1.5172 0.0000
0.0690 1.5517 0.0000
0.0690 1.5862 0.0000
0.0690 1.6207 0.0000
0.0690 1.6552 0.0000
0.0690 1.6897 0.0000
0.0690 1.7241 0.0000
0.0690 1.7586 0.0000
0.0690 1.7931 0.0000
0.0690 1.8276 0.0000
0.0690 1.8621 0.0000
0.0690 1.8966 0.0000
0.0690 1.9310 0.0000
0.0690 1.9655 0.0000
0.0690 2.0000 0.0000
0.1379 1.0000 0.0000
0.1379 1.0345 0.0000
0.1379 1.0690 0.0000
0.1379 1.1034 0.0000
0.1379 1.1379 0.0000
0.1379 1.1724 0.0000
0.1379 1.2069 0.0000
0.1379 1.2414 0.0000
0.1379 1.2759 0.0000
0.1379 1.3103 0.0000
0.1379 1.3448 0.0000
0.1379 1.3793 0.0000
0.1379 1.4138 0.0000
0.1379 1.4483 0.0000
0.1379 1.4828 0.0000
0.1379 1.5172 0.0000
0.1379 1.5517 0.0000
0.1379 1.5862 0.0000
0.1379 1.6207 0.0000
0.1379 1.6552 0.0000
0.1379 1.6897 0.0000
0.1379 1.7241 0.0000
0.1379 1.7586 0.0000
0.1379 1.7931 0.0000
0.1379 1.8276 0.0000
0.1379 1.8621 0.0000
0.1379 1.8966 0.0000
0.1379 1.9310 0.0000
0.1379 1.9655 0.0000
0.1379 2.0000 0.0000
0.2069 1.0000 0.0000
0.2069 1.0345 0.0000
0.2069 1.0690 0.0000
0.2069 1.1034 0.0000
0.2069 1.1379 0.0000
0.2069 1.1724 0.0000
0.2069 1.2069 0.0000
0.2069 1.2414 0.0000
0.2069 1.2759 0.0000
0.2069 1.3103 0.0000
0.2069 1.3448 0.0000
0.2069 1.3793 0.0000
0.2069 1.4138 0.0000
0.2069 1.4483 0.0000
0.2069 1.4828 0.0000
0.2069 1.5172 0.0000
0.2069 1.5517 0.0000
0.2069 1.5862 0.0000
0.2069 1.6207 0.0000
0.2069 1.6552 0.0000
0.2069 1.6897 0.0000
0.2069 1.7241 0.0000
0.2069 1.7586 0.0000
0.2069 1.7931 0.0000
0.2069 1.8276 0.0000
0.2069 1.8621 0.0000
0.2069 1.8966 0.0000
0.2069 1.9310 0.0000
0.2069 1.9655 0.0000
0.2069 2.0000 0.0000
0.2759 1.0000 0.0000
0.2759 1.0345 0.0000
0.2759 1.0690 0.0000
0.2759 1.1034 0.0000
0.2759 1.1379 0.0000
0.2759 1.1724 0.0000
0.2759 1.2069 0.0000
0.2759 1.2414 0.0000
0.2759 1.2759 0.0000
0.2759 1.3103 0.0000
0.2759 1.3448 0.0000
0.2759 1.3793 0.0000
0.2759 1.4138 0.0000
0.2759 1.4483 0.0000
0.2759 1.4828 0.0000
0.2759 1.5172 0.0000
0.2759 1.5517 0.0000
0.2759 1.5862 0.0000
0.2759 1.6207 0.0000
0.2759 1.6552 0.0000
0.2759 1.6897 0.0000
0.2759 1.7241 0.0000
0.2759 1.7586 0.0000
0.2759 1.7931 0.0000
0.2759 1.8276 0.0000
0.2759 1.8621 0.0000
0.2759 1.8966 0.0000
0.2759 1.9310 0.0000
0.2759 1.9655 0.0000
0.2759 2.0000 0.0000
0.3448 1.0000 0.0000
0.3448 1.0345 0.0000
0.3448 1.0690 0.0000
0.3448 1.1034 0.0000
0.3448 1.1379 0.0000
0.3448 1.1724 0.0000
0.3448 1.2069 0.0000
0.3448 1.2414 0.0000
0.3448 1.2759 0.0000
0.3448 1.3103 0.0000
0.3448 1.3448 0.0000
0.3448 1.3793 0.0000
0.3448 1.4138 0.0000
0.3448 1.4483 0.0000
0.3448 1.4828 0.0000
0.3448 1.5172 0.0000
0.3448 1.5517 0.0000
0.3448 1.5862 0.0000
0.3448 1.6207 0.0000
0.3448 1.6552 0.0000
0.3448 1.6897 0.0000
0.3448 1.7241 0.0000
0.3448 1.7586 0.0000
0.3448 1.7931 0.0000
0.3448 1.8276 0.0000
0.3448 1.8621 0.0000
0.3448 1.8966 0.0000
0.3448 1.9310 0.0000
0.3448 1.9655 0.0000
0.3448 2.0000 0.0000
0.4138 1.0000 0.0000
0.4138 1.0345 0.0000
0.4138 1.0690 0.0000
0.4138 1.1034 0.0000
0.4138 1.1379 0.0000
0.4138 1.1724 0.0000
0.4138 1.2069 0.0000
0.4138 1.2414 0.0000
0.4138 1.2759 0.0000
0.4138 1.3103 0.0000
0.4138 1.3448 0.0000
0.4138 1.3793 0.0000
0.4138 1.4138 0.0000
0.4138 1.4483 0.0000
0.4138 1.4828 0.0000
0.4138 1.5172 0.0000
0.4138 1.5517 0.0000
0.4138 1.5862 0.0000
0.4138 1.6207 0.0000
0.4138 1.6552 0.0000
0.4138 1.6897 0.0000
0.4138 1.7241 0.0000
0.4138 1.7586 0.0000
0.4138 1.7931 0.0000
0.4138 1.8276 0.0000
0.4138 1.8621 0.0000
0.4138 1.8966 0.0000
0.4138 1.9310 0.0000
0.4138 1.9655 0.0000
0.4138 2.0000 0.0000
0.4828 1.0000 0.0000
0.4828 1.0345 0.0000
0.4828 1.0690 0.0000
0.4828 1.1034 0.0000
0.4828 1.1379 0.0000
0.4828 1.1724 0.0000
0.4828 1.2069 0.0000
0.4828 1.2414 0.0000
0.4828 1.2759 0.0000
0.4828 1.3103 0.0000
0.4828 1.3448 0.0000
0.4828 1.3793 0.0000
0.4828 1.4138 0.0000
0.4828 1.4483 0.0000
0.4828 1.4828 0.0000
0.4828 1.5172 0.0000
0.4828 1.5517 0.0000
0.4828 1.5862 0.0000
0.4828 1.6207 0.0000
0.4828 1.6552 0.0000
0.4828 1.6897 0.0000
0.4828 1.7241 0.0000
0.4828 1.7586 0.0000
0.4828 1.7931 0.0000
0.4828 1.8276 0.0000
0.4828 1.8621 0.0000
0.4828 1.8966 0.0000
0.4828 1.9310 0.0000
0.4828 1.9655 0.0000
0.4828 2.0000 0.0000
0.5517 1.0000 0.0000
0.5517 1.0345 0.0000
0.5517 1.0690 0.0000
0.5517 1.1034 0.0000
0.5517 1.1379 0.0000
0.5517 1.1724 0.0000
0.5517 1.2069 0.0000
0.5517 1.2414 0.0000
0.5517 1.2759 0.0000
0.5517 1.3103 0.0000
0.5517 1.3448 0.0000
0.5517 1.3793 0.0000
0.5517 1.4138 0.0000
0.5517 1.4483 0.0000
0.5517 1.4828 0.0000
0.5517 1.5172 0.0000
0.5517 1.5517 0.0000
0.5517 1.5862 0.0000
0.5517 1.6207 0.0000
0.5517 1.6552 0.0000
0.5517 1.6897 0.0000
0.5517 1.7241 0.0000
0.5517 1.7586 0.0000
0.5517 1.7931 0.0000
0.5517 1.8276 0.0000
0.5517 1.8621 0.0000
0.5517 1.8966 0.0000
0.5517 1.9310 0.0000
0.5517 1.9655 0.0000
0.5517 2.0000 0.0000
0.6207 1.0000 0.0000
0.6207 1.0345 0.0000
0.6207 1.0690 0.0000
0.6207 1.1034 0.0000
0.6207 1.1379 0.0000
0.6207 1.1724 0.0000
0.6207 1.2069 0.0000
0.6207 1.2414 0.0000
0.6207 1.2759 0.0000
0.6207 1.3103 0.0000
0.6207 1.3448 0.0000
0.6207 1.3793 0.0000
0.6207 1.4138 0.0000
0.6207 1.4483 0.0000
0.6207 1.4828 0.0000
0.6207 1.5172 0.0000
0.6207 1.5517 0.0000
0.6207 1.5862 0.0000
0.6207 1.6207 0.0000
0.6207 1.6552 0.0000
0.6207 1.6897 0.0000
0.6207 1.7241 0.0000
0.6207 1.7586 0.0000
0.6207 1.7931 0.0000
0.6207 1.8276 0.0000
0.6207 1.8621 0.0000
0.6207 1.8966 0.0000
0.6207 1.9310 0.0000
0.6207 1.9655 0.0000
0.6207 2.0000 0.0000
0.6897 1.0000 0.0000
0.6897 1.0345 0.0000
0.6897 1.0690 0.0000
0.6897 1.1034 0.0000
0.6897 1.1379 0.0000
0.6897 1.1724 0.0000
0.6897 1.2069 0.0000
0.6897 1.2414 0.0000
0.6897 1.2759 0.0000
0.6897 1.3103 0.0000
0.6897 1.3448 0.0000
0.6897 1.3793 0.0000
0.6897 1.4138 0.0000
0.6897 1.4483 0.0000
0.6897 1.4828 0.0000
0.6897 1.5172 0.0000
0.6897 1.5517 0.0000
0.6897 1.5862 0.0000
0.6897 1.6207 0.0000
0.6897 1.6552 0.0000
0.6897 1.6897 0.0000
0.6897 1.7241 0.0000
0.6897 1.7586 0.0000
0.6897 1.7931 0.0000
0.6897 1.8276 0.0000
0.6897 1.8621 0.0000
0.6897 1.8966 0.0000
0.6897 1.9310 0.0000
0.6897 1.9655 0.0000
0.6897 2.0000 0.0000
0.7586 1.0000 0.0000
0.7586 1.0345 0.0000
0.7586 1.0690 0.0000
0.7586 1.1034 0.0000
0.7586 1.1379 0.0000
0.7586 1.1724 0.0000
0.7586 1.2069 0.0000
0.7586 1.2414 0.0000
0.7586 1.2759 0.0000
0.7586 1.3103 0.0000
0.7586 1.3448 0.0000
0.7586 1.3793 0.0000
0.7586 1.4138 0.0000
0.7586 1.4483 0.0000
0.7586 1.4828 0.0000
0.7586 1.5172 0.0000
0.7586 1.5517 0.0000
0.7586 1.5862 0.0000
0.7586 1.6207 0.0000
0.7586 1.6552 0.0000
0.7586 1.6897 0.0000
0.7586 1.7241 0.0000
0.7586 1.7586 0.0000
0.7586 1.7931 0.0000
0.7586 1.8276 0.0000
0.7586 1.8621 0.0000
0.7586 1.8966 0.0000
0.7586 1.9310 0.0000
0.7586 1.9655 0.0000
0.7586 2.0000 0.0000
0.8276 1.0000 0.0000
0.8276 1.0345 0.0000
0.8276 1.0690 0.0000
0.8276 1.1034 0.0000
0.8276 1.1379 0.0000
0.8276 1.1724 0.0000
0.8276 1.2069 0.0000
0.8276 1.2414 0.0000
0.8276 1.2759 0.0000
0.8276 1.3103 0.0000
0.8276 1.3448 0.0000
0.8276 1.3793 0.0000
0.8276 1.4138 0.0000
0.8276 1.4483 0.0000
0.8276 1.4828 0.0000
0.8276 1.5172 0.0000
0.8276 1.5517 0.0000
0.8276 1.5862 0.0000
0.8276 1.6207 0.0000
0.8276 1.6552 0.0000
0.8276 1.6897 0.0000
0.8276 1.7241 0.0000
0.8276 1.7586 0.0000
0.8276 1.7931 0.0000
0.8276 1.8276 0.0000
0.8276 1.8621 0.0000
0.8276 1.8966 0.0000
0.8276 1.9310 0.0000
0.8276 1.9655 0.0000
0.8276 2.0000 0.0000
0.8966 1.0000 0.0000
0.8966 1.0345 0.0000
0.8966 1.0690 0.0000
0.8966 1.1034 0.0000
0.8966 1.1379 0.0000
0.8966 1.1724 0.0000
0.8966 1.2069 0.0000
0.8966 1.2414 0.0000
0.8966 1.2759 0.0000
0.8966 1.3103 0.0000
0.8966 1.3448 0.0000
0.8966 1.3793 0.0000
0.8966 1.4138 0.0000
0.8966 1.4483 0.0000
0.8966 1.4828 0.0000
0.8966 1.5172 0.0000
0.8966 1.5517 0.0000
0.8966 1.5862 0.0000
0.8966 1.6207 0.0000
0.8966 1.6552 0.0000
0.8966 1.6897 0.0000
0.8966 1.7241 0.0000
0.8966 1.7586 0.0000
0.8966 1.7931 0.0000
0.8966 1.8276 0.0000
0.8966 1.8621 0.0000
0.8966 1.8966 0.0000
0.8966 1.9310 0.0000
0.8966 1.9655 0.0000
0.8966 2.0000 0.0000
0.9655 1.0000 0.0000
0.9655 1.0345 0.0000
0.9655 1.0690 0.0000
0.9655 1.1034 0.0000
0.9655 1.1379 0.0000
0.9655 1.1724 0.0000
0.9655 1.2069 0.0000
0.9655 1.2414 0.0000
0.9655 1.2759 0.0000
0.9655 1.3103 0.0000
0.9655 1.3448 0.0000
0.9655 1.3793 0.0000
0.9655 1.4138 0.0000
0.9655 1.4483 0.0000
0.9655 1.4828 0.0000
0.9655 1.5172 0.0000
0.9655 1.5517 0.0000
0.9655 1.5862 0.0000
0.9655 1.6207 0.0000
0.9655 1.6552 0.0000
0.9655 1.6897 0.0000
0.9655 1.7241 0.0000
0.9655 1.7586 0.0000
0.9655 1.7931 0.0000
0.9655 1.8276 0.0000
0.9655 1.8621 0.0000
0.9655 1.8966 0.0000
0.9655 1.9310 0.0000
0.9655 1.9655 0.0000
0.9655 2.0000 0.0000
1.0345 1.0000 0.0000
1.0345 1.0345 0.0000
1.0345 1.0690 0.0000
1.0345 1.1034 0.0000
1.0345 1.1379 0.0000
1.0345 1.1724 0.0000
1.0345 1.2069 0.0000
1.0345 1.2414 0.0000
1.0345 1.2759 0.0000
1.0345 1.3103 0.0000
1.0345 1.3448 0.0000
[...]
         <PointData>
            <DataArray Name="fValues" NumberOfComponents="3" format="ascii" type="Float64">
-8.74244e-25  9.58527e-25        00000 
-1.75458e-25 -9.65019e-25        00000 
-3.47012e-25 -3.42675e-24        00000 
-4.44716e-24 -1.24477e-23        00000 
 2.77610e-24 -1.70036e-23        00000 
-1.58535e-23 -1.48511e-23        00000 
-2.77610e-23  4.23355e-23        00000 
-2.64213e-23 -2.97850e-22        00000 
       00000 -4.83041e-22        00000 
-4.56004e-22 -2.36420e-22        00000 
-6.66264e-23 -4.44176e-23        00000 
-4.46460e-23 -8.03627e-22        00000 
-1.42136e-21 -1.42136e-21        00000 
 1.25977e-21  4.39365e-21        00000 
-2.13204e-21 -3.73108e-21        00000 
-2.67876e-22 -2.99128e-21        00000 
-8.02293e-22  2.13204e-21        00000 
 5.36812e-22 -7.92966e-22        00000 
 1.39083e-21 -3.55341e-22        00000 
-1.00453e-21 -9.72584e-21        00000 
 3.90875e-21  2.42076e-21        00000 
-5.10745e-22 -6.83542e-22        00000 
 1.06602e-21  3.99758e-22        00000 
 1.07150e-21  2.09278e-23        00000 
-8.88352e-23  1.95437e-21        00000 
-6.67121e-22  8.11909e-21        00000 
 9.77187e-22 -2.13204e-21        00000 
-9.61679e-22 -9.16949e-22        00000 
 6.71979e-22 -3.66788e-21        00000 
-1.57821e-21  1.26952e-21        00000 
-9.58865e-09 -8.77768e-10        00000 
-4.90685e-09 -8.35790e-10        00000 
-1.12897e-08 -2.75819e-09        00000 
-2.41904e-08 -5.05886e-09        00000 
-5.06730e-08 -9.35629e-09        00000 
-1.05821e-07 -1.84750e-08        00000 
-2.20502e-07 -4.01928e-08        00000 
-4.54437e-07 -9.67363e-08        00000 
-9.13906e-07 -2.46270e-07        00000 
-1.76568e-06 -6.23316e-07        00000 
-3.22385e-06 -1.49665e-06        00000 
-5.46950e-06 -3.31719e-06        00000 
-8.46659e-06 -6.68594e-06        00000 
-1.16980e-05 -1.21445e-05        00000 
-1.39760e-05 -1.97446e-05        00000 
-1.36042e-05 -2.85335e-05        00000 
-9.09941e-06 -3.63239e-05        00000 
-2.91941e-07 -4.01632e-05        00000 
 1.08998e-05 -3.75659e-05        00000 
 2.08370e-05 -2.79549e-05        00000 
 2.58136e-05 -1.33697e-05        00000 
 2.40653e-05  2.18630e-06        00000 
 1.67407e-05  1.45056e-05        00000 
 7.13347e-06  2.10067e-05        00000 
-1.20927e-06  2.15684e-05        00000 
-6.14625e-06  1.80352e-05        00000 
-7.41047e-06  1.29203e-05        00000 
-6.07946e-06  8.05114e-06        00000 
-3.73815e-06  3.66736e-06        00000 
-1.27964e-05  2.85168e-06        00000 
 1.02448e-08  1.93085e-09        00000 
 6.53498e-09  2.42432e-09        00000 
 1.23922e-08  3.86042e-09        00000 
 2.66694e-08  6.70529e-09        00000 
 5.55436e-08  1.18689e-08        00000 
 1.15090e-07  2.24588e-08        00000 
 2.38427e-07  4.87407e-08        00000 
 4.91414e-07  1.24062e-07        00000 
 9.97212e-07  3.44756e-07        00000 
 1.96431e-06  9.52329e-07        00000 
 3.69344e-06  2.46552e-06        00000 
 6.50693e-06  5.81942e-06        00000 
 1.05223e-05  1.23666e-05        00000 
 1.52446e-05  2.34949e-05        00000 
 1.91454e-05  3.96785e-05        00000 
 1.96788e-05  5.91762e-05        00000 
 1.42388e-05  7.72330e-05        00000 
 1.99840e-06  8.69305e-05        00000 
-1.44803e-05  8.20875e-05        00000 
-2.95084e-05  6.09413e-05        00000 
-3.69831e-05  2.81308e-05        00000 
-3.39797e-05 -6.81549e-06        00000 
-2.25163e-05 -3.38995e-05        00000 
-8.10292e-06 -4.72422e-05        00000 
 3.67678e-06 -4.70186e-05        00000 
 9.89968e-06 -3.79619e-05        00000 
 1.07454e-05 -2.60198e-05        00000 
 8.17102e-06 -1.55241e-05        00000 
 6.37147e-06 -8.68066e-06        00000 
 1.39006e-05 -5.96037e-06        00000 
-9.32984e-09 -2.83097e-09        00000 
-6.17643e-09 -3.79789e-09        00000 
-1.13646e-08 -5.38567e-09        00000 
-2.41190e-08 -9.16098e-09        00000 
-4.96751e-08 -1.63655e-08        00000 
-1.01427e-07 -3.07000e-08        00000 
-2.07448e-07 -6.43081e-08        00000 
-4.25970e-07 -1.57021e-07        00000 
-8.74858e-07 -4.28360e-07        00000 
-1.77814e-06 -1.19455e-06        00000 
-3.51442e-06 -3.18002e-06        00000 
-6.60279e-06 -7.79193e-06        00000 
-1.14887e-05 -1.72575e-05        00000 
-1.79808e-05 -3.41854e-05        00000 
-2.44203e-05 -6.00658e-05        00000 
-2.72204e-05 -9.28107e-05        00000 
-2.18773e-05 -1.24752e-04        00000 
-5.93981e-06 -1.43528e-04        00000 
 1.76327e-05 -1.37232e-04        00000 
 4.00550e-05 -1.01748e-04        00000 
 5.11352e-05 -4.51236e-05        00000 
 4.59236e-05  1.50900e-05        00000 
 2.80746e-05  6.05138e-05        00000 
 6.96374e-06  8.09278e-05        00000 
-8.71501e-06  7.76982e-05        00000 
-1.54392e-05  6.02708e-05        00000 
-1.47476e-05  3.94598e-05        00000 
-1.04396e-05  2.25832e-05        00000 
-7.36808e-06  1.25629e-05        00000 
-1.29292e-05  8.14502e-06        00000 
 7.76000e-09  3.63395e-09        00000 
 5.20915e-09  4.92737e-09        00000 
 9.48894e-09  6.89877e-09        00000 
 1.98810e-08  1.18899e-08        00000 
 4.02481e-08  2.18244e-08        00000 
 8.03126e-08  4.14147e-08        00000 
 1.60446e-07  8.40303e-08        00000 
 3.25158e-07  1.90698e-07        00000 
 6.74654e-07  4.85239e-07        00000 
 1.42966e-06  1.31200e-06        00000 
 3.03572e-06  3.52197e-06        00000 
 6.25542e-06  8.93099e-06        00000 
 1.20539e-05  2.07563e-05        00000 
 2.09211e-05  4.33817e-05        00000 
 3.14186e-05  8.04017e-05        00000 
 3.86608e-05  1.30463e-04        00000 
 3.48573e-05  1.82764e-04        00000 
 1.39563e-05  2.16924e-04        00000 
-2.13244e-05  2.11230e-04        00000 
-5.68340e-05  1.56565e-04        00000 
-7.43499e-05  6.57907e-05        00000 
-6.48261e-05 -3.05330e-05        00000 
-3.53736e-05 -1.00489e-04        00000 
-3.04879e-06 -1.27681e-04        00000 
 1.80337e-05 -1.16830e-04        00000 
 2.42366e-05 -8.58386e-05        00000 
 2.02906e-05 -5.28560e-05        00000 
 1.29580e-05 -2.83611e-05        00000 
 7.86957e-06 -1.49920e-05        00000 
 1.07758e-05 -9.29039e-06        00000 
-5.80845e-09 -4.26350e-09        00000 
-3.92888e-09 -5.79973e-09        00000 
-7.11622e-09 -8.18220e-09        00000 
-1.46965e-08 -1.44298e-08        00000 
-2.90568e-08 -2.73250e-08        00000 
-5.59876e-08 -5.29208e-08        00000 
-1.07229e-07 -1.05600e-07        00000 
-2.10023e-07 -2.23695e-07        00000 
-4.35727e-07 -5.17776e-07        00000 
-9.74927e-07 -1.30688e-06        00000 
-2.29817e-06 -3.45130e-06        00000 
-5.40200e-06 -9.01333e-06        00000 
-1.19440e-05 -2.21879e-05        00000 
-2.36572e-05 -4.97503e-05        00000 
-4.01810e-05 -9.91310e-05        00000 
-5.55340e-05 -1.72074e-04        00000 
-5.66740e-05 -2.55305e-04        00000 
-2.98964e-05 -3.16537e-04        00000 
 2.47502e-05 -3.16423e-04        00000 
 8.40574e-05 -2.34950e-04        00000 
 1.13502e-04 -9.19640e-05        00000 
 9.53349e-05  5.93588e-05        00000 
 4.43099e-05  1.63648e-04        00000 
-6.76878e-06  1.95427e-04        00000 
-3.45804e-05  1.67863e-04        00000 
-3.75138e-05  1.14604e-04        00000 
-2.72377e-05  6.48700e-05        00000 
-1.52785e-05  3.17688e-05        00000 
-7.75284e-06  1.55554e-05        00000 
-7.57378e-06  9.13430e-06        00000 
 3.59088e-09  4.68761e-09        00000 
 2.44354e-09  6.39617e-09        00000 
 4.39082e-09  9.12894e-09        00000 
 8.86781e-09  1.64824e-08        00000 
 1.68343e-08  3.21391e-08        00000 
 3.03302e-08  6.37100e-08        00000 
 5.26974e-08  1.26940e-07        00000 
 9.27461e-08  2.56461e-07        00000 
 1.84429e-07  5.39332e-07        00000 
 4.56507e-07  1.22348e-06        00000 
 1.32675e-06  3.03930e-06        00000 
 3.91481e-06  8.00417e-06        00000 
 1.06069e-05  2.09739e-05        00000 
 2.50399e-05  5.14640e-05        00000 
 4.96181e-05  1.13054e-04        00000 
 7.88910e-05  2.15226e-04        00000 
 9.26080e-05  3.45664e-04        00000 
 6.15340e-05  4.55410e-04        00000 
-2.45812e-05  4.72652e-04        00000 
-1.28376e-04  3.52973e-04        00000 
-1.80905e-04  1.26083e-04        00000 
-1.44711e-04 -1.13258e-04        00000 
-5.25093e-05 -2.66697e-04        00000 
 2.93567e-05 -2.95559e-04        00000 
 6.30696e-05 -2.33664e-04        00000 
 5.61350e-05 -1.44419e-04        00000 
 3.45451e-05 -7.27607e-05        00000 
 1.63621e-05 -3.13632e-05        00000 
 6.58678e-06 -1.38994e-05        00000 
 3.42234e-06 -7.67002e-06        00000 
-1.20351e-09 -4.89311e-09        00000 
-8.28063e-10 -6.70040e-09        00000 
-1.43808e-09 -9.67508e-09        00000 
-2.64348e-09 -1.78303e-08        00000 
-4.09339e-09 -3.56244e-08        00000 
-4.49227e-09 -7.21858e-08        00000 
 1.53553e-10 -1.45115e-07        00000 
 1.80561e-08 -2.87010e-07        00000 
 5.53400e-08 -5.61789e-07        00000 
 7.02251e-08 -1.12511e-06        00000 
-2.06792e-07 -2.45921e-06        00000 
-1.79060e-06 -6.15355e-06        00000 
-7.51887e-06 -1.69510e-05        00000 
-2.33029e-05 -4.65566e-05        00000 
-5.68299e-05 -1.16818e-04        00000 
-1.07935e-04 -2.52839e-04        00000 
-1.49856e-04 -4.53676e-04        00000 
-1.24316e-04 -6.51284e-04        00000 
 1.07711e-05 -7.13918e-04        00000 
 2.00664e-04 -5.40167e-04        00000 
 3.00535e-04 -1.71544e-04        00000 
 2.24752e-04  2.15813e-04        00000 
 5.14085e-05  4.39645e-04        00000 
-7.88089e-05  4.44062e-04        00000 
-1.09979e-04  3.14031e-04        00000 
-7.92246e-05  1.68964e-04        00000 
-3.95451e-05  7.19665e-05        00000 
-1.46601e-05  2.56807e-05        00000 
-3.95636e-06  1.00739e-05        00000 
 1.29429e-06  5.28483e-06        00000 
-1.25279e-09  4.87571e-09        00000 
-8.41653e-10  6.70321e-09        00000 
-1.60568e-09  9.78405e-09        00000 
-3.71258e-09  1.83310e-08        00000 
-8.69589e-09  3.73008e-08        00000 
-2.07252e-08  7.69379e-08        00000 
-4.97274e-08  1.56715e-07        00000 
-1.17632e-07  3.09732e-07        00000 
-2.66072e-07  5.85861e-07        00000 
-5.46959e-07  1.06111e-06        00000 
-9.12106e-07  1.92876e-06        00000 
-7.40194e-07  4.01874e-06        00000 
 2.58342e-06  1.08125e-05        00000 
 1.65595e-05  3.40012e-05        00000 
 5.63228e-05  1.03333e-04        00000 
 1.36477e-04  2.69728e-04        00000 
 2.34780e-04  5.68562e-04        00000 
 2.47465e-04  9.25386e-04        00000 
 4.56479e-05  1.10208e-03        00000 
-3.15651e-04  8.57000e-04        00000 
-5.18778e-04  2.33278e-04        00000 
-3.51406e-04 -4.19172e-04        00000 
-1.43492e-05 -7.39207e-04        00000 
 1.82278e-04 -6.60491e-04        00000 
 1.80797e-04 -3.98958e-04        00000 
 1.00779e-04 -1.74637e-04        00000 
 3.72844e-05 -5.66223e-05        00000 
 8.65069e-06 -1.42570e-05        00000 
-1.20933e-07 -4.92266e-06        00000 
-5.84903e-06 -2.77935e-06        00000 
 3.67186e-09 -4.63722e-09        00000 
 2.48576e-09 -6.40349e-09        00000 
 4.59457e-09 -9.44227e-09        00000 
 9.91762e-09 -1.79210e-08        00000 
 2.10509e-08 -3.69242e-08        00000 
 4.46440e-08 -7.71022e-08        00000 
 9.52940e-08 -1.58981e-07        00000 
 2.04851e-07 -3.17348e-07        00000 
 4.40947e-07 -5.99037e-07        00000 
 9.33782e-07 -1.03803e-06        00000 
 1.86885e-06 -1.60374e-06        00000 
 3.22310e-06 -2.29031e-06        00000 
 3.50801e-06 -4.30363e-06        00000 
-4.30397e-06 -1.55993e-05        00000 
-4.07886e-05 -6.70578e-05        00000 
-1.47122e-04 -2.40043e-04        00000 
-3.40482e-04 -6.52617e-04        00000 
-4.79004e-04 -1.29069e-03        00000 
-2.25698e-04 -1.75635e-03        00000 
 4.74163e-04 -1.44679e-03        00000 
 9.13394e-04 -3.18771e-04        00000 
 5.26007e-04  8.54585e-04        00000 
-1.36285e-04  1.27790e-03        00000 
-3.84687e-04  9.56806e-04        00000 
-2.67836e-04  4.53210e-04        00000 
-1.04248e-04  1.38524e-04        00000 
-2.15076e-05  2.29045e-05        00000 
 1.63572e-06 -6.26612e-07        00000 
 4.83709e-06  1.68813e-07        00000 
 9.39914e-06  1.07882e-06        00000 
-5.94559e-09  4.18590e-09        00000 
-4.02240e-09  5.80786e-09        00000 
-7.38089e-09  8.65696e-09        00000 
-1.56836e-08  1.66078e-08        00000 
-3.24661e-08  3.44864e-08        00000 
-6.65403e-08  7.25107e-08        00000 
-1.36273e-07  1.50765e-07        00000 
-2.80432e-07  3.04504e-07        00000 
-5.82652e-07  5.83263e-07        00000 
-1.22331e-06  1.01726e-06        00000 
-2.56583e-06  1.48522e-06        00000 
-5.18953e-06  1.41074e-06        00000 
-9.27301e-06 -3.73424e-07        00000 
-1.13046e-05 -2.94776e-06        00000 
 8.37592e-06  1.27369e-05        00000 
 1.06799e-04  1.34768e-04        00000 
 4.14265e-04  6.13261e-04        00000 
 8.59523e-04  1.70091e-03        00000 
 7.51602e-04  2.91337e-03        00000 
-5.54519e-04  2.71495e-03        00000 
-1.51370e-03  4.39606e-04        00000 
-6.20580e-04 -1.90772e-03        00000 
 6.18689e-04 -2.28351e-03        00000 
 7.22832e-04 -1.28807e-03        00000 
 3.18703e-04 -3.90246e-04        00000 
 5.89605e-05 -3.66623e-05        00000 
-7.88256e-06  2.23625e-05        00000 
-1.34266e-05  1.31630e-05        00000 
-8.66881e-06  2.32234e-06        00000 
-1.14692e-05 -6.28459e-07        00000 
 7.96149e-09 -3.53991e-09        00000 
 5.36227e-09 -4.92825e-09        00000 
 9.81493e-09 -7.45821e-09        00000 
 2.07218e-08 -1.44645e-08        00000 
 4.24083e-08 -3.01704e-08        00000 
 8.55422e-08 -6.35957e-08        00000 
 1.71633e-07 -1.32722e-07        00000 
 3.44514e-07 -2.70333e-07        00000 
 6.96810e-07 -5.26847e-07        00000 
 1.43240e-06 -9.46198e-07        00000 
 3.00887e-06 -1.43065e-06        00000 
 6.40250e-06 -1.26883e-06        00000 
 1.33617e-05  2.05195e-06        00000 
 2.50383e-05  1.43033e-05        00000 
 3.44840e-05  3.92997e-05        00000 
-1.52651e-05  3.02523e-05        00000 
-2.60581e-04 -2.88821e-04        00000 
-1.31166e-03 -1.88437e-03        00000 
-2.08993e-03 -4.98876e-03        00000 
-3.63361e-04 -6.01199e-03        00000 
 1.66490e-03 -6.09672e-04        00000 
-3.27043e-04  4.88065e-03        00000 
-1.90183e-03  4.15993e-03        00000 
-1.11951e-03  1.39131e-03        00000 
-1.43855e-04  6.15353e-05        00000 
 3.02779e-05 -1.07129e-04        00000 
 4.14662e-05 -5.69738e-05        00000 
 2.14612e-05 -1.69074e-05        00000 
 1.04016e-05 -2.08430e-06        00000 
 1.22195e-05  9.75954e-07        00000 
-9.57029e-09  2.73702e-09        00000 
-6.36585e-09  3.76865e-09        00000 
-1.17037e-08  5.90643e-09        00000 
-2.46645e-08  1.16349e-08        00000 
-5.01566e-08  2.43092e-08        00000 
-1.00304e-07  5.11907e-08        00000 
-1.99080e-07  1.06797e-07        00000 
-3.94054e-07  2.18292e-07        00000 
-7.82752e-07  4.30793e-07        00000 
-1.57574e-06  7.96805e-07        00000 
-3.25329e-06  1.28056e-06        00000 
-6.95042e-06  1.33444e-06        00000 
-1.52391e-05 -1.55031e-06        00000 
-3.34566e-05 -1.57967e-05        00000 
-6.71336e-05 -6.27168e-05        00000 
-1.16340e-04 -1.70075e-04        00000 
-8.15744e-06 -2.16758e-04        00000 
 2.62425e-04  8.06631e-04        00000 
 5.95665e-03  8.19369e-03        00000 
 5.74082e-03  1.61158e-02        00000 
 6.06119e-03  7.97547e-04        00000 
 5.99392e-03 -1.43278e-02        00000 
 5.74646e-03 -7.11123e-03        00000 
 5.25320e-05 -2.51209e-04        00000 
-1.35694e-04  4.07631e-04        00000 
-1.31397e-04  1.94517e-04        00000 
-5.81238e-05  5.66336e-05        00000 
-2.29050e-05  1.14446e-05        00000 
-9.79931e-06  8.27935e-07        00000 
-1.20434e-05 -1.17656e-06        00000 
 1.04213e-08 -1.84011e-09        00000 
 6.66208e-09 -2.24819e-09        00000 
 1.25844e-08 -4.03798e-09        00000 
 2.65979e-08 -8.19775e-09        00000 
 5.38329e-08 -1.70740e-08        00000 
 1.07135e-07 -3.58064e-08        00000 
 2.11446e-07 -7.44317e-08        00000 
 4.15530e-07 -1.51965e-07        00000 
 8.17021e-07 -3.01617e-07        00000 
 1.62030e-06 -5.69120e-07        00000 
 3.28301e-06 -9.59908e-07        00000 
 6.90205e-06 -1.14970e-06        00000 
 1.52662e-05  6.70864e-07        00000 
 3.52037e-05  1.15660e-05        00000 
 8.43632e-05  5.35495e-05        00000 
 1.88208e-04  1.81422e-04        00000 
 4.71260e-04  4.64219e-04        00000 
 2.44393e-04  5.23938e-04        00000 
 3.42222e-03 -4.04250e-03        00000 
-5.68780e-02 -4.85537e-02        00000 
-4.34825e-02 -5.26420e-04        00000 
-5.84758e-02  4.44638e-02        00000 
 2.85404e-03  2.61907e-03        00000 
 5.53916e-04 -1.26543e-03        00000 
 4.00457e-04 -5.11945e-04        00000 
 1.38992e-04 -1.36898e-04        00000 
 4.97729e-05 -2.83979e-05        00000 
 1.75565e-05 -4.79052e-06        00000 
 6.56961e-06 -1.33677e-06        00000 
 1.02556e-05  4.50636e-07        00000 
-9.38378e-09  5.92612e-10        00000 
-4.85643e-09 -3.29909e-10        00000 
-1.09279e-08  9.07720e-10        00000 
-2.28813e-08  2.07617e-09        00000 
-4.61596e-08  4.43016e-09        00000 
-9.16318e-08  9.57575e-09        00000 
-1.80383e-07  2.04064e-08        00000 
-3.53385e-07  4.23590e-08        00000 
-6.91628e-07  8.47009e-08        00000 
-1.36095e-06  1.58540e-07        00000 
-2.72239e-06  2.50815e-07        00000 
-5.63838e-06  1.75893e-07        00000 
-1.23591e-05 -1.08766e-06        00000 
-2.93425e-05 -7.66692e-06        00000 
-7.41163e-05 -3.24968e-05        00000 
-2.03188e-04 -9.69445e-05        00000 
-4.90202e-04 -1.91507e-04        00000 
-1.60711e-03  8.03910e-05        00000 
 1.60705e-03  3.76560e-05        00000 
-2.86544e-02  6.33095e-03        00000 
 8.62914e-01 -6.66927e-03        00000 
-1.07797e-02  1.20964e-02        00000 
 2.45539e-05  4.70128e-03        00000 
 6.79836e-06  1.30432e-03        00000 
 4.79769e-06  3.53820e-04        00000 
 1.70589e-06  1.07120e-04        00000 
 6.12409e-07  3.95728e-05        00000 
 2.16593e-07  1.77501e-05        00000 
 8.38239e-08  9.70031e-06        00000 
 4.99155e-07  3.40495e-06        00000 
-4.74401e-10  3.29958e-09        00000 
-6.21155e-11  9.12332e-09        00000 
-1.33496e-10  1.57376e-08        00000 
-2.79337e-10  3.02419e-08        00000 
-5.63448e-10  5.98345e-08        00000 
-1.11843e-09  1.18905e-07        00000 
-2.20165e-09  2.35537e-07        00000 
-4.31345e-09  4.64246e-07        00000 
-8.44382e-09  9.10871e-07        00000 
-1.66235e-08  1.78233e-06        00000 
-3.32850e-08  3.49118e-06        00000 
-6.90406e-08  6.89814e-06        00000 
-1.51637e-07  1.39686e-05        00000 
-3.60371e-07  2.98601e-05        00000 
-9.11408e-07  7.00407e-05        00000 
-2.48265e-06  1.83626e-04        00000 
-6.04162e-06  5.13017e-04        00000 
-1.87061e-05  1.39032e-03        00000 
 1.57540e-05  3.07829e-03        00000 
-2.08931e-04  5.49123e-03        00000 
 1.00883e-02 -3.22590e-18        00000 
-5.62787e-18 -9.96561e-18        00000 
 1.25059e-18  9.41950e-19        00000 
-2.69766e-19 -9.54451e-20        00000 
 7.32467e-20 -8.94425e-21        00000 
-1.11938e-20  1.22694e-22        00000 
 1.96071e-21  4.02417e-21        00000 
-2.46283e-22  5.31955e-23        00000 
 2.53612e-23  2.09391e-24        00000 
 1.11044e-23 -8.88352e-23        00000 
-6.04358e-26 -2.58738e-25        00000 
 4.55872e-26  3.07231e-25        00000 
 1.75757e-26 -6.79076e-25        00000 
-1.36323e-25  1.67451e-24        00000 
-1.55936e-25  5.24865e-25        00000 
 8.56806e-25  3.93188e-24        00000 
-2.05147e-24 -1.47977e-23        00000 
 1.34748e-24  3.33184e-23        00000 
 2.29172e-24 -8.24029e-23        00000 
-7.89036e-24  1.89801e-23        00000 
 2.40660e-23  6.65448e-24        00000 
-3.01679e-23 -4.61821e-23        00000 
-3.01353e-23 -3.03065e-22        00000 
 3.68307e-23  4.41896e-22        00000 
-4.76010e-22 -2.79679e-22        00000 
 6.20895e-21 -4.44248e-21        00000 
-4.15256e-20  5.05071e-20        00000 