<?xml version="1.0" encoding="utf-8"?>
<VTKFile byte_order="LittleEndian" type="UnstructuredGrid" version="0.1">
   <UnstructuredGrid>
      <Piece NumberOfCells="3364" NumberOfPoints="1741">
         <Points>
            <DataArray Name="Points" NumberOfComponents="3" format="ascii" type="Float32">
0.0000 1.0000 0.0000
0.0000 1.0345 0.0000
0.0000 1.0690 0.0000
0.0000 1.1034 0.0000
0.0000 1.1379 0.0000
0.0000 1.1724 0.0000
0.0000 1.2069 0.0000
0.0000 1.2414 0.0000
0.0000 1.2759 0.0000
0.0000 1.3103 0.0000
0.0000 1.3448 0.0000
0.0000 1.3793 0.0000
0.0000 1.4138 0.0000
0.0000 1.4483 0.0000
0.0000 1.4828 0.0000
0.0000 1.5172 0.0000
0.0000 1.5517 0.0000
0.0000 1.5862 0.0000
0.0000 1.6207 0.0000
0.0000 1.6552 0.0000
0.0000 1.6897 0.0000
0.0000 1.7241 0.0000
0.0000 1.7586 0.0000
0.0000 1.7931 0.0000
0.0000 1.8276 0.0000
0.0000 1.8621 0.0000
0.0000 1.8966 0.0000
0.0000 1.9310 0.0000
0.0000 1.9655 0.0000
0.0000 2.0000 0.0000
0.0690 1.0000 0.0000
0.0690 1.0345 0.0000
0.0690 1.0690 0.0000
0.0690 1.1034 0.0000
0.0690 1.1379 0.0000
0.0690 1.1724 0.0000
0.0690 1.2069 0.0000
0.0690 1.2414 0.0000
0.0690 1.2759 0.0000
0.0690 1.3103 0.0000
0.0690 1.3448 0.0000
0.0690 1.3793 0.0000
0.0690 1.4138 0.0000
0.0690 1.4483 0.0000
0.0690 1.4828 0.0000
0.0690 1.5172 0.0000
0.0690 1.5517 0.0000
0.0690 1.5862 0.0000
0.0690 1.6207 0.0000
0.0690 1.6552 0.0000
0.0690 1.6897 0.0000
0.0690 1.7241 0.0000
0.0690 1.7586 0.0000
0.0690 1.7931 0.0000
0.0690 1.8276 0.0000
0.0690 1.8621 0.0000
0.0690 1.8966 0.0000
0.0690 1.9310 0.0000
0.0690 1.9655 0.0000
0.0690 2.0000 0.0000
0.1379 1.0000 0.0000
0.1379 1.0345 0.0000
0.1379 1.0690 0.0000
0.1379 1.1034 0.0000
0.1379 1.1379 0.0000
0.1379 1.1724 0.0000
0.1379 1.2069 0.0000
0.1379 1.2414 0.0000
0.1379 1.2759 0.0000
0.1379 1.3103 0.0000
0.1379 1.3448 0.0000
0.1379 1.3793 0.0000
0.1379 1.4138 0.0000
0.1379 1.4483 0.0000
0.1379 1.4828 0.0000
0.1379 1.5172 0.0000
0.1379 1.5517 0.0000
0.1379 1.5862 0.0000
0.1379 1.6207 0.0000
0.1379 1.6552 0.0000
0.1379 1.6897 0.0000
0.1379 1.7241 0.0000
0.1379 1.7586 0.0000
0.1379 1.7931 0.0000
0.1379 1.8276 0.0000
0.1379 1.8621 0.0000
0.1379 1.8966 0.0000
0.1379 1.9310 0.0000
0.1379 1.9655 0.0000
0.1379 2.0000 0.0000
0.2069 1.0000 0.0000
0.2069 1.0345 0.0000
0.2069 1.0690 0.0000
0.2069 1.1034 0.0000
0.2069 1.1379 0.0000
0.2069 1.1724 0.0000
0.2069 1.2069 0.0000
0.2069 1.2414 0.0000
0.2069 1.2759 0.0000
0.2069 1.3103 0.0000
0.2069 1.3448 0.0000
0.2069 1.3793 0.0000
0.2069 1.4138 0.0000
0.2069 1.4483 0.0000
0.2069 1.4828 0.0000
0.2069 1.5172 0.0000
0.2069 1.5517 0.0000
0.2069 1.5862 0.0000
0.2069 1.6207 0.0000
0.2069 1.6552 0.0000
0.2069 1.6897 0.0000
0.2069 1.7241 0.0000
0.2069 1.7586 0.0000
0.2069 1.7931 0.0000
0.2069 1.8276 0.0000
0.2069 1.8621 0.0000
0.2069 1.8966 0.0000
0.2069 1.9310 0.0000
0.2069 1.9655 0.0000
0.2069 2.0000 0.0000
0.2759 1.0000 0.0000
0.2759 1.0345 0.0000
0.2759 1.0690 0.0000
0.2759 1.1034 0.0000
0.2759 1.1379 0.0000
0.2759 1.1724 0.0000
0.2759 1.2069 0.0000
0.2759 1.2414 0.0000
0.2759 1.2759 0.0000
0.2759 1.3103 0.0000
0.2759 1.3448 0.0000
0.2759 1.3793 0.0000
0.2759 1.4138 0.0000
0.2759 1.4483 0.0000
0.2759 1.4828 0.0000
0.2759 1.5172 0.0000
0.2759 1.5517 0.0000
0.2759 1.5862 0.0000
0.2759 1.6207 0.0000
0.2759 1.6552 0.0000
0.2759 1.6897 0.0000
0.2759 1.7241 0.0000
0.2759 1.7586 0.0000
0.2759 1.7931 0.0000
0.2759 1.8276 0.0000
0.2759 1.8621 0.0000
0.2759 1.8966 0.0000
0.2759 1.9310 0.0000
0.2759 1.9655 0.0000
0.2759 2.0000 0.0000
0.3448 1.0000 0.0000
0.3448 1.0345 0.0000
0.3448 1.0690 0.0000
0.3448 1.1034 0.0000
0.3448 1.1379 0.0000
0.3448 1.1724 0.0000
0.3448 1.2069 0.0000
0.3448 1.2414 0.0000
0.3448 1.2759 0.0000
0.3448 1.3103 0.0000
0.3448 1.3448 0.0000
0.3448 1.3793 0.0000
0.3448 1.4138 0.0000
0.3448 1.4483 0.0000
0.3448 1.4828 0.0000
0.3448 1.5172 0.0000
0.3448 1.5517 0.0000
0.3448 1.5862 0.0000
0.3448 1.6207 0.0000
0.3448 1.6552 0.0000
0.3448 1.6897 0.0000
0.3448 1.7241 0.0000
0.3448 1.7586 0.0000
0.3448 1.7931 0.0000
0.3448 1.8276 0.0000
0.3448 1.8621 0.0000
0.3448 1.8966 0.0000
0.3448 1.9310 0.0000
0.3448 1.9655 0.0000
0.3448 2.0000 0.0000
0.4138 1.0000 0.0000
0.4138 1.0345 0.0000
0.4138 1.0690 0.0000
0.4138 1.1034 0.0000
0.4138 1.1379 0.0000
0.4138 1.1724 0.0000
0.4138 1.2069 0.0000
0.4138 1.2414 0.0000
0.4138 1.2759 0.0000
0.4138 1.3103 0.0000
0.4138 1.3448 0.0000
0.4138 1.3793 0.0000
0.4138 1.4138 0.0000
0.4138 1.4483 0.0000
0.4138 1.4828 0.0000
0.4138 1.5172 0.0000
0.4138 1.5517 0.0000
0.4138 1.5862 0.0000
0.4138 1.6207 0.0000
0.4138 1.6552 0.0000
0.4138 1.6897 0.0000
0.4138 1.7241 0.0000
0.4138 1.7586 0.0000
0.4138 1.7931 0.0000
0.4138 1.8276 0.0000
0.4138 1.8621 0.0000
0.4138 1.8966 0.0000
0.4138 1.9310 0.0000
0.4138 1.9655 0.0000
0.4138 2.0000 0.0000
0.4828 1.0000 0.0000
0.4828 1.0345 0.0000
0.4828 1.0690 0.0000
0.4828 1.1034 0.0000
0.4828 1.1379 0.0000
0.4828 1.1724 0.0000
0.4828 1.2069 0.0000
0.4828 1.2414 0.0000
0.4828 1.2759 0.0000
0.4828 1.3103 0.0000
0.4828 1.3448 0.0000
0.4828 1.3793 0.0000
0.4828 1.4138 0.0000
0.4828 1.4483 0.0000
0.4828 1.4828 0.0000
0.4828 1.5172 0.0000
0.4828 1.5517 0.0000
0.4828 1.5862 0.0000
0.4828 1.6207 0.0000
0.4828 1.6552 0.0000
0.4828 1.6897 0.0000
0.4828 1.7241 0.0000
0.4828 1.7586 0.0000
0.4828 1.7931 0.0000
0.4828 1.8276 0.0000
0.4828 1.8621 0.0000
0.4828 1.8966 0.0000
0.4828 1.9310 0.0000
0.4828 1.9655 0.0000
0.4828 2.0000 0.0000
0.5517 1.0000 0.0000
0.5517 1.0345 0.0000
0.5517 1.0690 0.0000
0.5517 1.1034 0.0000
0.5517 1.1379 0.0000
0.5517 1.1724 0.0000
0.5517 1.2069 0.0000
0.5517 1.2414 0.0000
0.5517 1.2759 0.0000
0.5517 1.3103 0.0000
0.5517 1.3448 0.0000
0.5517 1.3793 0.0000
0.5517 1.4138 0.0000
0.5517 1.4483 0.0000
0.5517 1.4828 0.0000
0.5517 1.5172 0.0000
0.5517 1.5517 0.0000
0.5517 1.5862 0.0000
0.5517 1.6207 0.0000
0.5517 1.6552 0.0000
0.5517 1.6897 0.0000
0.5517 1.7241 0.0000
0.5517 1.7586 0.0000
0.5517 1.7931 0.0000
0.5517 1.8276 0.0000
0.5517 1.8621 0.0000
0.5517 1.8966 0.0000
0.5517 1.9310 0.0000
0.5517 1.9655 0.0000
0.5517 2.0000 0.0000
0.6207 1.0000 0.0000
0.6207 1.0345 0.0000
0.6207 1.0690 0.0000
0.6207 1.1034 0.0000
0.6207 1.1379 0.0000
0.6207 1.1724 0.0000
0.6207 1.2069 0.0000
0.6207 1.2414 0.0000
0.6207 1.2759 0.0000
0.6207 1.3103 0.0000
0.6207 1.3448 0.0000
0.6207 1.3793 0.0000
0.6207 1.4138 0.0000
0.6207 1.4483 0.0000
0.6207 1.4828 0.0000
0.6207 1.5172 0.0000
0.6207 1.5517 0.0000
0.6207 1.5862 0.0000
0.6207 1.6207 0.0000
0.6207 1.6552 0.0000
0.6207 1.6897 0.0000
0.6207 1.7241 0.0000
0.6207 1.7586 0.0000
0.6207 1.7931 0.0000
0.6207 1.8276 0.0000
0.6207 1.8621 0.0000
0.6207 1.8966 0.0000
0.6207 1.9310 0.0000
0.6207 1.9655 0.0000
0.6207 2.0000 0.0000
0.6897 1.0000 0.0000
0.6897 1.0345 0.0000
0.6897 1.0690 0.0000
0.6897 1.1034 0.0000
0.6897 1.1379 0.0000
0.6897 1.1724 0.0000
0.6897 1.2069 0.0000
0.6897 1.2414 0.0000
0.6897 1.2759 0.0000
0.6897 1.3103 0.0000
0.6897 1.3448 0.0000
0.6897 1.3793 0.0000
0.6897 1.4138 0.0000
0.6897 1.4483 0.0000
0.6897 1.4828 0.0000
0.6897 1.5172 0.0000
0.6897 1.5517 0.0000
0.6897 1.5862 0.0000
0.6897 1.6207 0.0000
0.6897 1.6552 0.0000
0.6897 1.6897 0.0000
0.6897 1.7241 0.0000
0.6897 1.7586 0.0000
0.6897 1.7931 0.0000
0.6897 1.8276 0.0000
0.6897 1.8621 0.0000
0.6897 1.8966 0.0000
0.6897 1.9310 0.0000
0.6897 1.9655 0.0000
0.6897 2.0000 0.0000
0.7586 1.0000 0.0000
0.7586 1.0345 0.0000
0.7586 1.0690 0.0000
0.7586 1.1034 0.0000
0.7586 1.1379 0.0000
0.7586 1.1724 0.0000
0.7586 1.2069 0.0000
0.7586 1.2414 0.0000
0.7586 1.2759 0.0000
0.7586 1.3103 0.0000
0.7586 1.3448 0.0000
0.7586 1.3793 0.0000
0.7586 1.4138 0.0000
0.7586 1.4483 0.0000
0.7586 1.4828 0.0000
0.7586 1.5172 0.0000
0.7586 1.5517 0.0000
0.7586 1.5862 0.0000
0.7586 1.6207 0.0000
0.7586 1.6552 0.0000
0.7586 1.6897 0.0000
0.7586 1.7241 0.0000
0.7586 1.7586 0.0000
0.7586 1.7931 0.0000
0.7586 1.8276 0.0000
0.7586 1.8621 0.0000
0.7586 1.8966 0.0000
0.7586 1.9310 0.0000
0.7586 1.9655 0.0000
0.7586 2.0000 0.0000
0.8276 1.0000 0.0000
0.8276 1.0345 0.0000
0.8276 1.0690 0.0000
0.8276 1.1034 0.0000
0.8276 1.1379 0.0000
0.8276 1.1724 0.0000
0.8276 1.2069 0.0000
0.8276 1.2414 0.0000
0.8276 1.2759 0.0000
0.8276 1.3103 0.0000
0.8276 1.3448 0.0000
0.8276 1.3793 0.0000
0.8276 1.4138 0.0000
0.8276 1.4483 0.0000
0.8276 1.4828 0.0000
0.8276 1.5172 0.0000
0.8276 1.5517 0.0000
0.8276 1.5862 0.0000
0.8276 1.6207 0.0000
0.8276 1.6552 0.0000
0.8276 1.6897 0.0000
0.8276 1.7241 0.0000
0.8276 1.7586 0.0000
0.8276 1.7931 0.0000
0.8276 1.8276 0.0000
0.8276 1.8621 0.0000
0.8276 1.8966 0.0000
0.8276 1.9310 0.0000
0.8276 1.9655 0.0000
0.8276 2.0000 0.0000
0.8966 1.0000 0.0000
0.8966 1.0345 0.0000
0.8966 1.0690 0.0000
0.8966 1.1034 0.0000
0.8966 1.1379 0.0000
0.8966 1.1724 0.0000
0.8966 1.2069 0.0000
0.8966 1.2414 0.0000
0.8966 1.2759 0.0000
0.8966 1.3103 0.0000
0.8966 1.3448 0.0000
0.8966 1.3793 0.0000
0.8966 1.4138 0.0000
0.8966 1.4483 0.0000
0.8966 1.4828 0.0000
0.8966 1.5172 0.0000
0.8966 1.5517 0.0000
0.8966 1.5862 0.0000
0.8966 1.6207 0.0000
0.8966 1.6552 0.0000
0.8966 1.6897 0.0000
0.8966 1.7241 0.0000
0.8966 1.7586 0.0000
0.8966 1.7931 0.0000
0.8966 1.8276 0.0000
0.8966 1.8621 0.0000
0.8966 1.8966 0.0000
0.8966 1.9310 0.0000
0.8966 1.9655 0.0000
0.8966 2.0000 0.0000
0.9655 1.0000 0.0000
0.9655 1.0345 0.0000
0.9655 1.0690 0.0000
0.9655 1.1034 0.0000
0.9655 1.1379 0.0000
0.9655 1.1724 0.0000
0.9655 1.2069 0.0000
0.9655 1.2414 0.0000
0.9655 1.2759 0.0000
0.9655 1.3103 0.0000
0.9655 1.3448 0.0000
0.9655 1.3793 0.0000
0.9655 1.4138 0.0000
0.9655 1.4483 0.0000
0.9655 1.4828 0.0000
0.9655 1.5172 0.0000
0.9655 1.5517 0.0000
0.9655 1.5862 0.0000
0.9655 1.6207 0.0000
0.9655 1.6552 0.0000
0.9655 1.6897 0.0000
0.9655 1.7241 0.0000
0.9655 1.7586 0.0000
0.9655 1.7931 0.0000
0.9655 1.8276 0.0000
0.9655 1.8621 0.0000
0.9655 1.8966 0.0000
0.9655 1.9310 0.0000
0.9655 1.9655 0.0000
0.9655 2.0000 0.0000
1.0345 1.0000 0.0000
1.0345 1.0345 0.0000
1.0345 1.0690 0.0000
1.0345 1.1034 0.0000
1.0345 1.1379 0.0000
1.0345 1.1724 0.0000
1.0345 1.2069 0.0000
1.0345 1.2414 0.0000
1.0345 1.2759 0.0000
1.0345 1.3103 0.0000
1.0345 1.3448 0.0000
[...]
         <PointData>
            <DataArray Name="fValues" NumberOfComponents="3" format="ascii" type="Float64">
-1.95889e-21  9.85060e-21        00000 
 3.14421e-22 -1.79669e-21        00000 
 4.44176e-22 -3.55341e-22        00000 
 6.80851e-22 -8.76177e-21        00000 
-5.33011e-22        00000        00000 
 2.82482e-21  1.68407e-21        00000 
 3.55341e-22  3.02040e-21        00000 
 8.81758e-22 -9.93372e-22        00000 
 5.33011e-22 -8.88352e-23        00000 
 1.02882e-21  2.11819e-21        00000 
-3.99758e-22  9.77187e-22        00000 
-1.08825e-22  1.75793e-21        00000 
       00000 -1.24369e-21        00000 
-3.71814e-22  1.95268e-21        00000 
-2.22088e-22  3.99758e-22        00000 
 1.14405e-22 -7.58981e-22        00000 
-1.99879e-22  5.94085e-22        00000 
 7.43939e-24  4.57089e-22        00000 
-6.66264e-23  5.55220e-23        00000 
-7.97872e-24  1.66354e-22        00000 
-2.98431e-23  2.91490e-23        00000 
-7.46075e-24  1.53683e-23        00000 
 3.47012e-24  7.63427e-24        00000 
-4.75235e-24  5.70064e-24        00000 
-3.47012e-25  1.77844e-24        00000 
-1.23409e-25  4.18513e-25        00000 
-3.03636e-25 -3.03636e-25        00000 
-1.69263e-25  2.51165e-25        00000 
 1.23043e-26 -3.06240e-25        00000 
-6.04579e-26 -1.52967e-25        00000 
-5.21774e-05 -1.80686e-05        00000 
-1.47799e-06 -1.78763e-05        00000 
 1.88351e-06 -2.47510e-05        00000 
 4.93377e-06 -2.49139e-05        00000 
 8.62003e-06 -2.15882e-05        00000 
 1.19121e-05 -1.57733e-05        00000 
 1.34192e-05 -8.30894e-06        00000 
 1.24408e-05 -6.25553e-07        00000 
 9.26617e-06  5.70181e-06        00000 
 4.98106e-06  9.58949e-06        00000 
 8.96871e-07  1.08043e-05        00000 
-2.02923e-06  9.89222e-06        00000 
-3.47510e-06  7.79746e-06        00000 
-3.67150e-06  5.42897e-06        00000 
-3.11478e-06  3.38756e-06        00000 
-2.28682e-06  1.91398e-06        00000 
-1.50552e-06  9.88588e-07        00000 
-9.09117e-07  4.72246e-07        00000 
-5.12544e-07  2.12201e-07        00000 
-2.74108e-07  9.20414e-08        00000 
-1.41180e-07  3.99476e-08        00000 
-7.10414e-08  1.80296e-08        00000 
-3.53689e-08  8.65961e-09        00000 
-1.75899e-08  4.40553e-09        00000 
-8.78512e-09  2.32070e-09        00000 
-4.40607e-09  1.24087e-09        00000 
-2.19960e-09  6.71916e-10        00000 
-1.06573e-09  3.62801e-10        00000 
-4.77183e-10  1.26654e-10        00000 
-1.02554e-09  1.19976e-10        00000 
 6.35252e-05  4.15955e-05        00000 
 9.34700e-06  4.59611e-05        00000 
-2.24451e-06  5.18767e-05        00000 
-5.99880e-06  5.22009e-05        00000 
-1.13046e-05  4.58663e-05        00000 
-1.62596e-05  3.35540e-05        00000 
-1.85965e-05  1.72281e-05        00000 
-1.71522e-05  3.31662e-07        00000 
-1.24212e-05 -1.34155e-05        00000 
-6.16532e-06 -2.15391e-05        00000 
-4.21449e-07 -2.36298e-05        00000 
 3.44092e-06 -2.10940e-05        00000 
 5.09704e-06 -1.61762e-05        00000 
 5.03735e-06 -1.09211e-05        00000 
 4.06032e-06 -6.58238e-06        00000 
 2.85065e-06 -3.57698e-06        00000 
 1.80379e-06 -1.76865e-06        00000 
 1.05305e-06 -8.04881e-07        00000 
 5.78125e-07 -3.43205e-07        00000 
 3.03610e-07 -1.41280e-07        00000 
 1.54896e-07 -5.87368e-08        00000 
 7.78019e-08 -2.59331e-08        00000 
 3.88736e-08 -1.24904e-08        00000 
 1.94501e-08 -6.46954e-09        00000 
 9.77165e-09 -3.47722e-09        00000 
 4.92042e-09 -1.88717e-09        00000 
 2.45807e-09 -1.02809e-09        00000 
 1.17974e-09 -5.66517e-10        00000 
 6.51166e-10 -3.40641e-10        00000 
 1.10213e-09 -2.62960e-10        00000 
-7.30746e-05 -6.58070e-05        00000 
-1.35365e-05 -7.49234e-05        00000 
 1.87711e-07 -8.32988e-05        00000 
 5.85193e-06 -8.40651e-05        00000 
 1.35219e-05 -7.46743e-05        00000 
 2.09392e-05 -5.46815e-05        00000 
 2.45113e-05 -2.73188e-05        00000 
 2.24029e-05  1.13735e-06        00000 
 1.54897e-05  2.39397e-05        00000 
 6.64239e-06  3.67751e-05        00000 
-1.02081e-06  3.92042e-05        00000 
-5.65580e-06  3.40217e-05        00000 
-7.12468e-06  2.53095e-05        00000 
-6.42271e-06  1.65380e-05        00000 
-4.79311e-06  9.63211e-06        00000 
-3.13438e-06  5.05685e-06        00000 
-1.85790e-06  2.42015e-06        00000 
-1.02461e-06  1.07139e-06        00000 
-5.37851e-07  4.48684e-07        00000 
-2.74205e-07  1.84116e-07        00000 
-1.37993e-07  7.76305e-08        00000 
-6.93037e-08  3.51299e-08        00000 
-3.49224e-08  1.72812e-08        00000 
-1.76748e-08  9.03210e-09        00000 
-8.97046e-09  4.84892e-09        00000 
-4.54705e-09  2.61580e-09        00000 
-2.27683e-09  1.41574e-09        00000 
-1.10192e-09  7.95498e-10        00000 
-6.25618e-10  5.25006e-10        00000 
-1.01673e-09  3.86253e-10        00000 
 8.45641e-05  9.24191e-05        00000 
 1.85428e-05  1.06804e-04        00000 
 3.52473e-06  1.20475e-04        00000 
-4.39079e-06  1.23787e-04        00000 
-1.62627e-05  1.11480e-04        00000 
-2.80088e-05  8.16695e-05        00000 
-3.37352e-05  3.93263e-05        00000 
-3.04270e-05 -4.89736e-06        00000 
-1.97520e-05 -3.95708e-05        00000 
-6.66250e-06 -5.77539e-05        00000 
 3.84952e-06 -5.93550e-05        00000 
 9.30891e-06 -4.96182e-05        00000 
 1.01210e-05 -3.54441e-05        00000 
 8.23658e-06 -2.21757e-05        00000 
 5.59537e-06 -1.23517e-05        00000 
 3.33725e-06 -6.21174e-06        00000 
 1.81015e-06 -2.86492e-06        00000 
 9.21574e-07 -1.23727e-06        00000 
 4.54094e-07 -5.15550e-07        00000 
 2.22495e-07 -2.15796e-07        00000 
 1.10377e-07 -9.46574e-08        00000 
 5.57527e-08 -4.45976e-08        00000 
 2.85551e-08 -2.24363e-08        00000 
 1.47140e-08 -1.17482e-08        00000 
 7.57533e-09 -6.24581e-09        00000 
 3.87411e-09 -3.32793e-09        00000 
 1.94876e-09 -1.78532e-09        00000 
 9.47414e-10 -1.00713e-09        00000 
 5.41020e-10 -6.78440e-10        00000 
 8.65756e-10 -4.96979e-10        00000 
-9.84923e-05 -1.21578e-04        00000 
-2.58809e-05 -1.43018e-04        00000 
-1.03029e-05 -1.65857e-04        00000 
 7.69237e-07 -1.75481e-04        00000 
 1.96816e-05 -1.61138e-04        00000 
 3.90311e-05 -1.18153e-04        00000 
 4.85301e-05 -5.42021e-05        00000 
 4.29829e-05  1.28236e-05        00000 
 2.56979e-05  6.38159e-05        00000 
 5.60545e-06  8.79298e-05        00000 
-9.05918e-06  8.63364e-05        00000 
-1.51388e-05  6.87579e-05        00000 
-1.43887e-05  4.65588e-05        00000 
-1.04925e-05  2.75018e-05        00000 
-6.39305e-06  1.44458e-05        00000 
-3.40631e-06  6.87760e-06        00000 
-1.64718e-06  3.03785e-06        00000 
-7.52440e-07  1.28418e-06        00000 
-3.39853e-07  5.40414e-07        00000 
-1.58364e-07  2.35668e-07        00000 
-7.78131e-08  1.09167e-07        00000 
-4.00494e-08  5.36542e-08        00000 
-2.11154e-08  2.74526e-08        00000 
-1.11723e-08  1.43215e-08        00000 
-5.86189e-09  7.51498e-09        00000 
-3.03178e-09  3.94943e-09        00000 
-1.53377e-09  2.09851e-09        00000 
-7.48086e-10  1.18167e-09        00000 
-4.27170e-10  8.00239e-10        00000 
-6.77593e-10  5.87028e-10        00000 
 1.13810e-04  1.52530e-04        00000 
 3.69437e-05  1.84068e-04        00000 
 2.25621e-05  2.22320e-04        00000 
 7.11781e-06  2.45043e-04        00000 
-2.35500e-05  2.30981e-04        00000 
-5.63146e-05  1.69732e-04        00000 
-7.24972e-05  7.32014e-05        00000 
-6.26499e-05 -2.82213e-05        00000 
-3.35521e-05 -1.02318e-04        00000 
-1.92836e-06 -1.32344e-04        00000 
 1.84282e-05 -1.22888e-04        00000 
 2.41420e-05 -9.20008e-05        00000 
 2.00972e-05 -5.81197e-05        00000 
 1.29734e-05 -3.18468e-05        00000 
 6.95048e-06 -1.55049e-05        00000 
 3.21372e-06 -6.89701e-06        00000 
 1.32916e-06 -2.90881e-06        00000 
 5.16336e-07 -1.21897e-06        00000 
 2.03013e-07 -5.31475e-07        00000 
 8.80067e-08 -2.47009e-07        00000 
 4.35812e-08 -1.21536e-07        00000 
 2.36424e-08 -6.18622e-08        00000 
 1.31939e-08 -3.19231e-08        00000 
 7.28988e-09 -1.65237e-08        00000 
 3.93347e-09 -8.55213e-09        00000 
 2.06740e-09 -4.43612e-09        00000 
 1.05447e-09 -2.33562e-09        00000 
 5.16173e-10 -1.31036e-09        00000 
 2.94345e-10 -8.88377e-10        00000 
 4.63343e-10 -6.52476e-10        00000 
-1.27940e-04 -1.82906e-04        00000 
-5.33518e-05 -2.29099e-04        00000 
-4.42401e-05 -2.92974e-04        00000 
-2.34156e-05 -3.41098e-04        00000 
 2.68023e-05 -3.32733e-04        00000 
 8.37572e-05 -2.45564e-04        00000 
 1.12149e-04 -9.80257e-05        00000 
 9.37236e-05  5.71602e-05        00000 
 4.29302e-05  1.64560e-04        00000 
-7.66579e-06  1.98512e-04        00000 
-3.49581e-05  1.72099e-04        00000 
-3.75064e-05  1.19045e-04        00000 
-2.70760e-05  6.87002e-05        00000 
-1.51389e-05  3.41115e-05        00000 
-6.89551e-06  1.50535e-05        00000 
-2.61574e-06  6.17372e-06        00000 
-8.33158e-07  2.50502e-06        00000 
-2.24800e-07  1.07534e-06        00000 
-5.54807e-08  5.04783e-07        00000 
-1.77320e-08  2.54173e-07        00000 
-1.02747e-08  1.31891e-07        00000 
-7.49133e-09  6.85964e-08        00000 
-5.15461e-09  3.54054e-08        00000 
-3.22264e-09  1.81454e-08        00000 
-1.86503e-09  9.27497e-09        00000 
-1.01878e-09  4.75807e-09        00000 
-5.29960e-10  2.48525e-09        00000 
-2.61597e-10  1.38854e-09        00000 
-1.48845e-10  9.40863e-10        00000 
-2.31434e-10  6.91285e-10        00000 
 1.36050e-04  2.07700e-04        00000 
 7.66513e-05  2.74746e-04        00000 
 8.13505e-05  3.80414e-04        00000 
 5.61894e-05  4.76254e-04        00000 
-2.60499e-05  4.85919e-04        00000 
-1.28020e-04  3.61498e-04        00000 
-1.79816e-04  1.31033e-04        00000 
-1.43468e-04 -1.11255e-04        00000 
-5.14438e-05 -2.67048e-04        00000 
 3.00727e-05 -2.97576e-04        00000 
 6.33972e-05 -2.36608e-04        00000 
 5.61351e-05 -1.47580e-04        00000 
 3.43226e-05 -7.54717e-05        00000 
 1.59812e-05 -3.27991e-05        00000 
 5.77165e-06 -1.27097e-05        00000 
 1.51959e-06 -4.76120e-06        00000 
 1.83120e-07 -1.92946e-06        00000 
-9.17288e-08 -9.07802e-07        00000 
-8.71221e-08 -4.77637e-07        00000 
-4.67305e-08 -2.59726e-07        00000 
-2.03455e-08 -1.39393e-07        00000 
-7.84661e-09 -7.29924e-08        00000 
-2.76721e-09 -3.74647e-08        00000 
-9.00027e-10 -1.90164e-08        00000 
-2.68835e-10 -9.62501e-09        00000 
-7.33388e-11 -4.89609e-09        00000 
-1.87615e-11 -2.54082e-09        00000 
-5.23479e-12 -1.41367e-09        00000 
-3.40217e-12 -9.56412e-10        00000 
-9.65086e-12 -7.02447e-10        00000 
-1.30260e-04 -2.18277e-04        00000 
-1.06831e-04 -3.13010e-04        00000 
-1.41867e-04 -4.84256e-04        00000 
-1.21077e-04 -6.68228e-04        00000 
 1.12745e-05 -7.24463e-04        00000 
 2.00048e-04 -5.46961e-04        00000 
 2.99543e-04 -1.75566e-04        00000 
 2.23732e-04  2.14047e-04        00000 
 5.05565e-05  4.39669e-04        00000 
-7.93859e-05  4.45359e-04        00000 
-1.10244e-04  3.16054e-04        00000 
-7.91887e-05  1.71172e-04        00000 
-3.92185e-05  7.38017e-05        00000 
-1.40221e-05  2.63965e-05        00000 
-3.21903e-06  8.49521e-06        00000 
 2.32509e-08  2.95035e-06        00000 
 5.33521e-07  1.35120e-06        00000 
 3.89030e-07  7.72649e-07        00000 
 2.10187e-07  4.60000e-07        00000 
 1.01884e-07  2.62491e-07        00000 
 4.75956e-08  1.42263e-07        00000 
 2.21469e-08  7.41792e-08        00000 
 1.04033e-08  3.77859e-08        00000 
 4.95194e-09  1.90377e-08        00000 
 2.38866e-09  9.57258e-09        00000 
 1.16487e-09  4.84109e-09        00000 
 5.69094e-10  2.49944e-09        00000 
 2.73323e-10  1.38484e-09        00000 
 1.56304e-10  9.34684e-10        00000 
 2.51073e-10  6.85783e-10        00000 
 1.00054e-04  2.02592e-04        00000 
 1.38496e-04  3.28123e-04        00000 
 2.32544e-04  5.94310e-04        00000 
 2.47251e-04  9.38671e-04        00000 
 4.63893e-05  1.11032e-03        00000 
-3.14653e-04  8.62373e-04        00000 
-5.17777e-04  2.36514e-04        00000 
-3.50510e-04 -4.17668e-04        00000 
-1.36353e-05 -7.39062e-04        00000 
 1.82753e-04 -6.61309e-04        00000 
 1.81000e-04 -4.00328e-04        00000 
 1.00689e-04 -1.76137e-04        00000 
 3.68502e-05 -5.77811e-05        00000 
 7.81329e-06 -1.44228e-05        00000 
-6.72308e-07 -3.22323e-06        00000 
-1.74865e-06 -1.26530e-06        00000 
-1.18262e-06 -9.45048e-07        00000 
-6.26258e-07 -6.99495e-07        00000 
-3.06096e-07 -4.48377e-07        00000 
-1.47375e-07 -2.57867e-07        00000 
-7.16635e-08 -1.38584e-07        00000 
-3.53321e-08 -7.16216e-08        00000 
-1.75875e-08 -3.62600e-08        00000 
-8.79875e-09 -1.81932e-08        00000 
-4.41184e-09 -9.11562e-09        00000 
-2.21093e-09 -4.59291e-09        00000 
-1.09818e-09 -2.36159e-09        00000 
-5.31517e-10 -1.30276e-09        00000 
-3.03663e-10 -8.76366e-10        00000 
-4.83849e-10 -6.41924e-10        00000 
-3.65997e-05 -1.49645e-04        00000 
-1.54221e-04 -2.94230e-04        00000 
-3.45804e-04 -6.74290e-04        00000 
-4.82366e-04 -1.30124e-03        00000 
-2.27812e-04 -1.76282e-03        00000 
 4.72727e-04 -1.45102e-03        00000 
 9.12318e-04 -3.21324e-04        00000 
 5.25163e-04  8.53364e-04        00000 
-1.36918e-04  1.27770e-03        00000 
-3.85091e-04  9.57312e-04        00000 
-2.67986e-04  4.54117e-04        00000 
-1.04104e-04  1.39504e-04        00000 
-2.09870e-05  2.35673e-05        00000 
 2.57617e-06 -8.17992e-07        00000 
 5.06988e-06 -1.41318e-06        00000 
 3.22974e-06  2.59297e-07        00000 
 1.64507e-06  7.90999e-07        00000 
 7.86367e-07  6.71275e-07        00000 
 3.76925e-07  4.27795e-07        00000 
 1.85130e-07  2.40717e-07        00000 
 9.29633e-08  1.27385e-07        00000 
 4.72546e-08  6.53398e-08        00000 
 2.41139e-08  3.29896e-08        00000 
 1.22985e-08  1.65348e-08        00000 
 6.25717e-09  8.27399e-09        00000 
 3.16847e-09  4.15949e-09        00000 
 1.58398e-09  2.13137e-09        00000 
 7.68821e-10  1.16989e-09        00000 
 4.39188e-10  7.83128e-10        00000 
 6.99044e-10  5.72374e-10        00000 
-5.38730e-05  6.38256e-05        00000 
 1.18044e-04  1.82690e-04        00000 
 4.27066e-04  6.32817e-04        00000 
 8.66381e-04  1.71006e-03        00000 
 7.55061e-04  2.91868e-03        00000 
-5.52639e-04  2.71826e-03        00000 
-1.51251e-03  4.41538e-04        00000 
-6.19733e-04 -1.90681e-03        00000 
 6.19286e-04 -2.28333e-03        00000 
 7.23190e-04 -1.28838e-03        00000 
 3.18811e-04 -3.90823e-04        00000 
 5.87718e-05 -3.72672e-05        00000 
-8.45944e-06  2.20286e-05        00000 
-1.43918e-05  1.34899e-05        00000 
-8.53838e-06  3.58201e-06        00000 
-4.11448e-06 -1.34803e-07        00000 
-1.88622e-06 -8.06801e-07        00000 
-8.82943e-07 -6.34942e-07        00000 
-4.30502e-07 -3.82696e-07        00000 
-2.17029e-07 -2.08972e-07        00000 
-1.11415e-07 -1.09227e-07        00000 
-5.75549e-08 -5.58616e-08        00000 
-2.97227e-08 -2.82234e-08        00000 
-1.53020e-08 -1.41604e-08        00000 
-7.84427e-09 -7.08601e-09        00000 
-3.99527e-09 -3.55778e-09        00000 
-2.00472e-09 -1.81759e-09        00000 
-9.73839e-10 -9.90916e-10        00000 
-5.55705e-10 -6.57253e-10        00000 
-8.87297e-10 -4.79768e-10        00000 
 1.48896e-04  2.50398e-05        00000 
-2.59703e-05 -9.04435e-06        00000 
-2.78364e-04 -3.07627e-04        00000 
-1.32132e-03 -1.89311e-03        00000 
-2.09455e-03 -4.99337e-03        00000 
-3.65636e-04 -6.01456e-03        00000 
 1.66359e-03 -6.10995e-04        00000 
-3.27941e-04  4.88008e-03        00000 
-1.90242e-03  4.15981e-03        00000 
-1.11984e-03  1.39149e-03        00000 
-1.43932e-04  6.18784e-05        00000 
 3.04897e-05 -1.06791e-04        00000 
 4.20651e-05 -5.68337e-05        00000 
 2.24304e-05 -1.71647e-05        00000 
 1.00528e-05 -2.85015e-06        00000 
 4.35347e-06  5.16576e-07        00000 
 1.96544e-06  8.03685e-07        00000 
 9.40519e-07  5.43066e-07        00000 
 4.71178e-07  3.08632e-07        00000 
 2.42167e-07  1.64986e-07        00000 
 1.25784e-07  8.58408e-08        00000 
 6.54680e-08  4.39712e-08        00000 
 3.40057e-08  2.22780e-08        00000 
 1.75963e-08  1.12001e-08        00000 
 9.06144e-09  5.60898e-09        00000 
 4.63300e-09  2.81542e-09        00000 
 2.33061e-09  1.43513e-09        00000 
 1.13054e-09  7.73184e-10        00000 
 6.40689e-10  4.99971e-10        00000 
 1.03525e-09  3.68692e-10        00000 
-2.10134e-04 -7.32578e-05        00000 
-1.13275e-04 -1.43158e-04        00000 
 1.14270e-05 -2.00285e-04        00000 
 2.73676e-04  8.14916e-04        00000 
 5.96204e-03  8.19782e-03        00000 
 5.74337e-03  1.61177e-02        00000 
 6.06262e-03  7.98151e-04        00000 
 5.99491e-03 -1.43276e-02        00000 
 5.74706e-03 -7.11121e-03        00000 
 5.28307e-05 -2.51305e-04        00000 
-1.35639e-04  4.07455e-04        00000 
-1.31606e-04  1.94366e-04        00000 
-5.86781e-05  5.66119e-05        00000 
-2.38893e-05  1.15130e-05        00000 
-9.61020e-06  9.00486e-07        00000 
-4.14345e-06 -7.36699e-07        00000 
-1.92895e-06 -6.39421e-07        00000 
-9.52402e-07 -3.85156e-07        00000 
-4.86260e-07 -2.11441e-07        00000 
-2.52245e-07 -1.12232e-07        00000 
-1.31613e-07 -5.85084e-08        00000 
-6.87095e-08 -3.00886e-08        00000 
-3.57908e-08 -1.52980e-08        00000 
-1.85738e-08 -7.71005e-09        00000 
-9.59172e-09 -3.86698e-09        00000 
-4.91700e-09 -1.94321e-09        00000 
-2.48051e-09 -9.91200e-10        00000 
-1.19686e-09 -5.20673e-10        00000 
-6.58110e-10 -3.02968e-10        00000 
-1.10823e-09 -2.45929e-10        00000 
 2.33243e-04  6.99326e-05        00000 
 1.90171e-04  1.72631e-04        00000 
 4.52362e-04  4.53834e-04        00000 
 2.33490e-04  5.16942e-04        00000 
 3.41660e-03 -4.04600e-03        00000 
-5.68806e-02 -4.85549e-02        00000 
-4.34839e-02 -5.25685e-04        00000 
-5.84768e-02  4.44641e-02        00000 
 2.85356e-03  2.61912e-03        00000 
 5.53686e-04 -1.26539e-03        00000 
 4.00422e-04 -5.11883e-04        00000 
 1.39155e-04 -1.36854e-04        00000 
 5.01865e-05 -2.84127e-05        00000 
 1.82538e-05 -4.71014e-06        00000 
 7.38155e-06 -3.58434e-07        00000 
 3.29374e-06  2.09216e-07        00000 
 1.58525e-06  1.83718e-07        00000 
 7.97110e-07  1.11308e-07        00000 
 4.10123e-07  6.18849e-08        00000 
 2.13319e-07  3.32256e-08        00000 
 1.11432e-07  1.74261e-08        00000 
 5.82345e-08  8.96026e-09        00000 
 3.03741e-08  4.53013e-09        00000 
 1.57864e-08  2.26074e-09        00000 
 8.16470e-09  1.11993e-09        00000 
 4.19212e-09  5.56521e-10        00000 
 2.12004e-09  2.83361e-10        00000 
 1.03252e-09  1.39201e-10        00000 
 4.68941e-10 -6.56979e-12        00000 
 9.89832e-10  8.39255e-11        00000 
-2.02295e-04 -4.28373e-05        00000 
-1.92053e-04 -1.13544e-04        00000 
-4.77967e-04 -1.89106e-04        00000 
-1.59891e-03  8.37401e-05        00000 
 1.61174e-03  3.93755e-05        00000 
-2.86517e-02  6.33139e-03        00000 
 8.62914e-01 -6.67476e-03        00000 
-1.07798e-02  1.20953e-02        00000 
 2.45480e-05  4.70078e-03        00000 
 6.79556e-06  1.30411e-03        00000 
 4.79726e-06  3.53719e-04        00000 
 1.70788e-06  1.06965e-04        00000 
 6.17443e-07  3.91869e-05        00000 
 2.25017e-07  1.69285e-05        00000 
 9.07438e-08  8.07264e-06        00000 
 4.03726e-08  4.04042e-06        00000 
 1.93872e-08  2.06939e-06        00000 