<?xml version="1.0" encoding="utf-8"?>
<VTKFile byte_order="LittleEndian" type="UnstructuredGrid" version="0.1">
   <UnstructuredGrid>
      <Piece NumberOfCells="3364" NumberOfPoints="1741">
         <Points>
            <DataArray Name="Points" NumberOfComponents="3" format="ascii" type="Float32">
0.0000 1.0000 0.0000
0.0000 1.0345 0.0000
0.0000 1.0690 0.0000
0.0000 1.1034 0.0000
0.0000 1.1379 0.0000
0.0000 1.1724 0.0000
0.0000 1.2069 0.0000
0.0000 1.2414 0.0000
0.0000 1.2759 0.0000
0.0000 1.3103 0.0000
0.0000 1.3448 0.0000
0.0000 1.3793 0.0000
0.0000 1.4138 0.0000
0.0000 1.4483 0.0000
0.0000 1.4828 0.0000
0.0000 1.5172 0.0000
0.0000 1.5517 0.0000
0.0000 1.5862 0.0000
0.0000 1.6207 0.0000
0.0000 1.6552 0.0000
0.0000 1.6897 0.0000
0.0000 1.7241 0.0000
0.0000 1.7586 0.0000
0.0000 1.7931 0.0000
0.0000 1.8276 0.0000
0.0000 1.8621 0.0000
0.0000 1.8966 0.0000
0.0000 1.9310 0.0000
0.0000 1.9655 0.0000
0.0000 2.0000 0.0000
0.0690 1.0000 0.0000
0.0690 1.0345 0.0000
0.0690 1.0690 0.0000
0.0690 1.1034 0.0000
0.0690 1.1379 0.0000
0.0690 1.1724 0.0000
0.0690 1.2069 0.0000
0.0690 1.2414 0.0000
0.0690 1.2759 0.0000
0.0690 1.3103 0.0000
0.0690 1.3448 0.0000
0.0690 1.3793 0.0000
0.0690 1.4138 0.0000
0.0690 1.4483 0.0000
0.0690 1.4828 0.0000
0.0690 1.5172 0.0000
0.0690 1.5517 0.0000
0.0690 1.5862 0.0000
0.0690 1.6207 0.0000
0.0690 1.6552 0.0000
0.0690 1.6897 0.0000
0.0690 1.7241 0.0000
0.0690 1.7586 0.0000
0.0690 1.7931 0.0000
0.0690 1.8276 0.0000
0.0690 1.8621 0.0000
0.0690 1.8966 0.0000
0.0690 1.9310 0.0000
0.0690 1.9655 0.0000
0.0690 2.0000 0.0000
0.1379 1.0000 0.0000
0.1379 1.0345 0.0000
0.1379 1.0690 0.0000
0.1379 1.1034 0.0000
0.1379 1.1379 0.0000
0.1379 1.1724 0.0000
0.1379 1.2069 0.0000
0.1379 1.2414 0.0000
0.1379 1.2759 0.0000
0.1379 1.3103 0.0000
0.1379 1.3448 0.0000
0.1379 1.3793 0.0000
0.1379 1.4138 0.0000
0.1379 1.4483 0.0000
0.1379 1.4828 0.0000
0.1379 1.5172 0.0000
0.1379 1.5517 0.0000
0.1379 1.5862 0.0000
0.1379 1.6207 0.0000
0.1379 1.6552 0.0000
0.1379 1.6897 0.0000
0.1379 1.7241 0.0000
0.1379 1.7586 0.0000
0.1379 1.7931 0.0000
0.1379 1.8276 0.0000
0.1379 1.8621 0.0000
0.1379 1.8966 0.0000
0.1379 1.9310 0.0000
0.1379 1.9655 0.0000
0.1379 2.0000 0.0000
0.2069 1.0000 0.0000
0.2069 1.0345 0.0000
0.2069 1.0690 0.0000
0.2069 1.1034 0.0000
0.2069 1.1379 0.0000
0.2069 1.1724 0.0000
0.2069 1.2069 0.0000
0.2069 1.2414 0.0000
0.2069 1.2759 0.0000
0.2069 1.3103 0.0000
0.2069 1.3448 0.0000
0.2069 1.3793 0.0000
0.2069 1.4138 0.0000
0.2069 1.4483 0.0000
0.2069 1.4828 0.0000
0.2069 1.5172 0.0000
0.2069 1.5517 0.0000
0.2069 1.5862 0.0000
0.2069 1.6207 0.0000
0.2069 1.6552 0.0000
0.2069 1.6897 0.0000
0.2069 1.7241 0.0000
0.2069 1.7586 0.0000
0.2069 1.7931 0.0000
0.2069 1.8276 0.0000
0.2069 1.8621 0.0000
0.2069 1.8966 0.0000
0.2069 1.9310 0.0000
0.2069 1.9655 0.0000
0.2069 2.0000 0.0000
0.2759 1.0000 0.0000
0.2759 1.0345 0.0000
0.2759 1.0690 0.0000
0.2759 1.1034 0.0000
0.2759 1.1379 0.0000
0.2759 1.1724 0.0000
0.2759 1.2069 0.0000
0.2759 1.2414 0.0000
0.2759 1.2759 0.0000
0.2759 1.3103 0.0000
0.2759 1.3448 0.0000
0.2759 1.3793 0.0000
0.2759 1.4138 0.0000
0.2759 1.4483 0.0000
0.2759 1.4828 0.0000
0.2759 1.5172 0.0000
0.2759 1.5517 0.0000
0.2759 1.5862 0.0000
0.2759 1.6207 0.0000
0.2759 1.6552 0.0000
0.2759 1.6897 0.0000
0.2759 1.7241 0.0000
0.2759 1.7586 0.0000
0.2759 1.7931 0.0000
0.2759 1.8276 0.0000
0.2759 1.8621 0.0000
0.2759 1.8966 0.0000
0.2759 1.9310 0.0000
0.2759 1.9655 0.0000
0.2759 2.0000 0.0000
0.3448 1.0000 0.0000
0.3448 1.0345 0.0000
0.3448 1.0690 0.0000
0.3448 1.1034 0.0000
0.3448 1.1379 0.0000
0.3448 1.1724 0.0000
0.3448 1.2069 0.0000
0.3448 1.2414 0.0000
0.3448 1.2759 0.0000
0.3448 1.3103 0.0000
0.3448 1.3448 0.0000
0.3448 1.3793 0.0000
0.3448 1.4138 0.0000
0.3448 1.4483 0.0000
0.3448 1.4828 0.0000
0.3448 1.5172 0.0000
0.3448 1.5517 0.0000
0.3448 1.5862 0.0000
0.3448 1.6207 0.0000
0.3448 1.6552 0.0000
0.3448 1.6897 0.0000
0.3448 1.7241 0.0000
0.3448 1.7586 0.0000
0.3448 1.7931 0.0000
0.3448 1.8276 0.0000
0.3448 1.8621 0.0000
0.3448 1.8966 0.0000
0.3448 1.9310 0.0000
0.3448 1.9655 0.0000
0.3448 2.0000 0.0000
0.4138 1.0000 0.0000
0.4138 1.0345 0.0000
0.4138 1.0690 0.0000
0.4138 1.1034 0.0000
0.4138 1.1379 0.0000
0.4138 1.1724 0.0000
0.4138 1.2069 0.0000
0.4138 1.2414 0.0000
0.4138 1.2759 0.0000
0.4138 1.3103 0.0000
0.4138 1.3448 0.0000
0.4138 1.3793 0.0000
0.4138 1.4138 0.0000
0.4138 1.4483 0.0000
0.4138 1.4828 0.0000
0.4138 1.5172 0.0000
0.4138 1.5517 0.0000
0.4138 1.5862 0.0000
0.4138 1.6207 0.0000
0.4138 1.6552 0.0000
0.4138 1.6897 0.0000
0.4138 1.7241 0.0000
0.4138 1.7586 0.0000
0.4138 1.7931 0.0000
0.4138 1.8276 0.0000
0.4138 1.8621 0.0000
0.4138 1.8966 0.0000
0.4138 1.9310 0.0000
0.4138 1.9655 0.0000
0.4138 2.0000 0.0000
0.4828 1.0000 0.0000
0.4828 1.0345 0.0000
0.4828 1.0690 0.0000
0.4828 1.1034 0.0000
0.4828 1.1379 0.0000
0.4828 1.1724 0.0000
0.4828 1.2069 0.0000
0.4828 1.2414 0.0000
0.4828 1.2759 0.0000
0.4828 1.3103 0.0000
0.4828 1.3448 0.0000
0.4828 1.3793 0.0000
0.4828 1.4138 0.0000
0.4828 1.4483 0.0000
0.4828 1.4828 0.0000
0.4828 1.5172 0.0000
0.4828 1.5517 0.0000
0.4828 1.5862 0.0000
0.4828 1.6207 0.0000
0.4828 1.6552 0.0000
0.4828 1.6897 0.0000
0.4828 1.7241 0.0000
0.4828 1.7586 0.0000
0.4828 1.7931 0.0000
0.4828 1.8276 0.0000
0.4828 1.8621 0.0000
0.4828 1.8966 0.0000
0.4828 1.9310 0.0000
0.4828 1.9655 0.0000
0.4828 2.0000 0.0000
0.5517 1.0000 0.0000
0.5517 1.0345 0.0000
0.5517 1.0690 0.0000
0.5517 1.1034 0.0000
0.5517 1.1379 0.0000
0.5517 1.1724 0.0000
0.5517 1.2069 0.0000
0.5517 1.2414 0.0000
0.5517 1.2759 0.0000
0.5517 1.3103 0.0000
0.5517 1.3448 0.0000
0.5517 1.3793 0.0000
0.5517 1.4138 0.0000
0.5517 1.4483 0.0000
0.5517 1.4828 0.0000
0.5517 1.5172 0.0000
0.5517 1.5517 0.0000
0.5517 1.5862 0.0000
0.5517 1.6207 0.0000
0.5517 1.6552 0.0000
0.5517 1.6897 0.0000
0.5517 1.7241 0.0000
0.5517 1.7586 0.0000
0.5517 1.7931 0.0000
0.5517 1.8276 0.0000
0.5517 1.8621 0.0000
0.5517 1.8966 0.0000
0.5517 1.9310 0.0000
0.5517 1.9655 0.0000
0.5517 2.0000 0.0000
0.6207 1.0000 0.0000
0.6207 1.0345 0.0000
0.6207 1.0690 0.0000
0.6207 1.1034 0.0000
0.6207 1.1379 0.0000
0.6207 1.1724 0.0000
0.6207 1.2069 0.0000
0.6207 1.2414 0.0000
0.6207 1.2759 0.0000
0.6207 1.3103 0.0000
0.6207 1.3448 0.0000
0.6207 1.3793 0.0000
0.6207 1.4138 0.0000
0.6207 1.4483 0.0000
0.6207 1.4828 0.0000
0.6207 1.5172 0.0000
0.6207 1.5517 0.0000
0.6207 1.5862 0.0000
0.6207 1.6207 0.0000
0.6207 1.6552 0.0000
0.6207 1.6897 0.0000
0.6207 1.7241 0.0000
0.6207 1.7586 0.0000
0.6207 1.7931 0.0000
0.6207 1.8276 0.0000
0.6207 1.8621 0.0000
0.6207 1.8966 0.0000
0.6207 1.9310 0.0000
0.6207 1.9655 0.0000
0.6207 2.0000 0.0000
0.6897 1.0000 0.0000
0.6897 1.0345 0.0000
0.6897 1.0690 0.0000
0.6897 1.1034 0.0000
0.6897 1.1379 0.0000
0.6897 1.1724 0.0000
0.6897 1.2069 0.0000
0.6897 1.2414 0.0000
0.6897 1.2759 0.0000
0.6897 1.3103 0.0000
0.6897 1.3448 0.0000
0.6897 1.3793 0.0000
0.6897 1.4138 0.0000
0.6897 1.4483 0.0000
0.6897 1.4828 0.0000
0.6897 1.5172 0.0000
0.6897 1.5517 0.0000
0.6897 1.5862 0.0000
0.6897 1.6207 0.0000
0.6897 1.6552 0.0000
0.6897 1.6897 0.0000
0.6897 1.7241 0.0000
0.6897 1.7586 0.0000
0.6897 1.7931 0.0000
0.6897 1.8276 0.0000
0.6897 1.8621 0.0000
0.6897 1.8966 0.0000
0.6897 1.9310 0.0000
0.6897 1.9655 0.0000
0.6897 2.0000 0.0000
0.7586 1.0000 0.0000
0.7586 1.0345 0.0000
0.7586 1.0690 0.0000
0.7586 1.1034 0.0000
0.7586 1.1379 0.0000
0.7586 1.1724 0.0000
0.7586 1.2069 0.0000
0.7586 1.2414 0.0000
0.7586 1.2759 0.0000
0.7586 1.3103 0.0000
0.7586 1.3448 0.0000
0.7586 1.3793 0.0000
0.7586 1.4138 0.0000
0.7586 1.4483 0.0000
0.7586 1.4828 0.0000
0.7586 1.5172 0.0000
0.7586 1.5517 0.0000
0.7586 1.5862 0.0000
0.7586 1.6207 0.0000
0.7586 1.6552 0.0000
0.7586 1.6897 0.0000
0.7586 1.7241 0.0000
0.7586 1.7586 0.0000
0.7586 1.7931 0.0000
0.7586 1.8276 0.0000
0.7586 1.8621 0.0000
0.7586 1.8966 0.0000
0.7586 1.9310 0.0000
0.7586 1.9655 0.0000
0.7586 2.0000 0.0000
0.8276 1.0000 0.0000
0.8276 1.0345 0.0000
0.8276 1.0690 0.0000
0.8276 1.1034 0.0000
0.8276 1.1379 0.0000
0.8276 1.1724 0.0000
0.8276 1.2069 0.0000
0.8276 1.2414 0.0000
0.8276 1.2759 0.0000
0.8276 1.3103 0.0000
0.8276 1.3448 0.0000
0.8276 1.3793 0.0000
0.8276 1.4138 0.0000
0.8276 1.4483 0.0000
0.8276 1.4828 0.0000
0.8276 1.5172 0.0000
0.8276 1.5517 0.0000
0.8276 1.5862 0.0000
0.8276 1.6207 0.0000
0.8276 1.6552 0.0000
0.8276 1.6897 0.0000
0.8276 1.7241 0.0000
0.8276 1.7586 0.0000
0.8276 1.7931 0.0000
0.8276 1.8276 0.0000
0.8276 1.8621 0.0000
0.8276 1.8966 0.0000
0.8276 1.9310 0.0000
0.8276 1.9655 0.0000
0.8276 2.0000 0.0000
0.8966 1.0000 0.0000
0.8966 1.0345 0.0000
0.8966 1.0690 0.0000
0.8966 1.1034 0.0000
0.8966 1.1379 0.0000
0.8966 1.1724 0.0000
0.8966 1.2069 0.0000
0.8966 1.2414 0.0000
0.8966 1.2759 0.0000
0.8966 1.3103 0.0000
0.8966 1.3448 0.0000
0.8966 1.3793 0.0000
0.8966 1.4138 0.0000
0.8966 1.4483 0.0000
0.8966 1.4828 0.0000
0.8966 1.5172 0.0000
0.8966 1.5517 0.0000
0.8966 1.5862 0.0000
0.8966 1.6207 0.0000
0.8966 1.6552 0.0000
0.8966 1.6897 0.0000
0.8966 1.7241 0.0000
0.8966 1.7586 0.0000
0.8966 1.7931 0.0000
0.8966 1.8276 0.0000
0.8966 1.8621 0.0000
0.8966 1.8966 0.0000
0.8966 1.9310 0.0000
0.8966 1.9655 0.0000
0.8966 2.0000 0.0000
0.9655 1.0000 0.0000
0.9655 1.0345 0.0000
0.9655 1.0690 0.0000
0.9655 1.1034 0.0000
0.9655 1.1379 0.0000
0.9655 1.1724 0.0000
0.9655 1.2069 0.0000
0.9655 1.2414 0.0000
0.9655 1.2759 0.0000
0.9655 1.3103 0.0000
0.9655 1.3448 0.0000
0.9655 1.3793 0.0000
0.9655 1.4138 0.0000
0.9655 1.4483 0.0000
0.9655 1.4828 0.0000
0.9655 1.5172 0.0000
0.9655 1.5517 0.0000
0.9655 1.5862 0.0000
0.9655 1.6207 0.0000
0.9655 1.6552 0.0000
0.9655 1.6897 0.0000
0.9655 1.7241 0.0000
0.9655 1.7586 0.0000
0.9655 1.7931 0.0000
0.9655 1.8276 0.0000
0.9655 1.8621 0.0000
0.9655 1.8966 0.0000
0.9655 1.9310 0.0000
0.9655 1.9655 0.0000
0.9655 2.0000 0.0000
1.0345 1.0000 0.0000
1.0345 1.0345 0.0000
1.0345 1.0690 0.0000
1.0345 1.1034 0.0000
1.0345 1.1379 0.0000
1.0345 1.1724 0.0000
1.0345 1.2069 0.0000
1.0345 1.2414 0.0000
1.0345 1.2759 0.0000
1.0345 1.3103 0.0000
1.0345 1.3448 0.0000
[...]
         <PointData>
            <DataArray Name="fValues" NumberOfComponents="3" format="ascii" type="Float64">
-4.49172e-23  2.76834e-23        00000 
 1.79669e-22  3.59338e-22        00000 
-9.99396e-23  2.22088e-22        00000 
 3.83676e-23 -1.50680e-22        00000 
 2.22088e-23  2.44297e-22        00000 
 5.86363e-23 -1.23815e-22        00000 
       00000  9.99396e-23        00000 
 3.34845e-23 -5.85978e-23        00000 
 1.66566e-23  1.44357e-22        00000 
 2.49415e-23  6.15225e-23        00000 
-2.22088e-23 -4.44176e-23        00000 
 4.14196e-23  1.73701e-22        00000 
-2.08207e-23 -3.33132e-23        00000 
 1.03747e-23  9.03353e-23        00000 
 2.77610e-24  4.44176e-23        00000 
-5.40635e-24 -1.05337e-22        00000 
-2.77610e-24  1.77670e-22        00000 
 9.59374e-24 -8.38824e-23        00000 
-2.49849e-23  1.33253e-22        00000 
 3.41821e-23 -1.81374e-23        00000 
-1.16596e-22  4.44176e-23        00000 
 1.09644e-22  7.49604e-23        00000 
-1.27701e-22 -3.33132e-23        00000 
 8.30136e-23  5.02267e-23        00000 
-1.11044e-22 -1.55462e-22        00000 
 4.68584e-23  3.27697e-22        00000 
-1.11044e-23 -1.55462e-22        00000 
-2.00583e-22 -2.65580e-23        00000 
-8.39973e-24  2.26793e-22        00000 
 2.09993e-24 -5.66982e-23        00000 
 1.25069e-06  2.21465e-06        00000 
 1.77833e-06  2.42355e-06        00000 
 1.45691e-06  1.97646e-06        00000 
 1.23862e-06  1.66645e-06        00000 
 1.06946e-06  1.44050e-06        00000 
 9.27885e-07  1.27121e-06        00000 
 8.03591e-07  1.14192e-06        00000 
 6.90917e-07  1.04203e-06        00000 
 5.86448e-07  9.64532e-07        00000 
 4.87951e-07  9.04610e-07        00000 
 3.93869e-07  8.58920e-07        00000 
 3.03041e-07  8.25108e-07        00000 
 2.14553e-07  8.01541e-07        00000 
 1.27645e-07  7.87128e-07        00000 
 4.16491e-08  7.81226e-07        00000 
-4.40524e-08  7.83575e-07        00000 
-1.30062e-07  7.94279e-07        00000 
-2.16997e-07  8.13814e-07        00000 
-3.05529e-07  8.43071e-07        00000 
-3.96420e-07  8.83442e-07        00000 
-4.90588e-07  9.36955e-07        00000 
-5.89202e-07  1.00651e-06        00000 
-6.93834e-07  1.09627e-06        00000 
-8.06738e-07  1.21227e-06        00000 
-9.31369e-07  1.36356e-06        00000 
-1.07347e-06  1.56425e-06        00000 
-1.24355e-06  1.83745e-06        00000 
-1.46369e-06  2.22344e-06        00000 
-1.79065e-06  2.79782e-06        00000 
-1.22980e-06  1.47662e-06        00000 
 2.15488e-06  4.19589e-06        00000 
 3.66417e-06  5.68264e-06        00000 
 3.09226e-06  4.93659e-06        00000 
 2.64885e-06  4.35788e-06        00000 
 2.28723e-06  3.90429e-06        00000 
 1.97958e-06  3.54617e-06        00000 
 1.70899e-06  3.26206e-06        00000 
 1.46475e-06  3.03624e-06        00000 
 1.23974e-06  2.85720e-06        00000 
 1.02901e-06  2.71641e-06        00000 
 8.28948e-07  2.60761e-06        00000 
 6.36786e-07  2.52621e-06        00000 
 4.50324e-07  2.46890e-06        00000 
 2.67713e-07  2.43346e-06        00000 
 8.73256e-08  2.41852e-06        00000 
-9.23439e-08  2.42352e-06        00000 
-2.72764e-07  2.44864e-06        00000 
-4.55443e-07  2.49483e-06        00000 
-6.42013e-07  2.56386e-06        00000 
-8.34327e-07  2.65846e-06        00000 
-1.03460e-06  2.78250e-06        00000 
-1.24562e-06  2.94130e-06        00000 
-1.47101e-06  3.14209e-06        00000 
-1.71578e-06  3.39457e-06        00000 
-1.98710e-06  3.71173e-06        00000 
-2.29581e-06  4.11081e-06        00000 
-2.65903e-06  4.61395e-06        00000 
-3.10491e-06  5.24636e-06        00000 
-3.67953e-06  6.02194e-06        00000 
-2.11207e-06  2.77151e-06        00000 
 2.99134e-06  6.05805e-06        00000 
 5.32017e-06  8.75860e-06        00000 
 4.65551e-06  8.05172e-06        00000 
 4.06305e-06  7.41507e-06        00000 
 3.54256e-06  6.86915e-06        00000 
 3.08108e-06  6.40983e-06        00000 
 2.66597e-06  6.02766e-06        00000 
 2.28688e-06  5.71262e-06        00000 
 1.93574e-06  5.45561e-06        00000 
 1.60624e-06  5.24897e-06        00000 
 1.29337e-06  5.08645e-06        00000 
 9.93103e-07  4.96318e-06        00000 
 7.02033e-07  4.87547e-06        00000 
 4.17237e-07  4.82072e-06        00000 
 1.36084e-07  4.79734e-06        00000 
-1.43889e-07  4.80461e-06        00000 
-4.25096e-07  4.84274e-06        00000 
-7.10003e-07  4.91283e-06        00000 
-1.00125e-06  5.01691e-06        00000 
-1.30176e-06  5.15802e-06        00000 
-1.61495e-06  5.34034e-06        00000 
-1.94489e-06  5.56924e-06        00000 
-2.29659e-06  5.85144e-06        00000 
-2.67641e-06  6.19498e-06        00000 
-3.09247e-06  6.60895e-06        00000 
-3.55516e-06  7.10256e-06        00000 
-4.07716e-06  7.68259e-06        00000 
-4.67127e-06  8.34755e-06        00000 
-5.33754e-06  9.07673e-06        00000 
-2.92930e-06  3.96992e-06        00000 
 3.78005e-06  8.05323e-06        00000 
 6.85957e-06  1.20203e-05        00000 
 6.10167e-06  1.13570e-05        00000 
 5.40193e-06  1.07452e-05        00000 
 4.75870e-06  1.01930e-05        00000 
 4.16824e-06  9.70640e-06        00000 
 3.62392e-06  9.28535e-06        00000 
 3.11851e-06  8.92678e-06        00000 
 2.64521e-06  8.62637e-06        00000 
 2.19793e-06  8.37952e-06        00000 
 1.77136e-06  8.18198e-06        00000 
 1.36085e-06  8.03008e-06        00000 
 9.62314e-07  7.92085e-06        00000 
 5.72036e-07  7.85210e-06        00000 
 1.86594e-07  7.82245e-06        00000 
-1.97278e-07  7.83126e-06        00000 
-5.82792e-07  7.87869e-06        00000 
-9.73216e-07  7.96570e-06        00000 
-1.37198e-06  8.09398e-06        00000 
-1.78279e-06  8.26604e-06        00000 
-2.20978e-06  8.48508e-06        00000 
-2.65758e-06  8.75497e-06        00000 
-3.13154e-06  9.08001e-06        00000 
-3.63774e-06  9.46461e-06        00000 
-4.18301e-06  9.91251e-06        00000 
-4.77459e-06  1.04257e-05        00000 
-5.41904e-06  1.10026e-05        00000 
-6.12006e-06  1.16368e-05        00000 
-6.87921e-06  1.23194e-05        00000 
-3.70013e-06  5.24414e-06        00000 
 4.52244e-06  1.02454e-05        00000 
 8.30475e-06  1.56000e-05        00000 
 7.45488e-06  1.49765e-05        00000 
 6.65660e-06  1.43977e-05        00000 
 5.90844e-06  1.38676e-05        00000 
 5.20741e-06  1.33898e-05        00000 
 4.54944e-06  1.29663e-05        00000 
 3.92960e-06  1.25975e-05        00000 
 3.34262e-06  1.22821e-05        00000 
 2.78327e-06  1.20185e-05        00000 
 2.24657e-06  1.18045e-05        00000 
 1.72786e-06  1.16380e-05        00000 
 1.22277e-06  1.15171e-05        00000 
 7.27210e-07  1.14406e-05        00000 
 2.37270e-07  1.14073e-05        00000 
-2.50837e-07  1.14169e-05        00000 
-7.40860e-07  1.14694e-05        00000 
-1.23659e-06  1.15656e-05        00000 
-1.74193e-06  1.17064e-05        00000 
-2.26099e-06  1.18936e-05        00000 
-2.79814e-06  1.21290e-05        00000 
-3.35804e-06  1.24147e-05        00000 
-3.94568e-06  1.27527e-05        00000 
-4.56630e-06  1.31445e-05        00000 
-5.22516e-06  1.35907e-05        00000 
-5.92717e-06  1.40906e-05        00000 
-6.67638e-06  1.46415e-05        00000 
-7.47576e-06  1.52398e-05        00000 
-8.32672e-06  1.58816e-05        00000 
-4.42573e-06  6.64207e-06        00000 
 5.21830e-06  1.26546e-05        00000 
 9.66363e-06  1.95369e-05        00000 
 8.72335e-06  1.89512e-05        00000 
 7.83208e-06  1.84069e-05        00000 
 6.98758e-06  1.79058e-05        00000 
 6.18700e-06  1.74500e-05        00000 
 5.42684e-06  1.70413e-05        00000 
 4.70313e-06  1.66806e-05        00000 
 4.01152e-06  1.63684e-05        00000 
 3.34753e-06  1.61042e-05        00000 
 2.70662e-06  1.58875e-05        00000 
 2.08436e-06  1.57175e-05        00000 
 1.47641e-06  1.55932e-05        00000 
 8.78575e-07  1.55140e-05        00000 
 2.86744e-07  1.54795e-05        00000 
-3.03121e-07  1.54892e-05        00000 
-8.95038e-07  1.55433e-05        00000 
-1.49305e-06  1.56422e-05        00000 
-2.10126e-06  1.57863e-05        00000 
-2.72387e-06  1.59765e-05        00000 
-3.36523e-06  1.62136e-05        00000 
-4.02977e-06  1.64983e-05        00000 
-4.72201e-06  1.68312e-05        00000 
-5.44646e-06  1.72123e-05        00000 
-6.20744e-06  1.76410e-05        00000 
-7.00891e-06  1.81161e-05        00000 
-7.85436e-06  1.86359e-05        00000 
-8.74662e-06  1.91982e-05        00000 
-9.68793e-06  1.98013e-05        00000 
-5.10581e-06  8.17788e-06        00000 
 5.86662e-06  1.52823e-05        00000 
 1.09383e-05  2.38358e-05        00000 
 9.91095e-06  2.32871e-05        00000 
 8.93142e-06  2.27771e-05        00000 
 7.99694e-06  2.23069e-05        00000 
 7.10443e-06  2.18777e-05        00000 
 6.25048e-06  2.14908e-05        00000 
 5.43144e-06  2.11472e-05        00000 
 4.64338e-06  2.08475e-05        00000 
 3.88223e-06  2.05923e-05        00000 
 3.14384e-06  2.03815e-05        00000 
 2.42399e-06  2.02151e-05        00000 
 1.71851e-06  2.00930e-05        00000 
 1.02324e-06  2.00149e-05        00000 
 3.34060e-07  1.99806e-05        00000 
-3.53117e-07  1.99901e-05        00000 
-1.04238e-06  2.00434e-05        00000 
-1.73782e-06  2.01406e-05        00000 
-2.44356e-06  2.02818e-05        00000 
-3.16376e-06  2.04673e-05        00000 
-3.90259e-06  2.06971e-05        00000 
-4.66425e-06  2.09714e-05        00000 
-5.45291e-06  2.12898e-05        00000 
-6.27264e-06  2.16519e-05        00000 
-7.12734e-06  2.20569e-05        00000 
-8.02069e-06  2.25037e-05        00000 
-8.95605e-06  2.29910e-05        00000 
-9.93651e-06  2.35177e-05        00000 
-1.09649e-05  2.40828e-05        00000 
-5.73932e-06  9.85332e-06        00000 
 6.46658e-06  1.81210e-05        00000 
 1.21293e-05  2.84849e-05        00000 
 1.10193e-05  2.79729e-05        00000 
 9.95660e-06  2.74970e-05        00000 
 8.93788e-06  2.70580e-05        00000 
 7.95986e-06  2.66568e-05        00000 
 7.01907e-06  2.62943e-05        00000 
 6.11192e-06  2.59713e-05        00000 
 5.23467e-06  2.56887e-05        00000 
 4.38346e-06  2.54471e-05        00000 
 3.55435e-06  2.52468e-05        00000 
 2.74334e-06  2.50882e-05        00000 
 1.94642e-06  2.49714e-05        00000 
 1.15953e-06  2.48965e-05        00000 
 3.78661e-07  2.48636e-05        00000 
-4.00237e-07  2.48726e-05        00000 
-1.18119e-06  2.49236e-05        00000 
-1.96824e-06  2.50165e-05        00000 
-2.76541e-06  2.51512e-05        00000 
-3.57675e-06  2.53277e-05        00000 
-4.40627e-06  2.55457e-05        00000 
-5.25797e-06  2.58048e-05        00000 
-6.13579e-06  2.61047e-05        00000 
-7.04358e-06  2.64445e-05        00000 
-7.98508e-06  2.68236e-05        00000 
-8.96388e-06  2.72410e-05        00000 
-9.98343e-06  2.76957e-05        00000 
-1.10470e-05  2.81871e-05        00000 
-1.21580e-05  2.87144e-05        00000 
-6.32546e-06  1.16640e-05        00000 
 7.01780e-06  2.11583e-05        00000 
 1.32365e-05  3.34644e-05        00000 
 1.20494e-05  3.29887e-05        00000 
 1.09090e-05  3.25465e-05        00000 
 9.81177e-06  3.21385e-05        00000 
 8.75428e-06  3.17654e-05        00000 
 7.73298e-06  3.14279e-05        00000 
 6.74428e-06  3.11269e-05        00000 
 5.78450e-06  3.08630e-05        00000 
 4.84990e-06  3.06369e-05        00000 
 3.93668e-06  3.04492e-05        00000 
 3.04100e-06  3.03002e-05        00000 
 2.15898e-06  3.01904e-05        00000 
 1.28671e-06  3.01199e-05        00000 
 4.20292e-07  3.00888e-05        00000 
-4.44208e-07  3.00972e-05        00000 
-1.31071e-06  3.01451e-05        00000 
-2.18313e-06  3.02325e-05        00000 
-3.06538e-06  3.03590e-05        00000 
-3.96137e-06  3.05245e-05        00000 
-4.87498e-06  3.07286e-05        00000 
-5.81004e-06  3.09708e-05        00000 
-6.77035e-06  3.12505e-05        00000 
-7.75966e-06  3.15671e-05        00000 
-8.78162e-06  3.19197e-05        00000 
-9.83984e-06  3.23077e-05        00000 
-1.09378e-05  3.27302e-05        00000 
-1.20791e-05  3.31866e-05        00000 
-1.32672e-05  3.36764e-05        00000 
-6.86382e-06  1.36024e-05        00000 
 7.52027e-06  2.43795e-05        00000 
 1.42604e-05  3.87499e-05        00000 
 1.30020e-05  3.83102e-05        00000 
 1.17897e-05  3.79012e-05        00000 
 1.06199e-05  3.75237e-05        00000 
 9.48893e-06  3.71782e-05        00000 
 8.39324e-06  3.68656e-05        00000 
 7.32922e-06  3.65865e-05        00000 
 6.29324e-06  3.63417e-05        00000 
 5.28163e-06  3.61317e-05        00000 
 4.29069e-06  3.59572e-05        00000 
 3.31671e-06  3.58186e-05        00000 
 2.35593e-06  3.57163e-05        00000 
 1.40458e-06  3.56506e-05        00000 
 4.58885e-07  3.56215e-05        00000 
-4.84955e-07  3.56293e-05        00000 
-1.43073e-06  3.56739e-05        00000 
-2.38222e-06  3.57552e-05        00000 
-3.34322e-06  3.58729e-05        00000 
-4.31749e-06  3.60267e-05        00000 
-5.30879e-06  3.62163e-05        00000 
-6.32083e-06  3.64410e-05        00000 
-7.35732e-06  3.67004e-05        00000 
-8.42191e-06  3.69937e-05        00000 
-9.51823e-06  3.73202e-05        00000 
-1.06499e-05  3.76792e-05        00000 
-1.18205e-05  3.80699e-05        00000 
-1.30336e-05  3.84918e-05        00000 
-1.42928e-05  3.89442e-05        00000 
-7.35442e-06  1.56592e-05        00000 
 7.97443e-06  2.77685e-05        00000 
 1.52014e-05  4.43146e-05        00000 
 1.38781e-05  4.39104e-05        00000 
 1.26000e-05  4.35341e-05        00000 
 1.13636e-05  4.31864e-05        00000 
 1.01652e-05  4.28680e-05        00000 
 9.00112e-06  4.25797e-05        00000 
 7.86786e-06  4.23222e-05        00000 
 6.76180e-06  4.20961e-05        00000 
 5.67934e-06  4.19021e-05        00000 
 4.61689e-06  4.17407e-05        00000 
 3.57081e-06  4.16125e-05        00000 
 2.53748e-06  4.15178e-05        00000 
 1.51325e-06  4.14569e-05        00000 
 4.94471e-07  4.14300e-05        00000 
-5.22511e-07  4.14371e-05        00000 
-1.54136e-06  4.14784e-05        00000 
-2.56572e-06  4.15535e-05        00000 
-3.59926e-06  4.16623e-05        00000 
-4.64561e-06  4.18045e-05        00000 
-5.70841e-06  4.19796e-05        00000 
-6.79127e-06  4.21871e-05        00000 
-7.89780e-06  4.24264e-05        00000 
-9.03160e-06  4.26969e-05        00000 
-1.01963e-05  4.29978e-05        00000 
-1.13953e-05  4.33285e-05        00000 
-1.26325e-05  4.36881e-05        00000 
-1.39113e-05  4.40761e-05        00000 
-1.52355e-05  4.44915e-05        00000 
-7.79765e-06  1.78241e-05        00000 
 8.38100e-06  3.13085e-05        00000 
 1.60607e-05  5.01310e-05        00000 
 1.46788e-05  4.97617e-05        00000 
 1.33412e-05  4.94173e-05        00000 
 1.20443e-05  4.90987e-05        00000 
 1.07844e-05  4.88066e-05        00000 
 9.55801e-06  4.85419e-05        00000 
 8.36148e-06  4.83052e-05        00000 
 7.19133e-06  4.80973e-05        00000 
 6.04402e-06  4.79188e-05        00000 
 4.91605e-06  4.77702e-05        00000 
 3.80389e-06  4.76521e-05        00000 
 2.70403e-06  4.75648e-05        00000 
 1.61296e-06  4.75087e-05        00000 
 5.27133e-07  4.74838e-05        00000 
-5.56960e-07  4.74904e-05        00000 
-1.64285e-06  4.75283e-05        00000 
-2.73405e-06  4.75974e-05        00000 
-3.83410e-06  4.76976e-05        00000 
-4.94651e-06  4.78284e-05        00000 
-6.07481e-06  4.79895e-05        00000 
-7.22249e-06  4.81802e-05        00000 
-8.39309e-06  4.84001e-05        00000 
-9.59013e-06  4.86485e-05        00000 
-1.08171e-05  4.89246e-05        00000 
-1.20776e-05  4.92276e-05        00000 
-1.33752e-05  4.95569e-05        00000 
-1.47135e-05  4.99115e-05        00000 
-1.60962e-05  5.02907e-05        00000 
-8.19425e-06  2.00866e-05        00000 
 8.74102e-06  3.49827e-05        00000 
 1.68397e-05  5.61709e-05        00000 
 1.54057e-05  5.58357e-05        00000 
 1.40149e-05  5.55225e-05        00000 
 1.26636e-05  5.52322e-05        00000 
 1.13483e-05  5.49656e-05        00000 
 1.00654e-05  5.47236e-05        00000 
 8.81147e-06  5.45071e-05        00000 
 7.58307e-06  5.43167e-05        00000 
 6.37675e-06  5.41530e-05        00000 
 5.18909e-06  5.40168e-05        00000 
 4.01668e-06  5.39084e-05        00000 
 2.85612e-06  5.38282e-05        00000 
 1.70401e-06  5.37766e-05        00000 
 5.56971e-07  5.37538e-05        00000 
-5.88406e-07  5.37597e-05        00000 
-1.73551e-06  5.37944e-05        00000 
-2.88773e-06  5.38578e-05        00000 
-4.04847e-06  5.39497e-05        00000 
-5.22112e-06  5.40696e-05        00000 
-6.40908e-06  5.42171e-05        00000 
-7.61576e-06  5.43918e-05        00000 
-8.84458e-06  5.45930e-05        00000 
-1.00990e-05  5.48200e-05        00000 
-1.13824e-05  5.50720e-05        00000 
-1.26983e-05  5.53483e-05        00000 
-1.40502e-05  5.56479e-05        00000 
-1.54418e-05  5.59700e-05        00000 
-1.68766e-05  5.63136e-05        00000 
-8.54522e-06  2.24357e-05        00000 
 9.05575e-06  3.87743e-05        00000 
 1.75404e-05  6.24064e-05        00000 
 1.60607e-05  6.21044e-05        00000 
 1.46228e-05  6.18215e-05        00000 
 1.32231e-05  6.15585e-05        00000 
 1.18583e-05  6.13166e-05        00000 
 1.05248e-05  6.10966e-05        00000 
 9.21928e-06  6.08994e-05        00000 
 7.93834e-06  6.07257e-05        00000 
 6.67867e-06  6.05764e-05        00000 
 5.43696e-06  6.04519e-05        00000 
 4.20992e-06  6.03528e-05        00000 
 2.99427e-06  6.02794e-05        00000 
 1.78675e-06  6.02322e-05        00000 
 5.84094e-07  6.02112e-05        00000 
-6.16962e-07  6.02165e-05        00000 
-1.81968e-06  6.02482e-05        00000 
-3.02731e-06  6.03061e-05        00000 
-4.24312e-06  6.03900e-05        00000 
-5.47038e-06  6.04995e-05        00000 
-6.71237e-06  6.06341e-05        00000 
-7.97237e-06  6.07933e-05        00000 
-9.25370e-06  6.09765e-05        00000 
-1.05597e-05  6.11830e-05        00000 
-1.18937e-05  6.14118e-05        00000 
-1.32591e-05  6.16622e-05        00000 
-1.46593e-05  6.19332e-05        00000 
-1.60979e-05  6.22237e-05        00000 
-1.75783e-05  6.25326e-05        00000 
-8.85180e-06  2.48609e-05        00000 
 9.32668e-06  4.26666e-05        00000 
 1.81649e-05  6.88099e-05        00000 
 1.66458e-05  6.85402e-05        00000 
 1.51669e-05  6.82864e-05        00000 
 1.37249e-05  6.80499e-05        00000 
 1.23164e-05  6.78316e-05        00000 
 1.09380e-05  6.76327e-05        00000 
 9.58642e-06  6.74540e-05        00000 
 8.25848e-06  6.72965e-05        00000 
 6.95095e-06  6.71607e-05        00000 
 5.66064e-06  6.70474e-05        00000 
 4.38440e-06  6.69572e-05        00000 
 3.11906e-06  6.68903e-05        00000 
 1.86151e-06  6.68472e-05        00000 
 6.08614e-07  6.68280e-05        00000 
-6.42748e-07  6.68328e-05        00000 
-1.89570e-06  6.68616e-05        00000 
-3.15335e-06  6.69143e-05        00000 
-4.41884e-06  6.69905e-05        00000 
-5.69529e-06  6.70901e-05        00000 
-6.98586e-06  6.72124e-05        00000 
-8.29370e-06  6.73568e-05        00000 
-9.62199e-06  6.75228e-05        00000 
-1.09740e-05  6.77096e-05        00000 
-1.23528e-05  6.79161e-05        00000 
-1.37619e-05  6.81416e-05        00000 
-1.52045e-05  6.83848e-05        00000 
-1.66840e-05  6.86448e-05        00000 
-1.82038e-05  6.89201e-05        00000 
-9.11546e-06  2.73514e-05        00000 
 9.55548e-06  4.66434e-05        00000 
 1.87159e-05  7.53546e-05        00000 
 1.71635e-05  7.51159e-05        00000 
 1.56496e-05  7.48902e-05        00000 
 1.41710e-05  7.46790e-05        00000 
 1.27244e-05  7.44834e-05        00000 
 1.13067e-05  7.43046e-05        00000 
 9.91452e-06  7.41437e-05        00000 
 8.54494e-06  7.40014e-05        00000 
 7.19484e-06  7.38786e-05        00000 
 5.86117e-06  7.37760e-05        00000 
 4.54091e-06  7.36941e-05        00000 
 3.23107e-06  7.36334e-05        00000 
 1.92864e-06  7.35942e-05        00000 
 6.30646e-07  7.35767e-05        00000 
-6.65881e-07  7.35810e-05        00000 
-1.96392e-06  7.36071e-05        00000 