<?xml version="1.0" encoding="utf-8"?>
<VTKFile byte_order="LittleEndian" type="UnstructuredGrid" version="0.1">
   <UnstructuredGrid>
      <Piece NumberOfCells="3364" NumberOfPoints="1741">
         <Points>
            <DataArray Name="Points" NumberOfComponents="3" format="ascii" type="Float32">
0.0000 1.0000 0.0000
0.0000 1.0345 0.0000
0.0000 1.0690 0.0000
0.0000 1.1034 0.0000
0.0000 1.1379 0.0000
0.0000 1.1724 0.0000
0.0000 1.2069 0.0000
0.0000 1.2414 0.0000
0.0000 1.2759 0.0000
0.0000 1.3103 0.0000
0.0000 1.3448 0.0000
0.0000 1.3793 0.0000
0.0000 1.4138 0.0000
0.0000 1.4483 0.0000
0.0000 1.4828 0.0000
0.0000 1.5172 0.0000
0.0000 1.5517 0.0000
0.0000 1.5862 0.0000
0.0000 1.6207 0.0000
0.0000 1.6552 0.0000
0.0000 1.6897 0.0000
0.0000 1.7241 0.0000
0.0000 1.7586 0.0000
0.0000 1.7931 0.0000
0.0000 1.8276 0.0000
0.0000 1.8621 0.0000
0.0000 1.8966 0.0000
0.0000 1.9310 0.0000
0.0000 1.9655 0.0000
0.0000 2.0000 0.0000
0.0690 1.0000 0.0000
0.0690 1.0345 0.0000
0.0690 1.0690 0.0000
0.0690 1.1034 0.0000
0.0690 1.1379 0.0000
0.0690 1.1724 0.0000
0.0690 1.2069 0.0000
0.0690 1.2414 0.0000
0.0690 1.2759 0.0000
0.0690 1.3103 0.0000
0.0690 1.3448 0.0000
0.0690 1.3793 0.0000
0.0690 1.4138 0.0000
0.0690 1.4483 0.0000
0.0690 1.4828 0.0000
0.0690 1.5172 0.0000
0.0690 1.5517 0.0000
0.0690 1.5862 0.0000
0.0690 1.6207 0.0000
0.0690 1.6552 0.0000
0.0690 1.6897 0.0000
0.0690 1.7241 0.0000
0.0690 1.7586 0.0000
0.0690 1.7931 0.0000
0.0690 1.8276 0.0000
0.0690 1.8621 0.0000
0.0690 1.8966 0.0000
0.0690 1.9310 0.0000
0.0690 1.9655 0.0000
0.0690 2.0000 0.0000
0.1379 1.0000 0.0000
0.1379 1.0345 0.0000
0.1379 1.0690 0.0000
0.1379 1.1034 0.0000
0.1379 1.1379 0.0000
0.1379 1.1724 0.0000
0.1379 1.2069 0.0000
0.1379 1.2414 0.0000
0.1379 1.2759 0.0000
0.1379 1.3103 0.0000
0.1379 1.3448 0.0000
0.1379 1.3793 0.0000
0.1379 1.4138 0.0000
0.1379 1.4483 0.0000
0.1379 1.4828 0.0000
0.1379 1.5172 0.0000
0.1379 1.5517 0.0000
0.1379 1.5862 0.0000
0.1379 1.6207 0.0000
0.1379 1.6552 0.0000
0.1379 1.6897 0.0000
0.1379 1.7241 0.0000
0.1379 1.7586 0.0000
0.1379 1.7931 0.0000
0.1379 1.8276 0.0000
0.1379 1.8621 0.0000
0.1379 1.8966 0.0000
0.1379 1.9310 0.0000
0.1379 1.9655 0.0000
0.1379 2.0000 0.0000
0.2069 1.0000 0.0000
0.2069 1.0345 0.0000
0.2069 1.0690 0.0000
0.2069 1.1034 0.0000
0.2069 1.1379 0.0000
0.2069 1.1724 0.0000
0.2069 1.2069 0.0000
0.2069 1.2414 0.0000
0.2069 1.2759 0.0000
0.2069 1.3103 0.0000
0.2069 1.3448 0.0000
0.2069 1.3793 0.0000
0.2069 1.4138 0.0000
0.2069 1.4483 0.0000
0.2069 1.4828 0.0000
0.2069 1.5172 0.0000
0.2069 1.5517 0.0000
0.2069 1.5862 0.0000
0.2069 1.6207 0.0000
0.2069 1.6552 0.0000
0.2069 1.6897 0.0000
0.2069 1.7241 0.0000
0.2069 1.7586 0.0000
0.2069 1.7931 0.0000
0.2069 1.8276 0.0000
0.2069 1.8621 0.0000
0.2069 1.8966 0.0000
0.2069 1.9310 0.0000
0.2069 1.9655 0.0000
0.2069 2.0000 0.0000
0.2759 1.0000 0.0000
0.2759 1.0345 0.0000
0.2759 1.0690 0.0000
0.2759 1.1034 0.0000
0.2759 1.1379 0.0000
0.2759 1.1724 0.0000
0.2759 1.2069 0.0000
0.2759 1.2414 0.0000
0.2759 1.2759 0.0000
0.2759 1.3103 0.0000
0.2759 1.3448 0.0000
0.2759 1.3793 0.0000
0.2759 1.4138 0.0000
0.2759 1.4483 0.0000
0.2759 1.4828 0.0000
0.2759 1.5172 0.0000
0.2759 1.5517 0.0000
0.2759 1.5862 0.0000
0.2759 1.6207 0.0000
0.2759 1.6552 0.0000
0.2759 1.6897 0.0000
0.2759 1.7241 0.0000
0.2759 1.7586 0.0000
0.2759 1.7931 0.0000
0.2759 1.8276 0.0000
0.2759 1.8621 0.0000
0.2759 1.8966 0.0000
0.2759 1.9310 0.0000
0.2759 1.9655 0.0000
0.2759 2.0000 0.0000
0.3448 1.0000 0.0000
0.3448 1.0345 0.0000
0.3448 1.0690 0.0000
0.3448 1.1034 0.0000
0.3448 1.1379 0.0000
0.3448 1.1724 0.0000
0.3448 1.2069 0.0000
0.3448 1.2414 0.0000
0.3448 1.2759 0.0000
0.3448 1.3103 0.0000
0.3448 1.3448 0.0000
0.3448 1.3793 0.0000
0.3448 1.4138 0.0000
0.3448 1.4483 0.0000
0.3448 1.4828 0.0000
0.3448 1.5172 0.0000
0.3448 1.5517 0.0000
0.3448 1.5862 0.0000
0.3448 1.6207 0.0000
0.3448 1.6552 0.0000
0.3448 1.6897 0.0000
0.3448 1.7241 0.0000
0.3448 1.7586 0.0000
0.3448 1.7931 0.0000
0.3448 1.8276 0.0000
0.3448 1.8621 0.0000
0.3448 1.8966 0.0000
0.3448 1.9310 0.0000
0.3448 1.9655 0.0000
0.3448 2.0000 0.0000
0.4138 1.0000 0.0000
0.4138 1.0345 0.0000
0.4138 1.0690 0.0000
0.4138 1.1034 0.0000
0.4138 1.1379 0.0000
0.4138 1.1724 0.0000
0.4138 1.2069 0.0000
0.4138 1.2414 0.0000
0.4138 1.2759 0.0000
0.4138 1.3103 0.0000
0.4138 1.3448 0.0000
0.4138 1.3793 0.0000
0.4138 1.4138 0.0000
0.4138 1.4483 0.0000
0.4138 1.4828 0.0000
0.4138 1.5172 0.0000
0.4138 1.5517 0.0000
0.4138 1.5862 0.0000
0.4138 1.6207 0.0000
0.4138 1.6552 0.0000
0.4138 1.6897 0.0000
0.4138 1.7241 0.0000
0.4138 1.7586 0.0000
0.4138 1.7931 0.0000
0.4138 1.8276 0.0000
0.4138 1.8621 0.0000
0.4138 1.8966 0.0000
0.4138 1.9310 0.0000
0.4138 1.9655 0.0000
0.4138 2.0000 0.0000
0.4828 1.0000 0.0000
0.4828 1.0345 0.0000
0.4828 1.0690 0.0000
0.4828 1.1034 0.0000
0.4828 1.1379 0.0000
0.4828 1.1724 0.0000
0.4828 1.2069 0.0000
0.4828 1.2414 0.0000
0.4828 1.2759 0.0000
0.4828 1.3103 0.0000
0.4828 1.3448 0.0000
0.4828 1.3793 0.0000
0.4828 1.4138 0.0000
0.4828 1.4483 0.0000
0.4828 1.4828 0.0000
0.4828 1.5172 0.0000
0.4828 1.5517 0.0000
0.4828 1.5862 0.0000
0.4828 1.6207 0.0000
0.4828 1.6552 0.0000
0.4828 1.6897 0.0000
0.4828 1.7241 0.0000
0.4828 1.7586 0.0000
0.4828 1.7931 0.0000
0.4828 1.8276 0.0000
0.4828 1.8621 0.0000
0.4828 1.8966 0.0000
0.4828 1.9310 0.0000
0.4828 1.9655 0.0000
0.4828 2.0000 0.0000
0.5517 1.0000 0.0000
0.5517 1.0345 0.0000
0.5517 1.0690 0.0000
0.5517 1.1034 0.0000
0.5517 1.1379 0.0000
0.5517 1.1724 0.0000
0.5517 1.2069 0.0000
0.5517 1.2414 0.0000
0.5517 1.2759 0.0000
0.5517 1.3103 0.0000
0.5517 1.3448 0.0000
0.5517 1.3793 0.0000
0.5517 1.4138 0.0000
0.5517 1.4483 0.0000
0.5517 1.4828 0.0000
0.5517 1.5172 0.0000
0.5517 1.5517 0.0000
0.5517 1.5862 0.0000
0.5517 1.6207 0.0000
0.5517 1.6552 0.0000
0.5517 1.6897 0.0000
0.5517 1.7241 0.0000
0.5517 1.7586 0.0000
0.5517 1.7931 0.0000
0.5517 1.8276 0.0000
0.5517 1.8621 0.0000
0.5517 1.8966 0.0000
0.5517 1.9310 0.0000
0.5517 1.9655 0.0000
0.5517 2.0000 0.0000
0.6207 1.0000 0.0000
0.6207 1.0345 0.0000
0.6207 1.0690 0.0000
0.6207 1.1034 0.0000
0.6207 1.1379 0.0000
0.6207 1.1724 0.0000
0.6207 1.2069 0.0000
0.6207 1.2414 0.0000
0.6207 1.2759 0.0000
0.6207 1.3103 0.0000
0.6207 1.3448 0.0000
0.6207 1.3793 0.0000
0.6207 1.4138 0.0000
0.6207 1.4483 0.0000
0.6207 1.4828 0.0000
0.6207 1.5172 0.0000
0.6207 1.5517 0.0000
0.6207 1.5862 0.0000
0.6207 1.6207 0.0000
0.6207 1.6552 0.0000
0.6207 1.6897 0.0000
0.6207 1.7241 0.0000
0.6207 1.7586 0.0000
0.6207 1.7931 0.0000
0.6207 1.8276 0.0000
0.6207 1.8621 0.0000
0.6207 1.8966 0.0000
0.6207 1.9310 0.0000
0.6207 1.9655 0.0000
0.6207 2.0000 0.0000
0.6897 1.0000 0.0000
0.6897 1.0345 0.0000
0.6897 1.0690 0.0000
0.6897 1.1034 0.0000
0.6897 1.1379 0.0000
0.6897 1.1724 0.0000
0.6897 1.2069 0.0000
0.6897 1.2414 0.0000
0.6897 1.2759 0.0000
0.6897 1.3103 0.0000
0.6897 1.3448 0.0000
0.6897 1.3793 0.0000
0.6897 1.4138 0.0000
0.6897 1.4483 0.0000
0.6897 1.4828 0.0000
0.6897 1.5172 0.0000
0.6897 1.5517 0.0000
0.6897 1.5862 0.0000
0.6897 1.6207 0.0000
0.6897 1.6552 0.0000
0.6897 1.6897 0.0000
0.6897 1.7241 0.0000
0.6897 1.7586 0.0000
0.6897 1.7931 0.0000
0.6897 1.8276 0.0000
0.6897 1.8621 0.0000
0.6897 1.8966 0.0000
0.6897 1.9310 0.0000
0.6897 1.9655 0.0000
0.6897 2.0000 0.0000
0.7586 1.0000 0.0000
0.7586 1.0345 0.0000
0.7586 1.0690 0.0000
0.7586 1.1034 0.0000
0.7586 1.1379 0.0000
0.7586 1.1724 0.0000
0.7586 1.2069 0.0000
0.7586 1.2414 0.0000
0.7586 1.2759 0.0000
0.7586 1.3103 0.0000
0.7586 1.3448 0.0000
0.7586 1.3793 0.0000
0.7586 1.4138 0.0000
0.7586 1.4483 0.0000
0.7586 1.4828 0.0000
0.7586 1.5172 0.0000
0.7586 1.5517 0.0000
0.7586 1.5862 0.0000
0.7586 1.6207 0.0000
0.7586 1.6552 0.0000
0.7586 1.6897 0.0000
0.7586 1.7241 0.0000
0.7586 1.7586 0.0000
0.7586 1.7931 0.0000
0.7586 1.8276 0.0000
0.7586 1.8621 0.0000
0.7586 1.8966 0.0000
0.7586 1.9310 0.0000
0.7586 1.9655 0.0000
0.7586 2.0000 0.0000
0.8276 1.0000 0.0000
0.8276 1.0345 0.0000
0.8276 1.0690 0.0000
0.8276 1.1034 0.0000
0.8276 1.1379 0.0000
0.8276 1.1724 0.0000
0.8276 1.2069 0.0000
0.8276 1.2414 0.0000
0.8276 1.2759 0.0000
0.8276 1.3103 0.0000
0.8276 1.3448 0.0000
0.8276 1.3793 0.0000
0.8276 1.4138 0.0000
0.8276 1.4483 0.0000
0.8276 1.4828 0.0000
0.8276 1.5172 0.0000
0.8276 1.5517 0.0000
0.8276 1.5862 0.0000
0.8276 1.6207 0.0000
0.8276 1.6552 0.0000
0.8276 1.6897 0.0000
0.8276 1.7241 0.0000
0.8276 1.7586 0.0000
0.8276 1.7931 0.0000
0.8276 1.8276 0.0000
0.8276 1.8621 0.0000
0.8276 1.8966 0.0000
0.8276 1.9310 0.0000
0.8276 1.9655 0.0000
0.8276 2.0000 0.0000
0.8966 1.0000 0.0000
0.8966 1.0345 0.0000
0.8966 1.0690 0.0000
0.8966 1.1034 0.0000
0.8966 1.1379 0.0000
0.8966 1.1724 0.0000
0.8966 1.2069 0.0000
0.8966 1.2414 0.0000
0.8966 1.2759 0.0000
0.8966 1.3103 0.0000
0.8966 1.3448 0.0000
0.8966 1.3793 0.0000
0.8966 1.4138 0.0000
0.8966 1.4483 0.0000
0.8966 1.4828 0.0000
0.8966 1.5172 0.0000
0.8966 1.5517 0.0000
0.8966 1.5862 0.0000
0.8966 1.6207 0.0000
0.8966 1.6552 0.0000
0.8966 1.6897 0.0000
0.8966 1.7241 0.0000
0.8966 1.7586 0.0000
0.8966 1.7931 0.0000
0.8966 1.8276 0.0000
0.8966 1.8621 0.0000
0.8966 1.8966 0.0000
0.8966 1.9310 0.0000
0.8966 1.9655 0.0000
0.8966 2.0000 0.0000
0.9655 1.0000 0.0000
0.9655 1.0345 0.0000
0.9655 1.0690 0.0000
0.9655 1.1034 0.0000
0.9655 1.1379 0.0000
0.9655 1.1724 0.0000
0.9655 1.2069 0.0000
0.9655 1.2414 0.0000
0.9655 1.2759 0.0000
0.9655 1.3103 0.0000
0.9655 1.3448 0.0000
0.9655 1.3793 0.0000
0.9655 1.4138 0.0000
0.9655 1.4483 0.0000
0.9655 1.4828 0.0000
0.9655 1.5172 0.0000
0.9655 1.5517 0.0000
0.9655 1.5862 0.0000
0.9655 1.6207 0.0000
0.9655 1.6552 0.0000
0.9655 1.6897 0.0000
0.9655 1.7241 0.0000
0.9655 1.7586 0.0000
0.9655 1.7931 0.0000
0.9655 1.8276 0.0000
0.9655 1.8621 0.0000
0.9655 1.8966 0.0000
0.9655 1.9310 0.0000
0.9655 1.9655 0.0000
0.9655 2.0000 0.0000
1.0345 1.0000 0.0000
1.0345 1.0345 0.0000
1.0345 1.0690 0.0000
1.0345 1.1034 0.0000
1.0345 1.1379 0.0000
1.0345 1.1724 0.0000
1.0345 1.2069 0.0000
1.0345 1.2414 0.0000
1.0345 1.2759 0.0000
1.0345 1.3103 0.0000
1.0345 1.3448 0.0000
[...]
         <PointData>
            <DataArray Name="fValues" NumberOfComponents="3" format="ascii" type="Float64">
-1.46490e-18  3.98881e-18        00000 
 4.41554e-18 -5.51943e-19        00000 
-3.63869e-18 -5.09416e-18        00000 
 6.62903e-19 -1.07893e-17        00000 
-8.00511e-18  1.45548e-18        00000 
 5.92163e-18  5.07285e-18        00000 
-3.27482e-18 -5.82190e-18        00000 
-8.73203e-18 -4.11457e-18        00000 
 2.91095e-18 -2.91095e-18        00000 
-9.86575e-18  1.82957e-18        00000 
 7.27738e-19 -5.82190e-18        00000 
 1.08808e-17  6.85762e-18        00000 
-5.09416e-18 -1.60102e-17        00000 
 4.27303e-18  1.54276e-17        00000 
-7.64125e-18 -1.30993e-17        00000 
 3.56596e-18  1.00578e-18        00000 
-4.36643e-18  1.16438e-17        00000 
-1.34399e-18 -8.85150e-18        00000 
-5.82190e-18 -5.82190e-18        00000 
-3.38309e-18  3.10879e-18        00000 
-2.91095e-18 -8.36898e-18        00000 
 8.16406e-18  7.36367e-18        00000 
 6.18577e-18  1.71018e-17        00000 
-4.41173e-18 -7.72625e-18        00000 
-4.91223e-18  6.36771e-18        00000 
 3.03457e-18  2.30327e-18        00000 
-6.73157e-18  2.00128e-18        00000 
-1.37408e-19  3.30925e-18        00000 
-8.44077e-18 -6.51407e-18        00000 
 1.55881e-17  3.55393e-18        00000 
 3.37361e-03 -7.65562e-02        00000 
 5.82169e-02  2.65678e-03        00000 
 3.76506e-03 -1.04568e-01        00000 
-8.68046e-02  6.83733e-02        00000 
-3.35994e-02  1.25257e-02        00000 
 1.70795e-02  1.11134e-01        00000 
-4.17788e-02 -4.64509e-02        00000 
 3.01855e-02  2.17898e-02        00000 
-4.54036e-02 -2.90440e-02        00000 
-6.33438e-02 -1.04574e-01        00000 
 2.00667e-02 -6.23688e-02        00000 
 5.28293e-03  3.44919e-02        00000 
 7.67651e-02  1.01058e-02        00000 
-2.30221e-02 -1.57381e-01        00000 
-6.22473e-02 -3.80721e-02        00000 
-7.90967e-02  3.89131e-02        00000 
-1.08391e-03 -3.48957e-02        00000 
-2.82944e-02  1.12320e-01        00000 
 2.45365e-02 -1.13778e-01        00000 
 6.20177e-02 -8.10673e-02        00000 
-3.40870e-03 -7.51286e-02        00000 
 3.58882e-02  4.42111e-02        00000 
-8.80466e-02  1.06127e-02        00000 
-4.24774e-02  1.38850e-01        00000 
-1.97125e-02  9.18293e-02        00000 
-1.61726e-02 -1.79819e-02        00000 
 4.56809e-02 -1.36690e-03        00000 
-7.12459e-02  1.35481e-01        00000 
-5.98106e-02 -1.36513e-01        00000 
 5.59919e-02 -1.97483e-02        00000 
-1.27333e-03  5.74938e-03        00000 
-3.08016e-03  6.33854e-02        00000 
-5.26403e-02  2.58120e-02        00000 
-3.97210e-02 -2.08032e-02        00000 
 2.03337e-02 -4.27258e-02        00000 
-7.80078e-02 -5.44323e-02        00000 
 7.61740e-03 -6.38785e-02        00000 
-3.30896e-02  1.00035e-01        00000 
-3.87077e-03 -4.70453e-02        00000 
 3.75560e-02 -1.30022e-01        00000 
 9.21802e-03  1.00009e-02        00000 
 8.84332e-04 -7.04893e-02        00000 
 5.18885e-02 -1.02520e-02        00000 
-2.46953e-02 -1.24245e-01        00000 
 1.56168e-02 -6.38257e-03        00000 
-6.57922e-02  2.94094e-03        00000 
-2.00724e-02 -5.49573e-02        00000 
 1.18222e-02 -5.25229e-02        00000 
 7.62545e-02  2.40150e-02        00000 
 7.56322e-02 -7.19572e-02        00000 
 1.88980e-02  3.93688e-02        00000 
-8.98148e-02 -1.14682e-01        00000 
-1.41205e-02  1.98535e-02        00000 
-7.38931e-02  7.38623e-02        00000 
 1.18744e-02 -1.06154e-01        00000 
-5.37318e-02  3.53771e-02        00000 
-6.28650e-02 -1.45302e-01        00000 
 3.64296e-02 -2.48320e-03        00000 
-5.48007e-02 -6.77500e-02        00000 
-8.46291e-02 -4.73328e-02        00000 
 6.31262e-02  2.18325e-02        00000 
-2.95771e-03 -1.30630e-01        00000 
 8.66534e-02  9.03323e-02        00000 
 7.98254e-02 -7.27908e-02        00000 
 5.77086e-02 -1.30634e-01        00000 
-1.54722e-01 -3.55245e-02        00000 
-1.35012e-02 -6.75791e-02        00000 
-1.78176e-02  1.16128e-01        00000 
-1.76372e-02 -1.93082e-01        00000 
 3.63498e-02 -1.09209e-01        00000 
 6.54480e-02  8.70349e-02        00000 
-2.59802e-02 -3.71882e-02        00000 
-1.14655e-03  3.48470e-03        00000 
-7.31248e-02 -8.27757e-02        00000 
-1.76884e-02  1.31917e-01        00000 
-3.62374e-02 -1.66282e-02        00000 
 1.63263e-02 -5.48148e-02        00000 
-4.65467e-02 -4.41514e-02        00000 
-2.09813e-03  1.72281e-02        00000 
-7.58289e-02 -5.20025e-02        00000 
-2.10791e-02  5.89909e-02        00000 
 9.09181e-02 -1.60313e-01        00000 
-5.76976e-02 -4.33818e-03        00000 
-5.07472e-02  7.78951e-02        00000 
-1.63636e-02  5.35900e-02        00000 
 3.47497e-02  3.51803e-02        00000 
 2.50132e-02 -1.80493e-01        00000 
 2.95760e-02 -6.79303e-02        00000 
 1.47321e-02 -2.09866e-02        00000 
-2.89528e-02  2.42267e-02        00000 
 7.01358e-02  2.23790e-02        00000 
-2.17492e-02 -2.23506e-02        00000 
 3.64350e-02  2.23603e-02        00000 
-6.80418e-03 -6.37742e-02        00000 
 9.25298e-03 -2.24298e-03        00000 
 4.70688e-02 -5.22778e-02        00000 
 5.83702e-02  5.17046e-02        00000 
-3.43390e-02  3.17911e-02        00000 
-5.25372e-03 -1.41714e-01        00000 
-1.87575e-02 -9.23276e-02        00000 
-2.37827e-02 -6.49815e-02        00000 
-7.16531e-03  6.97364e-02        00000 
-2.54010e-02 -9.41077e-02        00000 
-2.37531e-02 -3.43968e-02        00000 
-4.41552e-02  6.64210e-02        00000 
 1.24631e-01  1.47500e-01        00000 
-1.22536e-02  2.50857e-02        00000 
 8.36860e-02  2.41245e-02        00000 
-3.69569e-02 -9.89360e-02        00000 
-3.26781e-02  5.35000e-02        00000 
-1.06925e-01  3.07825e-02        00000 
 2.19860e-02 -5.95541e-02        00000 
 2.17894e-02 -1.77498e-01        00000 
-1.13243e-01 -1.19571e-02        00000 
 7.64073e-02 -6.21578e-02        00000 
-3.61184e-02  3.19957e-02        00000 
-6.78942e-02 -1.51689e-01        00000 
 1.33463e-02 -6.48930e-02        00000 
 2.61405e-02 -5.31679e-02        00000 
 2.20471e-02  1.12235e-02        00000 
 1.58193e-02  8.44288e-03        00000 
 1.74972e-02 -4.37498e-02        00000 
 5.55973e-02  6.14011e-02        00000 
 7.56773e-04 -5.43438e-02        00000 
 1.46455e-03 -1.64269e-03        00000 
 2.89380e-02 -2.12153e-03        00000 
-1.95739e-02 -7.26707e-03        00000 
-3.96214e-02 -1.29559e-01        00000 
-1.52133e-02 -2.56338e-03        00000 
-9.30476e-03 -1.48028e-01        00000 
 3.42566e-02 -9.31890e-02        00000 
 2.93175e-02 -4.56643e-02        00000 
-3.05089e-02 -4.09326e-02        00000 
 1.56961e-03 -3.10726e-02        00000 
-4.26495e-02  1.01294e-01        00000 
-1.42706e-02  1.60831e-01        00000 
 3.75920e-02  2.27193e-02        00000 
 2.76465e-02  2.56263e-02        00000 
-1.16445e-02 -1.08993e-01        00000 
 2.30207e-03  1.27353e-01        00000 
 3.73278e-02 -1.48920e-01        00000 
 5.60714e-02 -5.44930e-02        00000 
-1.49563e-02 -3.88755e-02        00000 
-6.40128e-02 -1.23208e-01        00000 
 1.17508e-02  2.10723e-02        00000 
-1.15105e-03 -6.57029e-02        00000 
 7.81427e-03  6.56549e-02        00000 
 2.56368e-02 -9.50878e-02        00000 
 6.95388e-02  4.11940e-02        00000 
-3.14492e-02 -2.73057e-02        00000 
-9.62901e-03 -3.87067e-02        00000 
-6.17724e-02 -1.45079e-01        00000 
 1.16894e-01  9.11772e-04        00000 
 6.19368e-02 -4.51744e-02        00000 
 8.05487e-02 -7.20224e-02        00000 
 3.74174e-02 -3.60565e-02        00000 
 5.18154e-02  8.64434e-02        00000 
-1.92497e-02 -1.32444e-01        00000 
-2.50678e-02 -1.02355e-01        00000 
 7.26778e-02 -3.94001e-02        00000 
 3.28697e-02 -2.87440e-02        00000 
 2.94010e-02 -8.40844e-02        00000 
 6.79607e-02 -1.54915e-02        00000 
-6.82171e-02 -1.07842e-02        00000 
-1.05040e-02  8.73260e-02        00000 
-1.46577e-02  1.08738e-02        00000 
-5.61278e-02  7.19081e-02        00000 
-5.72666e-02 -1.31455e-01        00000 
 4.40967e-02 -2.65573e-02        00000 
 4.80424e-02  3.69668e-02        00000 
 1.07641e-03  1.97092e-04        00000 
-4.52760e-02 -3.91261e-02        00000 
-4.15439e-02 -9.04167e-03        00000 
 1.12056e-03 -6.41924e-02        00000 
 9.69895e-02 -7.14264e-03        00000 
 3.38679e-02 -5.00985e-02        00000 
 3.53932e-02  5.11545e-02        00000 
 4.04363e-02 -1.84354e-01        00000 
-5.46345e-02  1.25691e-02        00000 
-5.65190e-02  2.83242e-03        00000 
 5.17452e-02 -8.14922e-02        00000 
-2.02987e-02 -1.37474e-01        00000 
-1.75183e-02  2.88946e-02        00000 
-6.16991e-02  3.61792e-02        00000 
 4.09977e-02 -6.84014e-03        00000 
 5.54900e-02 -4.12088e-02        00000 
-3.66595e-02  7.89260e-02        00000 
 4.11971e-03 -1.50910e-01        00000 
 1.40228e-02 -1.08968e-01        00000 
 8.15556e-02 -1.41128e-01        00000 
 8.14942e-02 -1.22201e-01        00000 
 9.64182e-03 -8.14556e-02        00000 
-2.25846e-02 -7.53824e-02        00000 
 8.80489e-02 -1.19868e-01        00000 
 3.72390e-02  1.57699e-02        00000 
 6.92163e-02 -1.89210e-03        00000 
-6.69331e-02  5.99045e-02        00000 
 9.09545e-02 -6.53526e-02        00000 
 3.88532e-02  3.19705e-02        00000 
 4.73705e-02 -1.61241e-01        00000 
 5.45739e-02 -4.74878e-02        00000 
-3.95172e-02 -1.25346e-01        00000 
 7.46559e-03 -2.36336e-02        00000 
 9.34442e-02  5.21181e-02        00000 
-2.26048e-02 -7.44732e-02        00000 
 4.36734e-02 -4.08066e-02        00000 
 2.79974e-02  1.07676e-01        00000 
-1.82861e-02 -8.65775e-02        00000 
-3.92639e-02  7.56363e-02        00000 
 1.41618e-02 -1.03567e-01        00000 
-4.35060e-02  2.53312e-02        00000 
-3.33255e-02 -2.57749e-02        00000 
-7.26481e-02 -1.09833e-01        00000 
 3.16022e-02  2.17846e-03        00000 
-3.26241e-02  5.65778e-02        00000 
 6.01593e-02 -1.03966e-01        00000 
-1.94125e-02 -3.57986e-02        00000 
 3.06015e-02  2.27740e-02        00000 
-1.11598e-02 -8.67020e-02        00000 
 9.86318e-02 -1.20308e-01        00000 
-1.70290e-02 -1.30673e-01        00000 
 1.74817e-02 -6.66178e-02        00000 
 7.39461e-02 -7.28669e-02        00000 
 3.13137e-02 -6.42431e-02        00000 
 4.79405e-02 -1.52785e-01        00000 
-3.29727e-02  1.45763e-01        00000 
-2.67519e-02 -1.60924e-02        00000 
-3.07705e-02 -6.58311e-02        00000 
 1.81146e-02 -1.10625e-01        00000 
-4.18027e-02 -1.96792e-01        00000 
-4.06674e-02 -1.67589e-01        00000 
-8.27258e-02  4.78135e-02        00000 
-8.28337e-03 -1.15531e-01        00000 
-5.66907e-02  5.81986e-02        00000 
 1.80480e-02 -2.67486e-03        00000 
-5.90322e-02 -1.14970e-03        00000 
-3.81013e-02  8.20380e-03        00000 
-5.48057e-03 -4.79158e-02        00000 
 6.17467e-03  1.38154e-01        00000 
 5.98709e-02  3.26603e-02        00000 
 3.56037e-03 -6.49884e-02        00000 
-2.64096e-02 -8.90375e-02        00000 
-6.91925e-04 -1.71126e-01        00000 
 2.76131e-02  3.46795e-03        00000 
-7.09520e-02 -3.54264e-02        00000 
 8.94054e-02 -1.48359e-01        00000 
 1.15075e-01 -2.05391e-02        00000 
 7.41587e-02 -8.69984e-02        00000 
 2.71387e-02 -1.88665e-02        00000 
 1.91277e-04 -9.94377e-02        00000 
 3.14652e-02  6.05514e-02        00000 
-5.78226e-02  1.02259e-01        00000 
 1.38239e-02 -8.42922e-02        00000 
-4.62901e-02  2.67875e-03        00000 
 3.88073e-02  5.78266e-02        00000 
-6.50075e-02  1.85745e-01        00000 
 5.58888e-02  1.09195e-01        00000 
-1.90422e-02 -1.12633e-01        00000 
-1.10792e-01 -5.92702e-03        00000 
 3.77722e-02 -4.53991e-02        00000 
 1.35224e-02 -7.70971e-02        00000 
-1.41963e-02 -2.61381e-02        00000 
-8.87447e-03 -8.64766e-02        00000 
-1.27421e-03 -3.09603e-02        00000 
-3.61128e-02  8.61594e-02        00000 
-1.10357e-01 -1.54357e-01        00000 
-6.99374e-02 -5.91139e-02        00000 
 5.56467e-02 -1.04104e-01        00000 
 1.40751e-02 -4.58874e-02        00000 
-3.30701e-02 -4.56174e-02        00000 
-5.01109e-02 -4.02289e-02        00000 
 6.98968e-02 -7.91658e-02        00000 
-8.99243e-02  2.03740e-02        00000 
 3.01967e-02 -1.22231e-02        00000 
-3.84408e-02 -2.75533e-02        00000 
 1.02399e-01  2.02499e-01        00000 
 6.10493e-02  8.68638e-02        00000 
-1.36200e-02  8.97501e-02        00000 
-1.90634e-02  5.73505e-02        00000 
-7.49118e-02 -6.80166e-02        00000 
 3.12630e-02  8.98431e-02        00000 
-2.27109e-02  1.49374e-01        00000 
 5.33361e-02 -5.22844e-02        00000 
-3.52377e-02  2.81659e-02        00000 
-8.51264e-02  1.37004e-01        00000 
 5.68929e-02  1.27477e-01        00000 
 6.72917e-03  7.35440e-02        00000 
 7.77742e-02  3.48173e-02        00000 
 9.35431e-03  5.93960e-03        00000 
 8.02675e-02  6.22213e-02        00000 
 7.40677e-02 -1.18267e-01        00000 
-4.03570e-02  1.40161e-02        00000 
 2.51296e-02  1.06140e-01        00000 
-4.04548e-02  2.23524e-03        00000 
-1.00327e-02  7.77405e-02        00000 
-1.12459e-02 -5.40385e-02        00000 
-4.65491e-02  7.08336e-02        00000 
 1.45063e-01 -1.29504e-01        00000 
 5.56563e-02 -1.15136e-01        00000 
 2.29289e-02 -6.10299e-02        00000 
 9.11924e-02 -7.42778e-02        00000 
 8.79328e-02 -3.00424e-02        00000 
 4.96130e-02 -1.50148e-02        00000 
-9.76996e-03 -4.40470e-02        00000 
-7.84242e-03 -9.50563e-02        00000 
-5.58007e-02  1.35823e-01        00000 
-1.36505e-02 -9.77387e-02        00000 
 2.63929e-02  8.59971e-02        00000 
-1.00316e-02  1.34730e-02        00000 
 1.80638e-03 -3.99880e-02        00000 
-6.32788e-02 -6.06216e-03        00000 
-5.25637e-02  1.11306e-01        00000 
-6.90490e-02 -7.57541e-02        00000 
-4.56573e-02 -1.08165e-01        00000 
 1.26130e-02  1.01307e-01        00000 
-5.28590e-03  1.40961e-02        00000 
 4.15885e-02  1.37760e-01        00000 
 1.09865e-01 -1.90642e-02        00000 
-3.77856e-02  1.23853e-01        00000 
-7.93643e-03  3.69855e-02        00000 
 4.80943e-02 -9.77872e-02        00000 
-1.53336e-02 -7.35471e-02        00000 
 1.47727e-02  9.65971e-02        00000 
-2.89592e-02  4.49021e-02        00000 
 4.24141e-02  2.14930e-02        00000 
 1.39218e-01 -6.19127e-02        00000 
-5.39544e-02  3.40892e-02        00000 
-4.79275e-02  5.29622e-02        00000 
 1.19891e-01  2.98773e-02        00000 
-9.36175e-03  8.55695e-02        00000 
 6.40629e-02  6.78347e-02        00000 
-1.00090e-02  2.71395e-02        00000 
 3.79251e-02 -3.72708e-02        00000 
 7.37329e-02  5.71395e-02        00000 
-3.14888e-02  1.00220e-01        00000 
-7.72022e-03 -8.97055e-03        00000 
-7.09480e-02 -7.64411e-02        00000 
-4.80852e-02 -8.76609e-02        00000 
 3.13678e-03  2.78893e-02        00000 
-5.95670e-02 -1.08755e-01        00000 
 1.35917e-02  3.47307e-04        00000 
-3.02753e-02 -1.81608e-01        00000 
-6.70699e-02 -1.41336e-02        00000 
-3.50502e-02 -1.39808e-01        00000 
-1.02436e-01 -7.62021e-02        00000 
 9.69949e-02  5.01995e-02        00000 
 3.67581e-02 -1.53867e-02        00000 
-1.17057e-02  6.97175e-02        00000 
-4.12185e-02  1.71515e-02        00000 
-5.84865e-02 -1.23183e-01        00000 
-1.96914e-02 -1.32053e-01        00000 
-1.99258e-05 -1.55620e-01        00000 
 6.37315e-02 -9.30008e-02        00000 
-1.62788e-03 -6.29641e-02        00000 
-4.45213e-02 -3.54370e-02        00000 
 1.05990e-03  9.57323e-02        00000 
-4.85065e-03  7.19967e-02        00000 
 4.15099e-03  1.45357e-01        00000 
-5.08705e-02  1.67439e-01        00000 
-4.77572e-02  7.67073e-02        00000 
-2.72514e-02  1.03889e-01        00000 
 2.93713e-02 -1.46654e-02        00000 
 1.28733e-02 -5.57570e-02        00000 
 4.11560e-02  3.06479e-02        00000 
-6.56199e-02  1.28467e-01        00000 
-2.85093e-02 -4.61209e-03        00000 
 1.98768e-02  7.23098e-02        00000 
 6.51407e-02  4.57226e-02        00000 
-9.30780e-02  5.49825e-02        00000 
-1.82323e-02  7.64914e-02        00000 
-5.22349e-02  5.60366e-02        00000 
 1.07216e-02 -4.78848e-02        00000 
 1.74172e-02  1.89439e-02        00000 
 2.62724e-03  3.39041e-02        00000 
-6.23384e-02 -6.02007e-02        00000 
-1.68435e-02 -1.94876e-02        00000 
 4.29899e-02  1.75624e-01        00000 
 6.97148e-02  1.91250e-02        00000 
 4.97030e-02 -6.38294e-02        00000 
 6.57107e-02 -1.26853e-01        00000 
 4.92162e-02 -1.00562e-01        00000 
 5.89621e-02  5.25535e-03        00000 
 3.80731e-02  4.46529e-02        00000 
 5.72865e-02  1.06439e-01        00000 
-9.12545e-02 -4.70771e-02        00000 
 7.40540e-03  1.54032e-01        00000 
 3.54038e-02  6.88661e-02        00000 
 2.56513e-02 -4.90722e-02        00000 
 8.31853e-02  1.78621e-01        00000 
 7.24664e-02 -3.18570e-02        00000 
-1.05870e-02  4.75901e-02        00000 
-3.42302e-02 -1.32917e-01        00000 
 4.36226e-03  5.17937e-03        00000 
 1.80368e-02 -3.77639e-02        00000 
 7.36763e-02  1.47525e-01        00000 
-7.75176e-02 -2.36136e-02        00000 
 1.24817e-02  6.94640e-02        00000 
-4.90209e-02  6.70872e-02        00000 
 7.98293e-04  1.35802e-01        00000 
-6.58394e-03  2.06803e-01        00000 
 1.02863e-01  7.20525e-02        00000 
-7.19731e-02 -1.34076e-02        00000 
 1.31887e-02 -1.19201e-01        00000 
-1.97013e-02 -1.32174e-01        00000 
 7.79473e-02 -1.99440e-02        00000 
-1.20755e-02  1.16440e-01        00000 
-7.36164e-02  2.69227e-02        00000 
-1.34899e-02 -2.08536e-02        00000 
-2.00275e-03 -1.14396e-02        00000 
 3.63763e-02  2.46089e-02        00000 
-1.85064e-02 -5.74947e-02        00000 
-7.19564e-02  1.10143e-01        00000 
-1.19687e-01  4.15238e-02        00000 
-6.29846e-02 -4.38005e-02        00000 
 1.52173e-02  5.64858e-02        00000 
 2.73938e-02  5.57748e-02        00000 
-5.19808e-02 -3.73057e-02        00000 
-6.08455e-02 -8.29091e-03        00000 
-4.21065e-02  2.08578e-01        00000 
-3.59638e-02 -6.93154e-03        00000 
-2.19424e-02  1.07161e-01        00000 
-9.17815e-02 -1.60675e-01        00000 
-4.72560e-02  3.77354e-02        00000 
 1.60720e-02  1.00570e-01        00000 
-1.45584e-03  7.75672e-03        00000 
-5.29143e-02 -1.03586e-02        00000 
-1.30243e-02 -4.42742e-03        00000 
 4.16808e-02 -1.24555e-01        00000 
-4.11777e-02  1.47617e-01        00000 
 4.70446e-03  1.02921e-01        00000 
 8.83370e-02 -8.82835e-03        00000 
 5.57331e-02  1.48122e-01        00000 
 1.09376e-01 -7.13866e-02        00000 
 1.92506e-02 -1.47711e-01        00000 
-2.16744e-03 -4.41500e-02        00000 
 1.85369e-02  7.79051e-02        00000 
-5.35242e-02  1.04019e-01        00000 
-5.33400e-02  1.17017e-01        00000 
-6.51106e-02  7.44998e-03        00000 
-7.89590e-02  2.06665e-01        00000 
-2.05593e-02 -9.26098e-02        00000 
-5.93640e-02 -3.61775e-02        00000 
-4.80430e-02  5.85179e-02        00000 
 4.19945e-02 -6.29469e-02        00000 
 5.03608e-02 -8.00015e-03        00000 
-8.46927e-02  1.08882e-01        00000 
-2.40662e-02 -1.12232e-01        00000 
 2.72881e-02  1.74637e-01        00000 
 3.00133e-02  8.29409e-02        00000 
-8.26903e-02  4.34451e-02        00000 
 1.15670e-02 -5.70708e-02        00000 
 1.12625e-02 -3.83961e-02        00000 
-3.14269e-02 -1.85393e-02        00000 
 3.31232e-02 -8.34781e-02        00000 
 9.70144e-02 -1.23654e-01        00000 
 1.21448e-02  7.18485e-02        00000 
 5.27364e-02  2.40635e-02        00000 
-5.74658e-02  2.90468e-02        00000 
 1.87520e-02 -4.86288e-02        00000 
 1.96388e-02  1.50289e-01        00000 
 4.43350e-02 -4.60029e-02        00000 
 4.27814e-02  1.73821e-03        00000 
 8.18654e-02 -7.39742e-02        00000 
-8.07123e-03 -1.06593e-01        00000 
 2.02942e-02  1.93395e-01        00000 
-1.79155e-02  9.96985e-03        00000 
-6.77694e-02  1.38823e-01        00000 