<?xml version="1.0" encoding="utf-8"?>
<VTKFile byte_order="LittleEndian" type="UnstructuredGrid" version="0.1">
   <UnstructuredGrid>
      <Piece NumberOfCells="3364" NumberOfPoints="1741">
         <Points>
            <DataArray Name="Points" NumberOfComponents="3" format="ascii" type="Float32">
0.0000 1.0000 0.0000
0.0000 1.0345 0.0000
0.0000 1.0690 0.0000
0.0000 1.1034 0.0000
0.0000 1.1379 0.0000
0.0000 1.1724 0.0000
0.0000 1.2069 0.0000
0.0000 1.2414 0.0000
0.0000 1.2759 0.0000
0.0000 1.3103 0.0000
0.0000 1.3448 0.0000
0.0000 1.3793 0.0000
0.0000 1.4138 0.0000
0.0000 1.4483 0.0000
0.0000 1.4828 0.0000
0.0000 1.5172 0.0000
0.0000 1.5517 0.0000
0.0000 1.5862 0.0000
0.0000 1.6207 0.0000
0.0000 1.6552 0.0000
0.0000 1.6897 0.0000
0.0000 1.7241 0.0000
0.0000 1.7586 0.0000
0.0000 1.7931 0.0000
0.0000 1.8276 0.0000
0.0000 1.8621 0.0000
0.0000 1.8966 0.0000
0.0000 1.9310 0.0000
0.0000 1.9655 0.0000
0.0000 2.0000 0.0000
0.0690 1.0000 0.0000
0.0690 1.0345 0.0000
0.0690 1.0690 0.0000
0.0690 1.1034 0.0000
0.0690 1.1379 0.0000
0.0690 1.1724 0.0000
0.0690 1.2069 0.0000
0.0690 1.2414 0.0000
0.0690 1.2759 0.0000
0.0690 1.3103 0.0000
0.0690 1.3448 0.0000
0.0690 1.3793 0.0000
0.0690 1.4138 0.0000
0.0690 1.4483 0.0000
0.0690 1.4828 0.0000
0.0690 1.5172 0.0000
0.0690 1.5517 0.0000
0.0690 1.5862 0.0000
0.0690 1.6207 0.0000
0.0690 1.6552 0.0000
0.0690 1.6897 0.0000
0.0690 1.7241 0.0000
0.0690 1.7586 0.0000
0.0690 1.7931 0.0000
0.0690 1.8276 0.0000
0.0690 1.8621 0.0000
0.0690 1.8966 0.0000
0.0690 1.9310 0.0000
0.0690 1.9655 0.0000
0.0690 2.0000 0.0000
0.1379 1.0000 0.0000
0.1379 1.0345 0.0000
0.1379 1.0690 0.0000
0.1379 1.1034 0.0000
0.1379 1.1379 0.0000
0.1379 1.1724 0.0000
0.1379 1.2069 0.0000
0.1379 1.2414 0.0000
0.1379 1.2759 0.0000
0.1379 1.3103 0.0000
0.1379 1.3448 0.0000
0.1379 1.3793 0.0000
0.1379 1.4138 0.0000
0.1379 1.4483 0.0000
0.1379 1.4828 0.0000
0.1379 1.5172 0.0000
0.1379 1.5517 0.0000
0.1379 1.5862 0.0000
0.1379 1.6207 0.0000
0.1379 1.6552 0.0000
0.1379 1.6897 0.0000
0.1379 1.7241 0.0000
0.1379 1.7586 0.0000
0.1379 1.7931 0.0000
0.1379 1.8276 0.0000
0.1379 1.8621 0.0000
0.1379 1.8966 0.0000
0.1379 1.9310 0.0000
0.1379 1.9655 0.0000
0.1379 2.0000 0.0000
0.2069 1.0000 0.0000
0.2069 1.0345 0.0000
0.2069 1.0690 0.0000
0.2069 1.1034 0.0000
0.2069 1.1379 0.0000
0.2069 1.1724 0.0000
0.2069 1.2069 0.0000
0.2069 1.2414 0.0000
0.2069 1.2759 0.0000
0.2069 1.3103 0.0000
0.2069 1.3448 0.0000
0.2069 1.3793 0.0000
0.2069 1.4138 0.0000
0.2069 1.4483 0.0000
0.2069 1.4828 0.0000
0.2069 1.5172 0.0000
0.2069 1.5517 0.0000
0.2069 1.5862 0.0000
0.2069 1.6207 0.0000
0.2069 1.6552 0.0000
0.2069 1.6897 0.0000
0.2069 1.7241 0.0000
0.2069 1.7586 0.0000
0.2069 1.7931 0.0000
0.2069 1.8276 0.0000
0.2069 1.8621 0.0000
0.2069 1.8966 0.0000
0.2069 1.9310 0.0000
0.2069 1.9655 0.0000
0.2069 2.0000 0.0000
0.2759 1.0000 0.0000
0.2759 1.0345 0.0000
0.2759 1.0690 0.0000
0.2759 1.1034 0.0000
0.2759 1.1379 0.0000
0.2759 1.1724 0.0000
0.2759 1.2069 0.0000
0.2759 1.2414 0.0000
0.2759 1.2759 0.0000
0.2759 1.3103 0.0000
0.2759 1.3448 0.0000
0.2759 1.3793 0.0000
0.2759 1.4138 0.0000
0.2759 1.4483 0.0000
0.2759 1.4828 0.0000
0.2759 1.5172 0.0000
0.2759 1.5517 0.0000
0.2759 1.5862 0.0000
0.2759 1.6207 0.0000
0.2759 1.6552 0.0000
0.2759 1.6897 0.0000
0.2759 1.7241 0.0000
0.2759 1.7586 0.0000
0.2759 1.7931 0.0000
0.2759 1.8276 0.0000
0.2759 1.8621 0.0000
0.2759 1.8966 0.0000
0.2759 1.9310 0.0000
0.2759 1.9655 0.0000
0.2759 2.0000 0.0000
0.3448 1.0000 0.0000
0.3448 1.0345 0.0000
0.3448 1.0690 0.0000
0.3448 1.1034 0.0000
0.3448 1.1379 0.0000
0.3448 1.1724 0.0000
0.3448 1.2069 0.0000
0.3448 1.2414 0.0000
0.3448 1.2759 0.0000
0.3448 1.3103 0.0000
0.3448 1.3448 0.0000
0.3448 1.3793 0.0000
0.3448 1.4138 0.0000
0.3448 1.4483 0.0000
0.3448 1.4828 0.0000
0.3448 1.5172 0.0000
0.3448 1.5517 0.0000
0.3448 1.5862 0.0000
0.3448 1.6207 0.0000
0.3448 1.6552 0.0000
0.3448 1.6897 0.0000
0.3448 1.7241 0.0000
0.3448 1.7586 0.0000
0.3448 1.7931 0.0000
0.3448 1.8276 0.0000
0.3448 1.8621 0.0000
0.3448 1.8966 0.0000
0.3448 1.9310 0.0000
0.3448 1.9655 0.0000
0.3448 2.0000 0.0000
0.4138 1.0000 0.0000
0.4138 1.0345 0.0000
0.4138 1.0690 0.0000
0.4138 1.1034 0.0000
0.4138 1.1379 0.0000
0.4138 1.1724 0.0000
0.4138 1.2069 0.0000
0.4138 1.2414 0.0000
0.4138 1.2759 0.0000
0.4138 1.3103 0.0000
0.4138 1.3448 0.0000
0.4138 1.3793 0.0000
0.4138 1.4138 0.0000
0.4138 1.4483 0.0000
0.4138 1.4828 0.0000
0.4138 1.5172 0.0000
0.4138 1.5517 0.0000
0.4138 1.5862 0.0000
0.4138 1.6207 0.0000
0.4138 1.6552 0.0000
0.4138 1.6897 0.0000
0.4138 1.7241 0.0000
0.4138 1.7586 0.0000
0.4138 1.7931 0.0000
0.4138 1.8276 0.0000
0.4138 1.8621 0.0000
0.4138 1.8966 0.0000
0.4138 1.9310 0.0000
0.4138 1.9655 0.0000
0.4138 2.0000 0.0000
0.4828 1.0000 0.0000
0.4828 1.0345 0.0000
0.4828 1.0690 0.0000
0.4828 1.1034 0.0000
0.4828 1.1379 0.0000
0.4828 1.1724 0.0000
0.4828 1.2069 0.0000
0.4828 1.2414 0.0000
0.4828 1.2759 0.0000
0.4828 1.3103 0.0000
0.4828 1.3448 0.0000
0.4828 1.3793 0.0000
0.4828 1.4138 0.0000
0.4828 1.4483 0.0000
0.4828 1.4828 0.0000
0.4828 1.5172 0.0000
0.4828 1.5517 0.0000
0.4828 1.5862 0.0000
0.4828 1.6207 0.0000
0.4828 1.6552 0.0000
0.4828 1.6897 0.0000
0.4828 1.7241 0.0000
0.4828 1.7586 0.0000
0.4828 1.7931 0.0000
0.4828 1.8276 0.0000
0.4828 1.8621 0.0000
0.4828 1.8966 0.0000
0.4828 1.9310 0.0000
0.4828 1.9655 0.0000
0.4828 2.0000 0.0000
0.5517 1.0000 0.0000
0.5517 1.0345 0.0000
0.5517 1.0690 0.0000
0.5517 1.1034 0.0000
0.5517 1.1379 0.0000
0.5517 1.1724 0.0000
0.5517 1.2069 0.0000
0.5517 1.2414 0.0000
0.5517 1.2759 0.0000
0.5517 1.3103 0.0000
0.5517 1.3448 0.0000
0.5517 1.3793 0.0000
0.5517 1.4138 0.0000
0.5517 1.4483 0.0000
0.5517 1.4828 0.0000
0.5517 1.5172 0.0000
0.5517 1.5517 0.0000
0.5517 1.5862 0.0000
0.5517 1.6207 0.0000
0.5517 1.6552 0.0000
0.5517 1.6897 0.0000
0.5517 1.7241 0.0000
0.5517 1.7586 0.0000
0.5517 1.7931 0.0000
0.5517 1.8276 0.0000
0.5517 1.8621 0.0000
0.5517 1.8966 0.0000
0.5517 1.9310 0.0000
0.5517 1.9655 0.0000
0.5517 2.0000 0.0000
0.6207 1.0000 0.0000
0.6207 1.0345 0.0000
0.6207 1.0690 0.0000
0.6207 1.1034 0.0000
0.6207 1.1379 0.0000
0.6207 1.1724 0.0000
0.6207 1.2069 0.0000
0.6207 1.2414 0.0000
0.6207 1.2759 0.0000
0.6207 1.3103 0.0000
0.6207 1.3448 0.0000
0.6207 1.3793 0.0000
0.6207 1.4138 0.0000
0.6207 1.4483 0.0000
0.6207 1.4828 0.0000
0.6207 1.5172 0.0000
0.6207 1.5517 0.0000
0.6207 1.5862 0.0000
0.6207 1.6207 0.0000
0.6207 1.6552 0.0000
0.6207 1.6897 0.0000
0.6207 1.7241 0.0000
0.6207 1.7586 0.0000
0.6207 1.7931 0.0000
0.6207 1.8276 0.0000
0.6207 1.8621 0.0000
0.6207 1.8966 0.0000
0.6207 1.9310 0.0000
0.6207 1.9655 0.0000
0.6207 2.0000 0.0000
0.6897 1.0000 0.0000
0.6897 1.0345 0.0000
0.6897 1.0690 0.0000
0.6897 1.1034 0.0000
0.6897 1.1379 0.0000
0.6897 1.1724 0.0000
0.6897 1.2069 0.0000
0.6897 1.2414 0.0000
0.6897 1.2759 0.0000
0.6897 1.3103 0.0000
0.6897 1.3448 0.0000
0.6897 1.3793 0.0000
0.6897 1.4138 0.0000
0.6897 1.4483 0.0000
0.6897 1.4828 0.0000
0.6897 1.5172 0.0000
0.6897 1.5517 0.0000
0.6897 1.5862 0.0000
0.6897 1.6207 0.0000
0.6897 1.6552 0.0000
0.6897 1.6897 0.0000
0.6897 1.7241 0.0000
0.6897 1.7586 0.0000
0.6897 1.7931 0.0000
0.6897 1.8276 0.0000
0.6897 1.8621 0.0000
0.6897 1.8966 0.0000
0.6897 1.9310 0.0000
0.6897 1.9655 0.0000
0.6897 2.0000 0.0000
0.7586 1.0000 0.0000
0.7586 1.0345 0.0000
0.7586 1.0690 0.0000
0.7586 1.1034 0.0000
0.7586 1.1379 0.0000
0.7586 1.1724 0.0000
0.7586 1.2069 0.0000
0.7586 1.2414 0.0000
0.7586 1.2759 0.0000
0.7586 1.3103 0.0000
0.7586 1.3448 0.0000
0.7586 1.3793 0.0000
0.7586 1.4138 0.0000
0.7586 1.4483 0.0000
0.7586 1.4828 0.0000
0.7586 1.5172 0.0000
0.7586 1.5517 0.0000
0.7586 1.5862 0.0000
0.7586 1.6207 0.0000
0.7586 1.6552 0.0000
0.7586 1.6897 0.0000
0.7586 1.7241 0.0000
0.7586 1.7586 0.0000
0.7586 1.7931 0.0000
0.7586 1.8276 0.0000
0.7586 1.8621 0.0000
0.7586 1.8966 0.0000
0.7586 1.9310 0.0000
0.7586 1.9655 0.0000
0.7586 2.0000 0.0000
0.8276 1.0000 0.0000
0.8276 1.0345 0.0000
0.8276 1.0690 0.0000
0.8276 1.1034 0.0000
0.8276 1.1379 0.0000
0.8276 1.1724 0.0000
0.8276 1.2069 0.0000
0.8276 1.2414 0.0000
0.8276 1.2759 0.0000
0.8276 1.3103 0.0000
0.8276 1.3448 0.0000
0.8276 1.3793 0.0000
0.8276 1.4138 0.0000
0.8276 1.4483 0.0000
0.8276 1.4828 0.0000
0.8276 1.5172 0.0000
0.8276 1.5517 0.0000
0.8276 1.5862 0.0000
0.8276 1.6207 0.0000
0.8276 1.6552 0.0000
0.8276 1.6897 0.0000
0.8276 1.7241 0.0000
0.8276 1.7586 0.0000
0.8276 1.7931 0.0000
0.8276 1.8276 0.0000
0.8276 1.8621 0.0000
0.8276 1.8966 0.0000
0.8276 1.9310 0.0000
0.8276 1.9655 0.0000
0.8276 2.0000 0.0000
0.8966 1.0000 0.0000
0.8966 1.0345 0.0000
0.8966 1.0690 0.0000
0.8966 1.1034 0.0000
0.8966 1.1379 0.0000
0.8966 1.1724 0.0000
0.8966 1.2069 0.0000
0.8966 1.2414 0.0000
0.8966 1.2759 0.0000
0.8966 1.3103 0.0000
0.8966 1.3448 0.0000
0.8966 1.3793 0.0000
0.8966 1.4138 0.0000
0.8966 1.4483 0.0000
0.8966 1.4828 0.0000
0.8966 1.5172 0.0000
0.8966 1.5517 0.0000
0.8966 1.5862 0.0000
0.8966 1.6207 0.0000
0.8966 1.6552 0.0000
0.8966 1.6897 0.0000
0.8966 1.7241 0.0000
0.8966 1.7586 0.0000
0.8966 1.7931 0.0000
0.8966 1.8276 0.0000
0.8966 1.8621 0.0000
0.8966 1.8966 0.0000
0.8966 1.9310 0.0000
0.8966 1.9655 0.0000
0.8966 2.0000 0.0000
0.9655 1.0000 0.0000
0.9655 1.0345 0.0000
0.9655 1.0690 0.0000
0.9655 1.1034 0.0000
0.9655 1.1379 0.0000
0.9655 1.1724 0.0000
0.9655 1.2069 0.0000
0.9655 1.2414 0.0000
0.9655 1.2759 0.0000
0.9655 1.3103 0.0000
0.9655 1.3448 0.0000
0.9655 1.3793 0.0000
0.9655 1.4138 0.0000
0.9655 1.4483 0.0000
0.9655 1.4828 0.0000
0.9655 1.5172 0.0000
0.9655 1.5517 0.0000
0.9655 1.5862 0.0000
0.9655 1.6207 0.0000
0.9655 1.6552 0.0000
0.9655 1.6897 0.0000
0.9655 1.7241 0.0000
0.9655 1.7586 0.0000
0.9655 1.7931 0.0000
0.9655 1.8276 0.0000
0.9655 1.8621 0.0000
0.9655 1.8966 0.0000
0.9655 1.9310 0.0000
0.9655 1.9655 0.0000
0.9655 2.0000 0.0000
1.0345 1.0000 0.0000
1.0345 1.0345 0.0000
1.0345 1.0690 0.0000
1.0345 1.1034 0.0000
1.0345 1.1379 0.0000
1.0345 1.1724 0.0000
1.0345 1.2069 0.0000
1.0345 1.2414 0.0000
1.0345 1.2759 0.0000
1.0345 1.3103 0.0000
1.0345 1.3448 0.0000
[...]
         <PointData>
            <DataArray Name="fValues" NumberOfComponents="3" format="ascii" type="Float64">
-2.81058e-18 -2.15220e-18        00000 
-3.67962e-18 -2.94370e-18        00000 
 3.41127e-18 -2.54708e-18        00000 
-9.89783e-18  7.08621e-18        00000 
-1.00064e-17 -5.09416e-18        00000 
 1.24258e-18 -3.09353e-18        00000 
-6.18577e-18 -5.09416e-18        00000 
-1.31438e-18  2.27673e-17        00000 
 7.27738e-19 -5.27610e-18        00000 
-6.25940e-18  4.93382e-18        00000 
 8.00511e-18  1.63741e-18        00000 
-7.85912e-18 -1.01721e-18        00000 
-8.41447e-19 -1.45548e-18        00000 
 5.80001e-19 -5.43879e-18        00000 
 8.41447e-19  3.27482e-18        00000 
 2.17158e-19  1.78298e-18        00000 
-3.63869e-18 -1.00064e-18        00000 
 1.24618e-18  6.27140e-18        00000 
-3.63869e-18  7.00448e-18        00000 
 1.07893e-17 -1.04750e-17        00000 
-9.09672e-18  6.18577e-18        00000 
-2.58359e-19  2.63984e-18        00000 
-5.45803e-18 -2.01947e-17        00000 
 3.04021e-18  1.59783e-17        00000 
-1.45548e-18 -1.56464e-17        00000 
-1.98048e-18  1.25853e-17        00000 
 1.09161e-18 -1.27354e-17        00000 
-6.04596e-18 -2.83977e-18        00000 
 4.58737e-18 -3.44053e-18        00000 
-8.84850e-18  1.72261e-17        00000 
 3.19502e-03 -2.51466e-02        00000 
 3.00309e-02  8.49134e-02        00000 
-1.03873e-02  6.38626e-02        00000 
 4.97217e-03  3.82027e-02        00000 
 7.13894e-03  8.59650e-02        00000 
 1.78822e-02 -4.30521e-02        00000 
-5.03635e-02  1.94275e-02        00000 
 4.93543e-02 -1.42331e-01        00000 
 1.34267e-02  1.27541e-01        00000 
 6.48148e-02 -2.23055e-02        00000 
-6.73801e-02 -5.38587e-04        00000 
-1.87978e-03  4.86428e-02        00000 
 4.71155e-03 -2.78299e-02        00000 
 2.38137e-03  3.62177e-03        00000 
 2.87175e-02  1.06080e-01        00000 
-1.80312e-02  1.75271e-01        00000 
-4.95366e-02  1.01893e-01        00000 
-4.47830e-02 -1.02224e-02        00000 
 3.44757e-02 -2.36351e-02        00000 
-2.85351e-03  1.34833e-01        00000 
-9.75074e-02  2.51854e-02        00000 
-3.68508e-02 -7.82754e-03        00000 
 8.17619e-03 -4.61769e-02        00000 
 1.76163e-02 -1.74341e-01        00000 
 1.22737e-02  9.68039e-03        00000 
-3.75700e-02 -2.83812e-02        00000 
-3.54718e-02  1.05637e-01        00000 
 4.39614e-03 -8.67589e-02        00000 
-5.00982e-02 -3.18687e-02        00000 
-5.29917e-02  2.96348e-02        00000 
 4.20848e-02  2.99299e-02        00000 
 8.26385e-02 -9.86407e-02        00000 
-1.29656e-02  2.68836e-02        00000 
 4.34813e-02  1.58365e-02        00000 
 2.93180e-02 -9.49420e-02        00000 
-5.62550e-02 -5.62803e-02        00000 
 1.93766e-02  4.29470e-02        00000 
-1.12632e-02 -9.60514e-02        00000 
-3.48672e-02  4.41230e-02        00000 
-3.23845e-02  2.28124e-02        00000 
 3.24092e-03 -4.10395e-02        00000 
 1.05619e-03 -8.95596e-02        00000 
 1.81922e-02  1.03436e-02        00000 
 3.28255e-02 -1.58978e-02        00000 
-5.09703e-02  2.41260e-02        00000 
 4.33073e-02  3.24391e-02        00000 
 2.53790e-02  1.72968e-01        00000 
 6.73223e-02 -2.15509e-02        00000 
-6.11036e-02 -3.19116e-02        00000 
-8.66199e-03  1.38444e-01        00000 
 5.90894e-02 -1.59588e-02        00000 
-1.17431e-02 -1.06953e-01        00000 
 6.79937e-03  9.79908e-03        00000 
-5.24047e-04 -1.49259e-01        00000 
-2.97882e-02  8.62246e-02        00000 
 3.25435e-02 -1.71246e-02        00000 
-1.26139e-02 -4.90895e-03        00000 
-3.19654e-02 -1.76644e-01        00000 
 5.45606e-02  3.27043e-02        00000 
-4.80556e-02  4.36822e-02        00000 
-2.33525e-03  2.17731e-02        00000 
-7.05742e-02 -9.29077e-02        00000 
-1.67262e-02  7.58688e-02        00000 
-8.40367e-03  1.46271e-02        00000 
 1.70478e-02 -9.08254e-02        00000 
 1.79696e-02 -1.51537e-01        00000 
-4.36649e-02  7.30261e-02        00000 
 6.52305e-02  1.07530e-02        00000 
-5.51675e-02 -9.44179e-03        00000 
 4.14153e-02  2.02213e-02        00000 
 8.17849e-02 -1.91437e-02        00000 
 1.35491e-02 -6.30089e-02        00000 
-1.23354e-02 -6.99776e-02        00000 
-3.53421e-02 -7.18626e-02        00000 
 2.04271e-02  5.57624e-02        00000 
-3.16801e-03 -8.30337e-02        00000 
-9.23976e-02  1.11493e-02        00000 
 6.08943e-02  8.16283e-02        00000 
 5.59006e-02  2.97033e-02        00000 
-9.46309e-02  1.01234e-01        00000 
-8.98713e-02  6.50056e-02        00000 
 5.81282e-02 -1.00568e-01        00000 
 5.29584e-02 -2.06694e-02        00000 
-4.86315e-03  3.54150e-02        00000 
 6.60684e-02 -7.18640e-02        00000 
 6.78526e-02  3.04289e-02        00000 
-4.25892e-02 -5.86924e-02        00000 
 2.62432e-02 -1.21435e-01        00000 
 7.10926e-02  2.79195e-02        00000 
-2.45553e-02 -2.40344e-02        00000 
-8.14282e-02  2.84941e-02        00000 
-4.41380e-02  4.52635e-02        00000 
-3.72084e-02 -6.24182e-02        00000 
 6.36212e-02 -1.08228e-01        00000 
-4.53915e-02  7.87010e-03        00000 
 3.76014e-02 -1.03309e-01        00000 
-2.58485e-02  2.62958e-03        00000 
 7.65391e-03  6.83081e-02        00000 
-7.68441e-02 -5.25376e-02        00000 
 2.63256e-02 -5.78508e-02        00000 
-6.01797e-02 -1.27443e-01        00000 
-2.80381e-02  2.22395e-03        00000 
 7.32132e-02  3.64691e-02        00000 
-1.34202e-02  3.99419e-02        00000 
 2.08969e-02 -1.29354e-02        00000 
 1.71834e-02  9.65100e-02        00000 
 5.39364e-02  6.48912e-02        00000 
-4.95547e-02  6.02175e-02        00000 
 2.50252e-02 -6.66634e-02        00000 
-8.83540e-02  7.55823e-02        00000 
 4.16595e-03  2.28801e-02        00000 
 1.22651e-01  7.75978e-02        00000 
 4.20957e-02 -9.37834e-02        00000 
-2.96000e-02  2.62563e-02        00000 
-1.30586e-03 -9.76692e-04        00000 
 4.94987e-02  1.94169e-02        00000 
 2.84876e-02  4.11109e-02        00000 
 1.60850e-02 -6.66143e-02        00000 
-2.64501e-02  4.28789e-02        00000 
 5.14242e-02 -3.95071e-03        00000 
 2.78357e-03 -2.93492e-02        00000 
 2.17845e-03  1.16227e-02        00000 
 6.58783e-03 -1.56786e-02        00000 
 1.50177e-02  8.20415e-02        00000 
-2.29515e-04 -7.51422e-02        00000 
 5.14526e-02 -3.92367e-02        00000 
 3.85102e-02 -2.32792e-02        00000 
-3.72543e-02 -1.48964e-02        00000 
-1.87631e-02 -3.91011e-03        00000 
 2.70001e-03 -2.15955e-02        00000 
-5.19195e-02 -5.29925e-02        00000 
-6.37518e-02  7.46987e-02        00000 
 4.65748e-02 -3.83971e-02        00000 
 6.20255e-02 -4.91841e-02        00000 
-2.42968e-02  5.72527e-02        00000 
 3.81260e-02  8.66763e-02        00000 
-1.02354e-02  1.77948e-01        00000 
-1.50666e-02 -1.27945e-02        00000 
 2.11258e-02 -4.29798e-02        00000 
-3.64355e-02 -1.96517e-03        00000 
-4.44325e-02  1.77883e-02        00000 
 2.43356e-02  7.31280e-02        00000 
 1.70847e-02 -2.12187e-02        00000 
-1.50129e-02 -9.06161e-03        00000 
-3.29864e-02 -5.56136e-03        00000 
-8.07007e-02  4.41248e-02        00000 
-9.62097e-03 -1.17725e-01        00000 
 1.13192e-01  2.37295e-02        00000 
-1.51021e-02 -9.68390e-02        00000 
-6.57376e-02 -9.02062e-02        00000 
-2.18566e-02  4.11858e-02        00000 
 1.14222e-01  6.79527e-02        00000 
-2.54120e-02  1.43960e-02        00000 
-3.55477e-02  1.61308e-02        00000 
-3.03661e-02 -1.50981e-01        00000 
 7.80151e-02 -1.54239e-02        00000 
 5.99017e-02  1.71719e-02        00000 
-3.99044e-02  1.02053e-01        00000 
 1.80440e-02 -4.23343e-02        00000 
 1.35293e-02 -7.96345e-02        00000 
 4.07185e-02  1.36834e-01        00000 
 1.45736e-02 -5.80378e-02        00000 
-5.61061e-02 -2.58627e-03        00000 
 4.46443e-02 -8.17846e-02        00000 
-7.05951e-02  1.11320e-01        00000 
 7.13442e-03  2.29804e-03        00000 
-5.58489e-02  7.38538e-02        00000 
-5.43058e-03 -1.06501e-01        00000 
 7.16965e-02  5.90217e-03        00000 
-8.53597e-03  4.12042e-03        00000 
 6.93702e-02  6.33772e-02        00000 
-4.40396e-02 -1.69186e-01        00000 
-4.76296e-02 -8.20077e-02        00000 
-3.56195e-02 -7.55798e-02        00000 
 2.74913e-02  7.38314e-02        00000 
-9.20863e-05 -1.18923e-01        00000 
 9.32106e-03 -8.41515e-02        00000 
 4.08135e-02 -1.30106e-01        00000 
 3.24475e-02 -9.46712e-02        00000 
-1.69807e-02 -3.60629e-02        00000 
-5.52515e-02 -9.94944e-02        00000 
-1.19859e-02 -2.74116e-02        00000 
-8.23007e-04  6.72720e-02        00000 
 6.45637e-02 -4.73583e-02        00000 
 2.33329e-02 -2.28378e-01        00000 
 2.22096e-02  7.97553e-02        00000 
-1.31965e-03 -5.00549e-02        00000 
-2.39265e-02 -1.10779e-01        00000 
 3.91386e-02 -3.26304e-02        00000 
 3.21393e-02 -6.45469e-02        00000 
 3.35923e-02  7.09410e-03        00000 
 2.16265e-02  6.88121e-02        00000 
 1.15084e-01 -6.85359e-02        00000 
-1.71562e-02 -1.12682e-01        00000 
 4.09878e-02  1.03651e-01        00000 
-3.28197e-02  2.06826e-04        00000 
 2.65950e-02  6.20794e-02        00000 
 6.59474e-02 -5.02471e-02        00000 
 5.04142e-02 -4.69189e-02        00000 
-1.07054e-02  8.86072e-02        00000 
 6.78206e-02  2.26977e-01        00000 
-3.68917e-02 -9.78666e-02        00000 
-6.81239e-02 -1.01540e-01        00000 
 1.72432e-02 -1.98179e-02        00000 
 3.26282e-02 -6.31382e-02        00000 
-3.06325e-02 -2.72198e-03        00000 
 3.39841e-02 -1.73534e-02        00000 
 1.54214e-02 -5.48635e-02        00000 
-1.93447e-02 -1.10296e-01        00000 
 3.66778e-02 -9.83533e-02        00000 
-5.66226e-02 -4.85757e-02        00000 
-2.83927e-02 -2.57080e-02        00000 
-2.98931e-02 -4.63466e-03        00000 
-3.90719e-04 -3.83180e-02        00000 
-2.76015e-02 -7.88771e-02        00000 
-1.07521e-01  3.78463e-02        00000 
-1.54248e-03 -2.52440e-02        00000 
 5.37879e-03  5.95243e-02        00000 
 5.41899e-02  1.45506e-02        00000 
 4.62007e-03  5.13140e-02        00000 
-5.47449e-02  4.22261e-02        00000 
-7.85892e-03  6.76322e-02        00000 
-3.29122e-02  7.20174e-02        00000 
 1.65125e-02  1.19767e-01        00000 
-1.89214e-02  4.97438e-02        00000 
 4.37247e-02  1.58767e-01        00000 
-5.39140e-02  1.18964e-01        00000 
 6.82370e-02  1.15334e-01        00000 
-3.18872e-02  8.09748e-02        00000 
-1.10978e-02  6.40404e-02        00000 
-3.79135e-02  9.84650e-02        00000 
-2.04389e-02  1.10472e-01        00000 
 7.05081e-02 -1.05256e-01        00000 
-2.68986e-02  1.04917e-01        00000 
-6.72685e-02  3.10939e-03        00000 
 2.70308e-04 -4.46607e-02        00000 
-2.56337e-02 -3.11132e-03        00000 
 5.95312e-02 -4.13410e-02        00000 
 2.28863e-02 -8.92072e-02        00000 
 1.47778e-02  2.46888e-02        00000 
 7.18332e-02 -6.10910e-02        00000 
 3.33218e-02 -5.72798e-04        00000 
 3.04355e-02  6.70073e-02        00000 
-9.80780e-02 -1.13499e-02        00000 
-4.16280e-02 -2.87013e-04        00000 
-7.85380e-02 -3.18901e-02        00000 
 4.88964e-02 -2.50430e-02        00000 
-3.51890e-02  1.84609e-01        00000 
 5.81255e-02  1.38033e-01        00000 
 5.44802e-02  1.19146e-01        00000 
 3.39095e-02  1.38983e-01        00000 
-1.45503e-02  1.09757e-01        00000 
 1.20847e-02  8.32281e-02        00000 
 2.48553e-02  7.74840e-02        00000 
-8.73600e-02 -6.38505e-02        00000 
-1.24583e-02  1.23560e-01        00000 
-8.81876e-02  4.42942e-02        00000 
-4.52779e-02  4.58802e-02        00000 
-7.23288e-02  2.53316e-02        00000 
 2.81505e-02  1.13685e-01        00000 
-1.26604e-03  7.42585e-02        00000 
-1.77271e-02  1.57026e-01        00000 
-3.65483e-02  2.17912e-02        00000 
-4.99771e-03  1.67738e-01        00000 
 4.99636e-02 -4.43220e-02        00000 
 9.61223e-03 -1.31740e-01        00000 
 5.70016e-02 -5.45299e-02        00000 
 9.86720e-03 -1.39618e-01        00000 
 6.08222e-02  1.02630e-01        00000 
-3.21839e-02  3.09465e-02        00000 
 1.02541e-02 -5.64094e-03        00000 
 9.04470e-02  7.05039e-03        00000 
 6.89836e-02  4.08434e-02        00000 
-3.89526e-03 -1.47488e-02        00000 
-1.12671e-01  8.80763e-02        00000 
-7.50119e-03 -4.12048e-02        00000 
 2.14063e-02 -1.96008e-02        00000 
 1.17508e-02 -1.11854e-01        00000 
-4.01923e-03 -2.36906e-02        00000 
 1.92697e-02  2.21050e-03        00000 
 6.77387e-03  1.03715e-01        00000 
-1.28107e-02  5.33123e-02        00000 
-5.45946e-03  1.30607e-01        00000 
 3.51738e-02 -1.47010e-01        00000 
 4.19034e-02 -9.02276e-02        00000 
 6.16759e-04 -5.24309e-02        00000 
 2.64711e-02  1.47683e-01        00000 
-2.81513e-02 -1.23215e-01        00000 
-8.27469e-03  7.27353e-02        00000 
 3.25515e-02 -5.94708e-02        00000 
 1.31673e-01  4.42891e-02        00000 
 3.78650e-02  4.95442e-02        00000 
 6.81879e-02  8.81359e-03        00000 
-2.46640e-02 -6.56950e-03        00000 
 1.16502e-01 -1.10831e-01        00000 
 3.43777e-02 -5.16406e-02        00000 
 7.94661e-03  8.17522e-02        00000 
 6.44879e-02 -1.14809e-01        00000 
 5.54545e-02  2.01254e-01        00000 
-4.01023e-02  3.69110e-02        00000 
 6.46967e-02  1.56950e-02        00000 
-3.03032e-02 -1.06624e-01        00000 
-1.32465e-02  1.35895e-01        00000 
 6.21424e-02  8.78090e-02        00000 
 1.72254e-02  6.84438e-02        00000 
-9.22457e-03 -2.86945e-02        00000 
 2.05962e-02 -9.47741e-03        00000 
-5.23997e-02 -1.91381e-02        00000 
-2.56558e-02  9.32651e-02        00000 
-5.71060e-02  1.99396e-02        00000 
-2.69741e-02 -4.64159e-02        00000 
 2.20036e-02  4.50005e-02        00000 
 2.83387e-03  7.03630e-02        00000 
-8.71148e-03 -5.23834e-02        00000 
 5.46501e-03 -1.23029e-01        00000 
-6.02756e-03 -1.04324e-02        00000 
 2.02466e-02  4.07957e-02        00000 
 3.04578e-02 -1.02050e-01        00000 
-3.26921e-02  1.30735e-02        00000 
 4.27988e-02  3.76012e-02        00000 
-3.57765e-02 -6.07299e-02        00000 
-2.19921e-02  5.47326e-02        00000 
 8.92629e-02  7.68352e-02        00000 
-1.22542e-02  1.22928e-01        00000 
-3.54645e-02  1.33270e-03        00000 
-9.58912e-03 -2.24621e-02        00000 
-3.69187e-02  1.24418e-02        00000 
-3.87750e-02  8.16755e-02        00000 
-2.70064e-02  2.08872e-01        00000 
 3.30367e-02 -6.12589e-03        00000 
 2.16629e-02  1.09624e-01        00000 
-5.16502e-02 -9.38014e-02        00000 
-1.23427e-03 -3.39710e-02        00000 
 1.86271e-02  9.92039e-02        00000 
 3.95177e-02 -5.90766e-02        00000 
 3.92263e-02  1.06601e-01        00000 
-2.38549e-02  5.84403e-02        00000 
-2.52102e-02  1.67918e-01        00000 
 3.76241e-02  1.85153e-01        00000 
 1.04064e-01  1.66591e-01        00000 
 1.03886e-01  6.44181e-02        00000 
 2.48316e-02  1.23562e-01        00000 
-4.93868e-02  4.28849e-02        00000 
-5.57210e-02 -2.32517e-02        00000 
-6.14439e-03 -8.28156e-02        00000 
 5.13031e-02  3.65555e-02        00000 
 7.76401e-02  5.72395e-02        00000 
-6.30953e-03 -1.37994e-01        00000 
-5.03168e-02  5.29991e-02        00000 
-5.34359e-02 -3.69047e-02        00000 
-1.84901e-02  4.71435e-02        00000 
-3.30106e-02  1.64677e-01        00000 
 1.90083e-02  6.80357e-02        00000 
-6.61878e-03  8.91651e-02        00000 
-2.26260e-02  2.02560e-02        00000 
 4.06625e-02  4.82660e-02        00000 
 3.85404e-02  5.20495e-02        00000 
-1.35598e-02  6.34843e-02        00000 
 5.13109e-02  1.88828e-01        00000 
-7.39207e-03 -2.68497e-02        00000 
-4.40962e-03 -3.10687e-02        00000 
-1.08285e-03 -1.15977e-01        00000 
 8.77389e-03  2.99754e-02        00000 
 1.33477e-02  1.85737e-02        00000 
 1.68013e-02  3.11075e-02        00000 
-3.44535e-02  3.55782e-02        00000 
 2.98500e-02 -3.29452e-02        00000 
 4.88978e-02  1.68170e-02        00000 
 7.48094e-03  8.25043e-02        00000 
 3.13205e-02  7.07243e-02        00000 
 1.30015e-01  1.67462e-01        00000 
-1.73560e-03  8.94451e-02        00000 
 3.98220e-02 -2.88053e-03        00000 
 9.02200e-03  1.08430e-01        00000 
 1.14796e-02 -7.31009e-02        00000 
 2.08720e-02  1.36019e-01        00000 
-2.93783e-02  1.17907e-01        00000 
-8.35325e-02  5.28952e-02        00000 
-1.54541e-02 -1.29901e-01        00000 
-1.26736e-01  1.10211e-01        00000 
-2.20322e-02  3.13528e-03        00000 
-4.52433e-02  3.04469e-02        00000 
 6.17770e-04  1.05611e-01        00000 
 5.52372e-02  2.06881e-02        00000 
 6.31435e-04 -5.76019e-02        00000 
 3.49081e-02 -6.86102e-02        00000 
 8.00497e-02 -4.42401e-02        00000 
 2.60275e-02 -6.01700e-03        00000 
-2.92043e-02  1.11040e-01        00000 
-1.87711e-02  7.33286e-02        00000 
-3.94942e-02  1.49743e-02        00000 
-7.18234e-03  7.87970e-02        00000 
-3.50829e-02  1.40772e-02        00000 
 1.62005e-03 -7.85442e-02        00000 
-2.39057e-02  1.56851e-02        00000 
-1.07508e-01  3.41577e-02        00000 
 1.22063e-02 -1.20992e-02        00000 
 5.46568e-02 -1.94425e-02        00000 
-4.61475e-02  2.23635e-02        00000 
-2.76705e-02  5.33381e-02        00000 
 9.02639e-03  1.24113e-01        00000 
 8.94726e-02  7.27138e-02        00000 
 8.78361e-02  4.99449e-02        00000 
 4.71288e-02 -1.39953e-02        00000 
 1.72345e-03  1.41966e-01        00000 
 3.47816e-02  1.18703e-01        00000 
-8.79199e-02  9.05110e-02        00000 
 3.64943e-02  1.51053e-02        00000 
-1.47354e-02 -7.94752e-02        00000 
-1.05029e-02  8.62606e-02        00000 
 3.47874e-02 -7.14800e-02        00000 
-1.47859e-02  1.28309e-01        00000 
 8.08492e-03  1.62237e-01        00000 
 3.86596e-02 -9.67863e-02        00000 
 9.94260e-05 -7.94928e-02        00000 
-4.48846e-02 -4.31105e-02        00000 
-5.47576e-02 -4.28352e-02        00000 
 4.33941e-02  3.95366e-02        00000 
-1.04451e-03  1.11618e-01        00000 
-4.13375e-04 -2.36026e-02        00000 
-1.73980e-02 -2.72080e-02        00000 
-4.15123e-02 -1.25819e-01        00000 
-6.35615e-02 -1.34956e-02        00000 
 5.32173e-03 -5.98969e-02        00000 
-3.38469e-02  1.05282e-02        00000 
-3.09328e-02 -2.44828e-02        00000 
-1.73680e-02 -1.89490e-01        00000 
-1.45260e-02 -5.21052e-02        00000 
-6.75220e-02 -5.05246e-02        00000 
-2.03315e-02 -4.49815e-02        00000 
-4.15423e-02 -5.76286e-02        00000 
-4.46579e-02  2.70900e-02        00000 
-6.74748e-03  5.43949e-02        00000 
 7.45698e-02 -7.13036e-02        00000 
-5.97060e-02  1.52138e-01        00000 
-2.04445e-02 -1.48782e-01        00000 
 5.76625e-02  1.16353e-01        00000 
-3.92351e-04 -6.41725e-02        00000 
-2.83115e-02  3.78162e-02        00000 
 3.37579e-02 -6.48090e-02        00000 
-7.51928e-03 -5.25029e-02        00000 
-4.66718e-02  6.91633e-02        00000 
-7.34261e-02  3.18045e-02        00000 
-1.57649e-02 -1.25088e-01        00000 
-2.01544e-02  8.74350e-03        00000 
 7.58066e-02 -8.19628e-02        00000 
-6.96423e-03 -4.01930e-02        00000 
 1.54375e-02 -4.48196e-02        00000 
-7.29211e-03  1.35605e-01        00000 
 7.83073e-02 -1.23367e-02        00000 
 3.34620e-02  6.48314e-02        00000 
-1.54251e-02 -9.49133e-02        00000 
 1.41739e-02 -8.42258e-03        00000 
 7.47331e-02  1.77684e-03        00000 
-2.78217e-02  9.18114e-03        00000 
-3.64101e-02  1.28292e-02        00000 
-3.10980e-02 -4.53617e-02        00000 
 4.59325e-02 -2.31798e-02        00000 
 1.93838e-02  1.24301e-03        00000 
-2.61795e-02 -5.13193e-02        00000 
-1.46384e-01  1.98283e-02        00000 
-3.75862e-02 -4.10798e-02        00000 
-6.26155e-02  7.05110e-02        00000 
-8.46786e-02  9.11488e-02        00000 
-2.95918e-02  6.97353e-02        00000 
 3.26821e-02 -1.06806e-01        00000 
-1.81915e-02 -6.70202e-03        00000 