<?xml version="1.0" encoding="utf-8"?>
<VTKFile byte_order="LittleEndian" type="UnstructuredGrid" version="0.1">
   <UnstructuredGrid>
      <Piece NumberOfCells="3364" NumberOfPoints="1741">
         <Points>
            <DataArray Name="Points" NumberOfComponents="3" format="ascii" type="Float32">
0.0000 1.0000 0.0000
0.0000 1.0345 0.0000
0.0000 1.0690 0.0000
0.0000 1.1034 0.0000
0.0000 1.1379 0.0000
0.0000 1.1724 0.0000
0.0000 1.2069 0.0000
0.0000 1.2414 0.0000
0.0000 1.2759 0.0000
0.0000 1.3103 0.0000
0.0000 1.3448 0.0000
0.0000 1.3793 0.0000
0.0000 1.4138 0.0000
0.0000 1.4483 0.0000
0.0000 1.4828 0.0000
0.0000 1.5172 0.0000
0.0000 1.5517 0.0000
0.0000 1.5862 0.0000
0.0000 1.6207 0.0000
0.0000 1.6552 0.0000
0.0000 1.6897 0.0000
0.0000 1.7241 0.0000
0.0000 1.7586 0.0000
0.0000 1.7931 0.0000
0.0000 1.8276 0.0000
0.0000 1.8621 0.0000
0.0000 1.8966 0.0000
0.0000 1.9310 0.0000
0.0000 1.9655 0.0000
0.0000 2.0000 0.0000
0.0690 1.0000 0.0000
0.0690 1.0345 0.0000
0.0690 1.0690 0.0000
0.0690 1.1034 0.0000
0.0690 1.1379 0.0000
0.0690 1.1724 0.0000
0.0690 1.2069 0.0000
0.0690 1.2414 0.0000
0.0690 1.2759 0.0000
0.0690 1.3103 0.0000
0.0690 1.3448 0.0000
0.0690 1.3793 0.0000
0.0690 1.4138 0.0000
0.0690 1.4483 0.0000
0.0690 1.4828 0.0000
0.0690 1.5172 0.0000
0.0690 1.5517 0.0000
0.0690 1.5862 0.0000
0.0690 1.6207 0.0000
0.0690 1.6552 0.0000
0.0690 1.6897 0.0000
0.0690 1.7241 0.0000
0.0690 1.7586 0.0000
0.0690 1.7931 0.0000
0.0690 1.8276 0.0000
0.0690 1.8621 0.0000
0.0690 1.8966 0.0000
0.0690 1.9310 0.0000
0.0690 1.9655 0.0000
0.0690 2.0000 0.0000
0.1379 1.0000 0.0000
0.1379 1.0345 0.0000
0.1379 1.0690 0.0000
0.1379 1.1034 0.0000
0.1379 1.1379 0.0000
0.1379 1.1724 0.0000
0.1379 1.2069 0.0000
0.1379 1.2414 0.0000
0.1379 1.2759 0.0000
0.1379 1.3103 0.0000
0.1379 1.3448 0.0000
0.1379 1.3793 0.0000
0.1379 1.4138 0.0000
0.1379 1.4483 0.0000
0.1379 1.4828 0.0000
0.1379 1.5172 0.0000
0.1379 1.5517 0.0000
0.1379 1.5862 0.0000
0.1379 1.6207 0.0000
0.1379 1.6552 0.0000
0.1379 1.6897 0.0000
0.1379 1.7241 0.0000
0.1379 1.7586 0.0000
0.1379 1.7931 0.0000
0.1379 1.8276 0.0000
0.1379 1.8621 0.0000
0.1379 1.8966 0.0000
0.1379 1.9310 0.0000
0.1379 1.9655 0.0000
0.1379 2.0000 0.0000
0.2069 1.0000 0.0000
0.2069 1.0345 0.0000
0.2069 1.0690 0.0000
0.2069 1.1034 0.0000
0.2069 1.1379 0.0000
0.2069 1.1724 0.0000
0.2069 1.2069 0.0000
0.2069 1.2414 0.0000
0.2069 1.2759 0.0000
0.2069 1.3103 0.0000
0.2069 1.3448 0.0000
0.2069 1.3793 0.0000
0.2069 1.4138 0.0000
0.2069 1.4483 0.0000
0.2069 1.4828 0.0000
0.2069 1.5172 0.0000
0.2069 1.5517 0.0000
0.2069 1.5862 0.0000
0.2069 1.6207 0.0000
0.2069 1.6552 0.0000
0.2069 1.6897 0.0000
0.2069 1.7241 0.0000
0.2069 1.7586 0.0000
0.2069 1.7931 0.0000
0.2069 1.8276 0.0000
0.2069 1.8621 0.0000
0.2069 1.8966 0.0000
0.2069 1.9310 0.0000
0.2069 1.9655 0.0000
0.2069 2.0000 0.0000
0.2759 1.0000 0.0000
0.2759 1.0345 0.0000
0.2759 1.0690 0.0000
0.2759 1.1034 0.0000
0.2759 1.1379 0.0000
0.2759 1.1724 0.0000
0.2759 1.2069 0.0000
0.2759 1.2414 0.0000
0.2759 1.2759 0.0000
0.2759 1.3103 0.0000
0.2759 1.3448 0.0000
0.2759 1.3793 0.0000
0.2759 1.4138 0.0000
0.2759 1.4483 0.0000
0.2759 1.4828 0.0000
0.2759 1.5172 0.0000
0.2759 1.5517 0.0000
0.2759 1.5862 0.0000
0.2759 1.6207 0.0000
0.2759 1.6552 0.0000
0.2759 1.6897 0.0000
0.2759 1.7241 0.0000
0.2759 1.7586 0.0000
0.2759 1.7931 0.0000
0.2759 1.8276 0.0000
0.2759 1.8621 0.0000
0.2759 1.8966 0.0000
0.2759 1.9310 0.0000
0.2759 1.9655 0.0000
0.2759 2.0000 0.0000
0.3448 1.0000 0.0000
0.3448 1.0345 0.0000
0.3448 1.0690 0.0000
0.3448 1.1034 0.0000
0.3448 1.1379 0.0000
0.3448 1.1724 0.0000
0.3448 1.2069 0.0000
0.3448 1.2414 0.0000
0.3448 1.2759 0.0000
0.3448 1.3103 0.0000
0.3448 1.3448 0.0000
0.3448 1.3793 0.0000
0.3448 1.4138 0.0000
0.3448 1.4483 0.0000
0.3448 1.4828 0.0000
0.3448 1.5172 0.0000
0.3448 1.5517 0.0000
0.3448 1.5862 0.0000
0.3448 1.6207 0.0000
0.3448 1.6552 0.0000
0.3448 1.6897 0.0000
0.3448 1.7241 0.0000
0.3448 1.7586 0.0000
0.3448 1.7931 0.0000
0.3448 1.8276 0.0000
0.3448 1.8621 0.0000
0.3448 1.8966 0.0000
0.3448 1.9310 0.0000
0.3448 1.9655 0.0000
0.3448 2.0000 0.0000
0.4138 1.0000 0.0000
0.4138 1.0345 0.0000
0.4138 1.0690 0.0000
0.4138 1.1034 0.0000
0.4138 1.1379 0.0000
0.4138 1.1724 0.0000
0.4138 1.2069 0.0000
0.4138 1.2414 0.0000
0.4138 1.2759 0.0000
0.4138 1.3103 0.0000
0.4138 1.3448 0.0000
0.4138 1.3793 0.0000
0.4138 1.4138 0.0000
0.4138 1.4483 0.0000
0.4138 1.4828 0.0000
0.4138 1.5172 0.0000
0.4138 1.5517 0.0000
0.4138 1.5862 0.0000
0.4138 1.6207 0.0000
0.4138 1.6552 0.0000
0.4138 1.6897 0.0000
0.4138 1.7241 0.0000
0.4138 1.7586 0.0000
0.4138 1.7931 0.0000
0.4138 1.8276 0.0000
0.4138 1.8621 0.0000
0.4138 1.8966 0.0000
0.4138 1.9310 0.0000
0.4138 1.9655 0.0000
0.4138 2.0000 0.0000
0.4828 1.0000 0.0000
0.4828 1.0345 0.0000
0.4828 1.0690 0.0000
0.4828 1.1034 0.0000
0.4828 1.1379 0.0000
0.4828 1.1724 0.0000
0.4828 1.2069 0.0000
0.4828 1.2414 0.0000
0.4828 1.2759 0.0000
0.4828 1.3103 0.0000
0.4828 1.3448 0.0000
0.4828 1.3793 0.0000
0.4828 1.4138 0.0000
0.4828 1.4483 0.0000
0.4828 1.4828 0.0000
0.4828 1.5172 0.0000
0.4828 1.5517 0.0000
0.4828 1.5862 0.0000
0.4828 1.6207 0.0000
0.4828 1.6552 0.0000
0.4828 1.6897 0.0000
0.4828 1.7241 0.0000
0.4828 1.7586 0.0000
0.4828 1.7931 0.0000
0.4828 1.8276 0.0000
0.4828 1.8621 0.0000
0.4828 1.8966 0.0000
0.4828 1.9310 0.0000
0.4828 1.9655 0.0000
0.4828 2.0000 0.0000
0.5517 1.0000 0.0000
0.5517 1.0345 0.0000
0.5517 1.0690 0.0000
0.5517 1.1034 0.0000
0.5517 1.1379 0.0000
0.5517 1.1724 0.0000
0.5517 1.2069 0.0000
0.5517 1.2414 0.0000
0.5517 1.2759 0.0000
0.5517 1.3103 0.0000
0.5517 1.3448 0.0000
0.5517 1.3793 0.0000
0.5517 1.4138 0.0000
0.5517 1.4483 0.0000
0.5517 1.4828 0.0000
0.5517 1.5172 0.0000
0.5517 1.5517 0.0000
0.5517 1.5862 0.0000
0.5517 1.6207 0.0000
0.5517 1.6552 0.0000
0.5517 1.6897 0.0000
0.5517 1.7241 0.0000
0.5517 1.7586 0.0000
0.5517 1.7931 0.0000
0.5517 1.8276 0.0000
0.5517 1.8621 0.0000
0.5517 1.8966 0.0000
0.5517 1.9310 0.0000
0.5517 1.9655 0.0000
0.5517 2.0000 0.0000
0.6207 1.0000 0.0000
0.6207 1.0345 0.0000
0.6207 1.0690 0.0000
0.6207 1.1034 0.0000
0.6207 1.1379 0.0000
0.6207 1.1724 0.0000
0.6207 1.2069 0.0000
0.6207 1.2414 0.0000
0.6207 1.2759 0.0000
0.6207 1.3103 0.0000
0.6207 1.3448 0.0000
0.6207 1.3793 0.0000
0.6207 1.4138 0.0000
0.6207 1.4483 0.0000
0.6207 1.4828 0.0000
0.6207 1.5172 0.0000
0.6207 1.5517 0.0000
0.6207 1.5862 0.0000
0.6207 1.6207 0.0000
0.6207 1.6552 0.0000
0.6207 1.6897 0.0000
0.6207 1.7241 0.0000
0.6207 1.7586 0.0000
0.6207 1.7931 0.0000
0.6207 1.8276 0.0000
0.6207 1.8621 0.0000
0.6207 1.8966 0.0000
0.6207 1.9310 0.0000
0.6207 1.9655 0.0000
0.6207 2.0000 0.0000
0.6897 1.0000 0.0000
0.6897 1.0345 0.0000
0.6897 1.0690 0.0000
0.6897 1.1034 0.0000
0.6897 1.1379 0.0000
0.6897 1.1724 0.0000
0.6897 1.2069 0.0000
0.6897 1.2414 0.0000
0.6897 1.2759 0.0000
0.6897 1.3103 0.0000
0.6897 1.3448 0.0000
0.6897 1.3793 0.0000
0.6897 1.4138 0.0000
0.6897 1.4483 0.0000
0.6897 1.4828 0.0000
0.6897 1.5172 0.0000
0.6897 1.5517 0.0000
0.6897 1.5862 0.0000
0.6897 1.6207 0.0000
0.6897 1.6552 0.0000
0.6897 1.6897 0.0000
0.6897 1.7241 0.0000
0.6897 1.7586 0.0000
0.6897 1.7931 0.0000
0.6897 1.8276 0.0000
0.6897 1.8621 0.0000
0.6897 1.8966 0.0000
0.6897 1.9310 0.0000
0.6897 1.9655 0.0000
0.6897 2.0000 0.0000
0.7586 1.0000 0.0000
0.7586 1.0345 0.0000
0.7586 1.0690 0.0000
0.7586 1.1034 0.0000
0.7586 1.1379 0.0000
0.7586 1.1724 0.0000
0.7586 1.2069 0.0000
0.7586 1.2414 0.0000
0.7586 1.2759 0.0000
0.7586 1.3103 0.0000
0.7586 1.3448 0.0000
0.7586 1.3793 0.0000
0.7586 1.4138 0.0000
0.7586 1.4483 0.0000
0.7586 1.4828 0.0000
0.7586 1.5172 0.0000
0.7586 1.5517 0.0000
0.7586 1.5862 0.0000
0.7586 1.6207 0.0000
0.7586 1.6552 0.0000
0.7586 1.6897 0.0000
0.7586 1.7241 0.0000
0.7586 1.7586 0.0000
0.7586 1.7931 0.0000
0.7586 1.8276 0.0000
0.7586 1.8621 0.0000
0.7586 1.8966 0.0000
0.7586 1.9310 0.0000
0.7586 1.9655 0.0000
0.7586 2.0000 0.0000
0.8276 1.0000 0.0000
0.8276 1.0345 0.0000
0.8276 1.0690 0.0000
0.8276 1.1034 0.0000
0.8276 1.1379 0.0000
0.8276 1.1724 0.0000
0.8276 1.2069 0.0000
0.8276 1.2414 0.0000
0.8276 1.2759 0.0000
0.8276 1.3103 0.0000
0.8276 1.3448 0.0000
0.8276 1.3793 0.0000
0.8276 1.4138 0.0000
0.8276 1.4483 0.0000
0.8276 1.4828 0.0000
0.8276 1.5172 0.0000
0.8276 1.5517 0.0000
0.8276 1.5862 0.0000
0.8276 1.6207 0.0000
0.8276 1.6552 0.0000
0.8276 1.6897 0.0000
0.8276 1.7241 0.0000
0.8276 1.7586 0.0000
0.8276 1.7931 0.0000
0.8276 1.8276 0.0000
0.8276 1.8621 0.0000
0.8276 1.8966 0.0000
0.8276 1.9310 0.0000
0.8276 1.9655 0.0000
0.8276 2.0000 0.0000
0.8966 1.0000 0.0000
0.8966 1.0345 0.0000
0.8966 1.0690 0.0000
0.8966 1.1034 0.0000
0.8966 1.1379 0.0000
0.8966 1.1724 0.0000
0.8966 1.2069 0.0000
0.8966 1.2414 0.0000
0.8966 1.2759 0.0000
0.8966 1.3103 0.0000
0.8966 1.3448 0.0000
0.8966 1.3793 0.0000
0.8966 1.4138 0.0000
0.8966 1.4483 0.0000
0.8966 1.4828 0.0000
0.8966 1.5172 0.0000
0.8966 1.5517 0.0000
0.8966 1.5862 0.0000
0.8966 1.6207 0.0000
0.8966 1.6552 0.0000
0.8966 1.6897 0.0000
0.8966 1.7241 0.0000
0.8966 1.7586 0.0000
0.8966 1.7931 0.0000
0.8966 1.8276 0.0000
0.8966 1.8621 0.0000
0.8966 1.8966 0.0000
0.8966 1.9310 0.0000
0.8966 1.9655 0.0000
0.8966 2.0000 0.0000
0.9655 1.0000 0.0000
0.9655 1.0345 0.0000
0.9655 1.0690 0.0000
0.9655 1.1034 0.0000
0.9655 1.1379 0.0000
0.9655 1.1724 0.0000
0.9655 1.2069 0.0000
0.9655 1.2414 0.0000
0.9655 1.2759 0.0000
0.9655 1.3103 0.0000
0.9655 1.3448 0.0000
0.9655 1.3793 0.0000
0.9655 1.4138 0.0000
0.9655 1.4483 0.0000
0.9655 1.4828 0.0000
0.9655 1.5172 0.0000
0.9655 1.5517 0.0000
0.9655 1.5862 0.0000
0.9655 1.6207 0.0000
0.9655 1.6552 0.0000
0.9655 1.6897 0.0000
0.9655 1.7241 0.0000
0.9655 1.7586 0.0000
0.9655 1.7931 0.0000
0.9655 1.8276 0.0000
0.9655 1.8621 0.0000
0.9655 1.8966 0.0000
0.9655 1.9310 0.0000
0.9655 1.9655 0.0000
0.9655 2.0000 0.0000
1.0345 1.0000 0.0000
1.0345 1.0345 0.0000
1.0345 1.0690 0.0000
1.0345 1.1034 0.0000
1.0345 1.1379 0.0000
1.0345 1.1724 0.0000
1.0345 1.2069 0.0000
1.0345 1.2414 0.0000
1.0345 1.2759 0.0000
1.0345 1.3103 0.0000
1.0345 1.3448 0.0000
[...]
         <PointData>
            <DataArray Name="fValues" NumberOfComponents="3" format="ascii" type="Float64">
 2.94370e-18  5.44507e-17        00000 
-1.17748e-17  1.32466e-17        00000 
-1.45548e-18  1.45548e-18        00000 
-2.83448e-18  1.80127e-17        00000 
 4.36643e-18 -3.63869e-18        00000 
 1.42032e-17 -9.89165e-18        00000 
-7.27738e-18 -6.54964e-18        00000 
-7.04049e-18  3.79455e-18        00000 
 1.45548e-18 -1.52825e-17        00000 
-3.35463e-18 -4.26852e-18        00000 
 1.30993e-17 -5.09416e-18        00000 
-3.65740e-19  2.01157e-17        00000 
 1.45548e-18 -1.30993e-17        00000 
 1.21018e-17  2.26173e-17        00000 
-1.45548e-18  1.01883e-17        00000 
-1.17037e-17  8.96062e-18        00000 
 8.73285e-18  2.32876e-17        00000 
-2.27930e-18 -4.44585e-17        00000 
 5.82190e-18  2.91095e-17        00000 
-2.56018e-18 -9.53209e-18        00000 
-1.45548e-17  1.16438e-17        00000 
 2.75702e-17 -9.69284e-18        00000 
-1.16438e-17  4.36643e-18        00000 
 8.77775e-18 -7.77197e-18        00000 
-2.54708e-18  8.73285e-18        00000 
 2.72646e-18 -1.29732e-17        00000 
-2.91095e-18 -7.27738e-18        00000 
 2.33594e-18  1.07178e-17        00000 
 1.46796e-18 -1.91896e-17        00000 
 4.44654e-18  4.79739e-18        00000 
-8.27885e-02  1.36417e-01        00000 
 5.60798e-02  1.32365e-02        00000 
-5.52344e-02  1.54419e-01        00000 
-5.64568e-02 -9.57483e-02        00000 
 1.32023e-01  7.61180e-02        00000 
 9.18114e-02 -7.00732e-02        00000 
 6.35905e-02 -9.92793e-02        00000 
 6.68422e-03 -1.19636e-01        00000 
 9.13693e-03 -1.07253e-01        00000 
 8.39803e-02  3.44307e-02        00000 
-1.25814e-01  1.73253e-01        00000 
-8.44090e-02  1.00576e-01        00000 
-1.33450e-01  2.03471e-01        00000 
-1.41638e-01  1.40816e-01        00000 
-7.60828e-02  2.67299e-01        00000 
 5.16997e-02  1.78183e-01        00000 
-6.43037e-02  8.75828e-02        00000 
 9.63817e-02  2.99573e-01        00000 
-2.62895e-02  1.10820e-01        00000 
 2.54810e-02  5.43325e-02        00000 
-3.72055e-02  9.23516e-02        00000 
-1.90265e-01  3.49517e-02        00000 
-1.30473e-02 -1.34689e-01        00000 
-2.18807e-03  4.46994e-02        00000 
-2.14326e-02 -5.18164e-02        00000 
-3.59331e-02 -9.92707e-02        00000 
-1.46043e-02 -4.33746e-02        00000 
 5.16792e-03  1.71250e-01        00000 
-2.09464e-02  2.51053e-01        00000 
-2.31039e-02  1.12597e-01        00000 
-2.50749e-02 -1.16586e-01        00000 
 1.10149e-01 -6.22506e-02        00000 
-5.49851e-02  2.12289e-01        00000 
 4.19341e-02  2.21748e-01        00000 
 1.01905e-01  1.09699e-01        00000 
 5.19824e-03  1.95871e-01        00000 
-5.24078e-02  1.12677e-01        00000 
-2.65694e-02 -4.22224e-02        00000 
 6.26198e-02  8.84818e-03        00000 
 1.18065e-02  6.07959e-03        00000 
-1.03515e-02  3.44658e-01        00000 
 6.47946e-03  2.72953e-01        00000 
-3.47208e-02  1.70974e-01        00000 
 9.00449e-02  7.66490e-03        00000 
-8.27219e-02  2.69499e-01        00000 
 3.22636e-02  2.22165e-01        00000 
 1.96285e-01  3.56517e-02        00000 
 5.18996e-02  2.24870e-01        00000 
 1.87818e-01  1.84155e-01        00000 
 1.24481e-01  4.50168e-03        00000 
 8.43435e-02  2.82259e-01        00000 
-5.47888e-02  1.42577e-01        00000 
 7.08757e-02 -8.46274e-02        00000 
-1.27108e-01  9.25974e-02        00000 
-3.18415e-03  7.28704e-02        00000 
-4.20726e-02  2.57143e-03        00000 
 5.20638e-03  2.52832e-02        00000 
-3.63883e-02  5.59272e-02        00000 
-1.43886e-02  6.28480e-02        00000 
-7.37482e-02  1.17486e-03        00000 
 1.17665e-01 -1.09942e-02        00000 
-1.65023e-02  4.15570e-02        00000 
-9.88718e-02  1.87776e-01        00000 
 1.02417e-01  2.25223e-01        00000 
 1.14402e-01  1.84372e-01        00000 
-4.05257e-02  2.31195e-01        00000 
-4.37889e-02  9.48828e-02        00000 
-1.52546e-03 -2.95867e-02        00000 
 9.82262e-03  3.06257e-02        00000 
 2.15377e-02  4.35816e-02        00000 
-3.29576e-03  1.54185e-01        00000 
-5.65927e-03  1.76895e-02        00000 
 6.97452e-02 -1.65914e-01        00000 
 1.06933e-02  1.38143e-01        00000 
-3.67378e-02  9.04291e-03        00000 
-2.35257e-02 -4.36673e-02        00000 
-3.22085e-02  7.43454e-02        00000 
-3.85710e-02  1.46334e-01        00000 
-9.48087e-02 -1.32106e-01        00000 
 2.56716e-02  1.17905e-01        00000 
 1.28913e-01  1.60834e-01        00000 
-3.38157e-02 -3.68838e-02        00000 
-1.06866e-01 -6.74430e-02        00000 
-8.39042e-02  1.58701e-01        00000 
-8.96691e-02  1.05705e-01        00000 
-6.38216e-02  1.19942e-01        00000 
 1.16095e-01  1.12112e-01        00000 
-4.09254e-03  1.57109e-01        00000 
-5.19173e-02  6.29229e-02        00000 
-3.80771e-02  9.41163e-02        00000 
 7.76836e-02 -3.46245e-03        00000 
 3.03836e-02 -1.00407e-01        00000 
 4.21221e-02  1.43652e-01        00000 
-3.13305e-03  1.46279e-01        00000 
-5.96431e-02  3.65650e-01        00000 
 8.07991e-02  1.34090e-01        00000 
-9.38223e-02 -6.35254e-02        00000 
 3.44527e-02 -1.53684e-02        00000 
 1.88768e-02 -7.20898e-02        00000 
 1.77027e-02 -1.57687e-01        00000 
 1.22398e-02 -5.10842e-02        00000 
 1.31009e-01  1.81814e-02        00000 
-9.02292e-03 -3.68050e-02        00000 
-5.58840e-02  5.36250e-02        00000 
-2.52565e-02  1.21150e-01        00000 
 2.79173e-02  7.00351e-02        00000 
-1.33867e-01  2.10222e-01        00000 
 3.27184e-02 -1.29278e-01        00000 
-4.38612e-02 -2.89351e-01        00000 
 2.73278e-03 -1.75354e-01        00000 
-7.67262e-02  5.85268e-02        00000 
-1.08481e-02  1.57023e-03        00000 
-1.82354e-02 -8.97752e-02        00000 
-1.63014e-02  1.12311e-01        00000 
 4.66417e-02 -6.71940e-02        00000 
-6.01244e-03  4.84878e-02        00000 
-4.62285e-03  1.22653e-01        00000 
 6.03379e-02  6.14030e-02        00000 
 1.04293e-01  2.66573e-02        00000 
-9.37524e-02 -2.08677e-01        00000 
 2.83484e-02  6.61259e-02        00000 
-2.54631e-02 -1.88750e-02        00000 
-2.05807e-02  4.74477e-02        00000 
-7.10910e-02  1.14765e-01        00000 
-9.42927e-02  1.75301e-01        00000 
 5.30602e-02  9.62620e-02        00000 
 3.05531e-02  6.82391e-02        00000 
-4.80206e-02 -1.45696e-02        00000 
 4.00449e-02 -1.13827e-01        00000 
 1.67326e-01 -1.45460e-01        00000 
-5.72389e-02  1.60888e-02        00000 
-9.75868e-02 -1.84094e-01        00000 
 5.07488e-02  1.02876e-01        00000 
 4.04462e-02  6.12101e-02        00000 
 6.12448e-02  1.85716e-01        00000 
 1.52185e-01  1.43537e-02        00000 
 8.84920e-02  1.31594e-01        00000 
 1.37048e-01 -1.34936e-01        00000 
-2.00861e-02  1.87496e-02        00000 
-8.84010e-02  1.69714e-02        00000 
 5.91736e-02 -2.07422e-02        00000 
-3.60040e-02  8.32149e-02        00000 
 2.87876e-02 -1.24031e-01        00000 
 1.14547e-02 -2.88823e-02        00000 
 6.95054e-02  4.67053e-02        00000 
-6.60763e-03 -2.34044e-02        00000 
-5.77099e-02  2.17069e-01        00000 
 8.94073e-02  8.38106e-02        00000 
-2.86169e-02  4.54974e-02        00000 
-7.80215e-02 -1.59960e-01        00000 
 2.37435e-02  2.83549e-02        00000 
-4.31490e-02  1.83376e-01        00000 
 4.09578e-02  6.29167e-02        00000 
 1.72110e-02  2.56873e-01        00000 
 1.68041e-02  1.27164e-01        00000 
 4.25963e-02  1.18614e-01        00000 
-3.23803e-02  2.10342e-02        00000 
 1.46173e-01  3.33661e-02        00000 
-5.65875e-02 -1.44460e-01        00000 
-3.33979e-02 -1.06211e-01        00000 
 1.67284e-02  6.11913e-02        00000 
-1.63323e-02 -5.97716e-02        00000 
-9.13241e-03 -1.62944e-01        00000 
 2.19052e-03 -5.17498e-02        00000 
-7.57147e-02  5.58566e-02        00000 
-1.18027e-01  9.77045e-02        00000 
 6.09853e-02 -1.63157e-01        00000 
-4.32441e-02  1.36517e-01        00000 
 5.04838e-02 -2.14991e-02        00000 
-2.40033e-02  4.99660e-03        00000 
-6.81461e-02 -1.41807e-01        00000 
-2.61220e-02 -7.59934e-02        00000 
-1.28883e-01 -3.24651e-02        00000 
-5.06468e-02 -6.71887e-02        00000 
-3.73714e-02  4.07938e-02        00000 
-4.95247e-02  1.07215e-01        00000 
 1.08024e-02  5.41218e-02        00000 
 2.62399e-02  2.26572e-01        00000 
 1.13279e-02 -4.18374e-02        00000 
 1.02552e-03  2.72645e-02        00000 
 7.35788e-02  4.00799e-03        00000 
 5.60010e-02  2.08463e-01        00000 
 3.27688e-02  1.75312e-02        00000 
 1.47401e-01  2.46878e-01        00000 
 9.88083e-02  3.76888e-02        00000 
-4.69136e-02  1.43659e-01        00000 
 3.03884e-02  4.28757e-03        00000 
-6.61361e-02  7.01795e-02        00000 
 8.20347e-02 -1.41214e-01        00000 
 4.74913e-02 -1.13068e-01        00000 
 5.39508e-04 -3.84221e-02        00000 
-4.42105e-02  1.29295e-01        00000 
-9.01313e-02 -1.67905e-01        00000 
-4.57244e-02  1.20716e-01        00000 
-3.80952e-02  8.54545e-02        00000 
 4.30465e-02  2.14641e-01        00000 
 3.52173e-02  1.44795e-01        00000 
 9.59931e-02  1.13674e-01        00000 
 7.25913e-02 -6.21593e-02        00000 
-5.14437e-02 -6.56878e-02        00000 
-7.99757e-03  3.74803e-02        00000 
-4.85328e-02 -2.52695e-02        00000 
 1.30018e-01 -5.22072e-02        00000 
-4.34010e-03 -1.25228e-02        00000 
-4.46417e-05 -4.86374e-02        00000 
-1.95637e-02 -2.80122e-02        00000 
-4.78627e-02 -7.21213e-02        00000 
 5.14198e-02  6.51310e-02        00000 
-6.49165e-02 -6.42218e-02        00000 
-1.11326e-01  5.46868e-02        00000 
-1.12806e-01 -5.41437e-02        00000 
-3.59648e-02 -5.62253e-02        00000 
-7.16469e-02  3.86621e-02        00000 
 1.11369e-01  2.11511e-01        00000 
 6.60627e-02 -3.62865e-02        00000 
-3.34668e-02  1.53060e-01        00000 
-5.87090e-02  1.73710e-01        00000 
-2.26649e-02 -1.96271e-01        00000 
-2.54047e-02  2.84686e-02        00000 
-2.89101e-02 -2.99527e-02        00000 
-9.11006e-03  6.89541e-02        00000 
 4.77090e-02  3.94422e-02        00000 
 1.22787e-01  1.96195e-02        00000 
-1.00700e-01  1.74400e-02        00000 
-1.06758e-01 -1.14823e-02        00000 
 7.07839e-02 -7.39984e-02        00000 
 2.19149e-03  1.04706e-01        00000 
-8.00913e-02  1.17852e-01        00000 
-1.11363e-01 -9.17687e-02        00000 
 1.81037e-02 -2.14441e-01        00000 
 2.18780e-02  2.96242e-01        00000 
 1.25001e-02 -2.56829e-01        00000 
-8.08185e-02 -5.63188e-02        00000 
-3.09209e-02  8.51523e-02        00000 
-2.89534e-02 -2.91626e-02        00000 
 8.32694e-02  1.10007e-01        00000 
-1.10703e-01 -8.02542e-02        00000 
-5.01134e-02 -4.17458e-02        00000 
-4.30074e-02  1.09387e-01        00000 
 4.79282e-02  7.51980e-02        00000 
-1.26354e-01  5.78427e-03        00000 
 1.22831e-01  1.31661e-01        00000 
-1.62358e-01  1.29366e-01        00000 
 5.84279e-02 -7.87283e-02        00000 
 2.95769e-02  2.27064e-01        00000 
-3.42992e-02  1.62405e-01        00000 
 7.00464e-02 -6.31023e-02        00000 
-1.41660e-04  1.57795e-01        00000 
-6.87683e-02  3.51101e-02        00000 
 7.70361e-02 -4.87701e-02        00000 
-2.60452e-02  1.28648e-01        00000 
-5.82426e-02 -9.55973e-02        00000 
 1.21095e-01  1.70526e-01        00000 
-1.38886e-01  1.74272e-01        00000 
-1.19496e-03  2.69568e-02        00000 
 6.13940e-02 -9.57380e-02        00000 
-5.13086e-02  8.05584e-02        00000 
 1.26198e-02  7.76740e-02        00000 
 7.35441e-02  1.61461e-02        00000 
 6.12651e-02  1.93856e-03        00000 
 3.03585e-02  1.34874e-01        00000 
 3.32284e-02 -2.20543e-01        00000 
-3.88476e-02  1.81180e-01        00000 
-7.31544e-02 -4.10504e-02        00000 
 1.05602e-01  1.21361e-01        00000 
 5.49719e-02  1.33017e-01        00000 
-4.20590e-02  1.28231e-01        00000 
 4.38058e-02  4.26290e-02        00000 
-1.86923e-02 -8.82806e-02        00000 
 3.78576e-02  9.28552e-02        00000 
 9.06530e-02 -1.69659e-01        00000 
 1.46236e-02  1.45878e-01        00000 
-3.65812e-02  4.13766e-02        00000 
 8.57282e-02 -9.48128e-02        00000 
 1.11254e-01 -1.48604e-02        00000 
-6.13478e-02  1.82187e-01        00000 
 1.54930e-02 -2.52802e-01        00000 
-1.60630e-02  1.93437e-01        00000 
 6.43204e-02  7.62155e-02        00000 
 5.07319e-02 -4.61198e-02        00000 
 5.04313e-02  8.19018e-02        00000 
 2.58622e-02 -5.12036e-02        00000 
-1.18845e-02 -7.23344e-03        00000 
 8.74007e-03  1.74566e-01        00000 
 7.42897e-02  4.92416e-02        00000 
 1.02964e-01 -3.14521e-02        00000 
-6.38795e-02 -7.66240e-02        00000 
 1.03065e-01  2.67981e-01        00000 
 6.33047e-02 -3.77181e-02        00000 
-1.92218e-02  1.18424e-01        00000 
-9.55259e-02 -3.20985e-02        00000 
-6.42701e-02 -1.01619e-02        00000 
-3.70187e-02 -3.37232e-02        00000 
-5.35626e-02 -3.03320e-02        00000 
-1.27754e-01  1.18521e-01        00000 
-6.30712e-02  4.64980e-02        00000 
-4.75895e-02  9.94980e-02        00000 
-1.45280e-03 -4.65840e-02        00000 
-4.62250e-02 -7.72781e-02        00000 
-2.62071e-02  7.58122e-03        00000 
-6.82243e-03 -3.35308e-02        00000 
-9.83094e-02  1.38547e-01        00000 
 7.77752e-02 -8.72551e-03        00000 
 1.03396e-01 -5.72240e-03        00000 
 2.58075e-02  1.12152e-01        00000 
-2.64260e-02  1.68060e-02        00000 
-2.36819e-02 -2.02601e-01        00000 
 5.66574e-02 -1.26712e-01        00000 
-7.34293e-02  8.89919e-02        00000 
-1.02565e-02  1.90055e-02        00000 
-3.16641e-02 -1.03407e-01        00000 
-6.04267e-02 -4.47886e-02        00000 
-5.58096e-02  2.11086e-01        00000 
 5.27713e-03 -1.77799e-02        00000 
-1.46875e-02  1.11859e-01        00000 
-5.68754e-02 -3.25712e-02        00000 
-5.58204e-02 -1.57413e-01        00000 
-7.51022e-02 -4.17234e-02        00000 
 6.78400e-02  1.70201e-01        00000 
 2.64117e-02 -5.13905e-03        00000 
 4.18322e-02  2.01853e-03        00000 
-2.55485e-02 -1.36176e-02        00000 
-5.83921e-03 -1.46711e-01        00000 
-1.64033e-01 -1.24656e-01        00000 
-5.39318e-02 -2.43520e-02        00000 
 5.09440e-03  6.16553e-03        00000 
 1.22114e-02 -1.27455e-01        00000 
 7.59539e-02  1.34300e-01        00000 
 5.95108e-02  8.24471e-02        00000 
 4.87743e-02 -6.13596e-02        00000 
 2.15952e-02 -8.79382e-02        00000 
-4.76838e-02 -2.10883e-02        00000 
-3.41250e-02 -9.73745e-04        00000 
-4.84278e-02  1.78403e-01        00000 
 1.06368e-01  1.48984e-02        00000 
-1.06358e-02 -6.66307e-02        00000 
-8.80870e-02  4.57469e-03        00000 
 1.50406e-01 -1.38551e-01        00000 
-2.70156e-02 -1.56729e-03        00000 
 3.73619e-02  1.03908e-01        00000 
-5.02404e-02 -5.75345e-02        00000 
-2.97631e-02 -3.14650e-02        00000 
 6.33002e-02  1.85742e-01        00000 
 8.63850e-02 -9.77378e-02        00000 
 7.92197e-02  2.25533e-01        00000 
 3.83113e-02 -4.62737e-02        00000 
-2.06093e-02 -3.34360e-02        00000 
-1.17983e-01  1.46103e-01        00000 
 4.23130e-02  1.05402e-01        00000 
-7.44894e-02  1.46738e-01        00000 
 9.60042e-02 -3.36000e-02        00000 
-3.95303e-02  2.01101e-02        00000 
 9.65914e-02 -6.94016e-02        00000 
 4.55485e-02 -7.95954e-02        00000 
 9.34426e-02 -3.84444e-02        00000 
 1.71400e-01 -1.44929e-03        00000 
 1.07651e-01  1.41681e-01        00000 
-7.74427e-02  6.45609e-02        00000 
 3.35661e-03 -1.39396e-01        00000 
 1.00173e-01 -1.00541e-01        00000 
 8.23940e-02 -2.67905e-02        00000 
-1.40963e-02 -1.61339e-01        00000 
 4.77576e-02  1.16042e-01        00000 
-1.53080e-02 -7.04797e-02        00000 
-2.51032e-03  2.53047e-02        00000 
-7.63820e-03 -1.05027e-01        00000 
 5.79596e-03  9.64856e-02        00000 
-5.92174e-02  4.27911e-02        00000 
 5.28004e-02 -1.44322e-01        00000 
-6.13280e-02 -1.34385e-01        00000 
-1.06789e-01 -1.16164e-01        00000 
-6.55850e-03 -4.50732e-02        00000 
-5.83730e-02  8.98740e-02        00000 
-2.87776e-02  7.42693e-02        00000 
 1.51564e-02  8.66556e-02        00000 
-4.82977e-02  1.20343e-01        00000 
-6.67085e-02 -6.02304e-02        00000 
 3.55895e-02  1.16061e-01        00000 
-7.05428e-02 -9.93637e-02        00000 
-3.83409e-03  4.58276e-02        00000 
 1.05097e-02 -1.98181e-02        00000 
 5.12867e-02 -1.53119e-01        00000 
 5.04443e-03 -1.53955e-01        00000 
-3.14679e-02 -1.10631e-01        00000 
 1.95938e-03  2.01836e-02        00000 
 1.34969e-03  1.82142e-02        00000 
-4.04483e-02  7.17820e-02        00000 
 8.61921e-02  9.64166e-02        00000 
-5.70540e-02 -1.30796e-01        00000 
-7.07956e-02  3.65255e-02        00000 
 1.60053e-02 -3.38554e-02        00000 
 3.34718e-02 -2.07314e-01        00000 
 2.21990e-02 -3.65867e-02        00000 
 4.58803e-02  5.23116e-02        00000 
-4.34917e-02 -9.84692e-02        00000 
 1.09636e-01 -3.83145e-02        00000 
 7.32088e-02 -1.71124e-02        00000 
 6.69879e-02  4.55657e-02        00000 
-6.01781e-02 -4.84416e-02        00000 
 1.02432e-03  1.49416e-02        00000 
-6.36520e-02  1.96381e-02        00000 
 1.03293e-01 -2.23499e-02        00000 
-6.10746e-02  6.02446e-02        00000 
-2.51616e-03  1.73748e-01        00000 
-6.00646e-02  4.78087e-03        00000 
-2.86170e-02  4.17787e-02        00000 
 9.05155e-03  6.64134e-02        00000 
 8.71165e-02  6.35801e-02        00000 
 1.06859e-01  3.40484e-02        00000 
-2.53757e-02  2.52541e-02        00000 
-3.28992e-02 -3.61379e-02        00000 
 1.05790e-01 -2.30204e-01        00000 
 5.76581e-02 -1.38311e-01        00000 
-1.22353e-01 -7.22912e-02        00000 
 9.43546e-02  4.33797e-02        00000 
-7.11102e-02 -1.26727e-01        00000 
 2.45605e-03 -4.06316e-02        00000 
-4.45483e-02  1.72111e-01        00000 
 1.25944e-02 -3.09159e-03        00000 
-5.09474e-02 -5.18280e-02        00000 
-1.02901e-01  2.61572e-02        00000 
 3.15493e-02  2.24416e-01        00000 
-1.50429e-01  1.18208e-01        00000 
 1.05499e-01 -9.93291e-03        00000 
-4.65877e-02  7.98798e-02        00000 
-5.88026e-02  5.68506e-02        00000 
-1.85079e-02 -1.01831e-01        00000 
-4.15030e-02 -1.56941e-01        00000 
 1.10215e-02  1.79263e-01        00000 
 3.86565e-02 -1.42888e-02        00000 
-5.61919e-02 -2.68957e-02        00000 
-8.62007e-02 -2.56416e-02        00000 
-3.78696e-02  1.34399e-02        00000 
 2.67779e-02  1.85251e-01        00000 
 6.81899e-02 -2.82485e-02        00000 
-5.85930e-02  4.89643e-02        00000 
 4.79432e-04  7.90211e-02        00000 
-3.18373e-02 -1.80880e-01        00000 
-8.79092e-02  2.40871e-01        00000 
-2.99224e-02 -1.91213e-03        00000 
 2.49342e-02 -1.15246e-01        00000 
-1.26157e-02  6.50827e-04        00000 
-5.26722e-02 -1.61651e-01        00000 
-1.89803e-02  4.53173e-02        00000 
-1.07940e-02 -7.02958e-02        00000 
-2.18326e-02  1.33638e-02        00000 
-7.33946e-02  2.91432e-02        00000 
 6.11750e-02  1.44708e-01        00000 
 6.05043e-02  1.36062e-02        00000 
-3.00781e-02 -6.24574e-02        00000 
 7.06541e-02  1.45343e-02        00000 
-3.63052e-02  1.99197e-01        00000 
 1.07535e-01 -3.12095e-02        00000 
-2.79340e-03  2.44948e-03        00000 
-1.14107e-01 -4.12030e-02        00000 
 4.32255e-02 -5.20637e-02        00000 
 5.36523e-02  8.01697e-02        00000 
-2.55269e-02 -1.36516e-01        00000 
-3.86100e-03 -1.58830e-02        00000 
 1.82650e-02  8.42226e-02        00000 
-1.58867e-02 -6.02331e-02        00000 
-7.08506e-02 -8.45169e-02        00000 
 9.58860e-02  4.49132e-02        00000 
-1.41821e-02  8.79104e-02        00000 
-6.13466e-02 -1.41249e-01        00000 
 6.29086e-02 -1.46716e-01        00000 
-2.84503e-02  3.12721e-02        00000 