<?xml version="1.0" encoding="utf-8"?>
<VTKFile byte_order="LittleEndian" type="UnstructuredGrid" version="0.1">
   <UnstructuredGrid>
      <Piece NumberOfCells="3364" NumberOfPoints="1741">
         <Points>
            <DataArray Name="Points" NumberOfComponents="3" format="ascii" type="Float32">
0.0000 1.0000 0.0000
0.0000 1.0345 0.0000
0.0000 1.0690 0.0000
0.0000 1.1034 0.0000
0.0000 1.1379 0.0000
0.0000 1.1724 0.0000
0.0000 1.2069 0.0000
0.0000 1.2414 0.0000
0.0000 1.2759 0.0000
0.0000 1.3103 0.0000
0.0000 1.3448 0.0000
0.0000 1.3793 0.0000
0.0000 1.4138 0.0000
0.0000 1.4483 0.0000
0.0000 1.4828 0.0000
0.0000 1.5172 0.0000
0.0000 1.5517 0.0000
0.0000 1.5862 0.0000
0.0000 1.6207 0.0000
0.0000 1.6552 0.0000
0.0000 1.6897 0.0000
0.0000 1.7241 0.0000
0.0000 1.7586 0.0000
0.0000 1.7931 0.0000
0.0000 1.8276 0.0000
0.0000 1.8621 0.0000
0.0000 1.8966 0.0000
0.0000 1.9310 0.0000
0.0000 1.9655 0.0000
0.0000 2.0000 0.0000
0.0690 1.0000 0.0000
0.0690 1.0345 0.0000
0.0690 1.0690 0.0000
0.0690 1.1034 0.0000
0.0690 1.1379 0.0000
0.0690 1.1724 0.0000
0.0690 1.2069 0.0000
0.0690 1.2414 0.0000
0.0690 1.2759 0.0000
0.0690 1.3103 0.0000
0.0690 1.3448 0.0000
0.0690 1.3793 0.0000
0.0690 1.4138 0.0000
0.0690 1.4483 0.0000
0.0690 1.4828 0.0000
0.0690 1.5172 0.0000
0.0690 1.5517 0.0000
0.0690 1.5862 0.0000
0.0690 1.6207 0.0000
0.0690 1.6552 0.0000
0.0690 1.6897 0.0000
0.0690 1.7241 0.0000
0.0690 1.7586 0.0000
0.0690 1.7931 0.0000
0.0690 1.8276 0.0000
0.0690 1.8621 0.0000
0.0690 1.8966 0.0000
0.0690 1.9310 0.0000
0.0690 1.9655 0.0000
0.0690 2.0000 0.0000
0.1379 1.0000 0.0000
0.1379 1.0345 0.0000
0.1379 1.0690 0.0000
0.1379 1.1034 0.0000
0.1379 1.1379 0.0000
0.1379 1.1724 0.0000
0.1379 1.2069 0.0000
0.1379 1.2414 0.0000
0.1379 1.2759 0.0000
0.1379 1.3103 0.0000
0.1379 1.3448 0.0000
0.1379 1.3793 0.0000
0.1379 1.4138 0.0000
0.1379 1.4483 0.0000
0.1379 1.4828 0.0000
0.1379 1.5172 0.0000
0.1379 1.5517 0.0000
0.1379 1.5862 0.0000
0.1379 1.6207 0.0000
0.1379 1.6552 0.0000
0.1379 1.6897 0.0000
0.1379 1.7241 0.0000
0.1379 1.7586 0.0000
0.1379 1.7931 0.0000
0.1379 1.8276 0.0000
0.1379 1.8621 0.0000
0.1379 1.8966 0.0000
0.1379 1.9310 0.0000
0.1379 1.9655 0.0000
0.1379 2.0000 0.0000
0.2069 1.0000 0.0000
0.2069 1.0345 0.0000
0.2069 1.0690 0.0000
0.2069 1.1034 0.0000
0.2069 1.1379 0.0000
0.2069 1.1724 0.0000
0.2069 1.2069 0.0000
0.2069 1.2414 0.0000
0.2069 1.2759 0.0000
0.2069 1.3103 0.0000
0.2069 1.3448 0.0000
0.2069 1.3793 0.0000
0.2069 1.4138 0.0000
0.2069 1.4483 0.0000
0.2069 1.4828 0.0000
0.2069 1.5172 0.0000
0.2069 1.5517 0.0000
0.2069 1.5862 0.0000
0.2069 1.6207 0.0000
0.2069 1.6552 0.0000
0.2069 1.6897 0.0000
0.2069 1.7241 0.0000
0.2069 1.7586 0.0000
0.2069 1.7931 0.0000
0.2069 1.8276 0.0000
0.2069 1.8621 0.0000
0.2069 1.8966 0.0000
0.2069 1.9310 0.0000
0.2069 1.9655 0.0000
0.2069 2.0000 0.0000
0.2759 1.0000 0.0000
0.2759 1.0345 0.0000
0.2759 1.0690 0.0000
0.2759 1.1034 0.0000
0.2759 1.1379 0.0000
0.2759 1.1724 0.0000
0.2759 1.2069 0.0000
0.2759 1.2414 0.0000
0.2759 1.2759 0.0000
0.2759 1.3103 0.0000
0.2759 1.3448 0.0000
0.2759 1.3793 0.0000
0.2759 1.4138 0.0000
0.2759 1.4483 0.0000
0.2759 1.4828 0.0000
0.2759 1.5172 0.0000
0.2759 1.5517 0.0000
0.2759 1.5862 0.0000
0.2759 1.6207 0.0000
0.2759 1.6552 0.0000
0.2759 1.6897 0.0000
0.2759 1.7241 0.0000
0.2759 1.7586 0.0000
0.2759 1.7931 0.0000
0.2759 1.8276 0.0000
0.2759 1.8621 0.0000
0.2759 1.8966 0.0000
0.2759 1.9310 0.0000
0.2759 1.9655 0.0000
0.2759 2.0000 0.0000
0.3448 1.0000 0.0000
0.3448 1.0345 0.0000
0.3448 1.0690 0.0000
0.3448 1.1034 0.0000
0.3448 1.1379 0.0000
0.3448 1.1724 0.0000
0.3448 1.2069 0.0000
0.3448 1.2414 0.0000
0.3448 1.2759 0.0000
0.3448 1.3103 0.0000
0.3448 1.3448 0.0000
0.3448 1.3793 0.0000
0.3448 1.4138 0.0000
0.3448 1.4483 0.0000
0.3448 1.4828 0.0000
0.3448 1.5172 0.0000
0.3448 1.5517 0.0000
0.3448 1.5862 0.0000
0.3448 1.6207 0.0000
0.3448 1.6552 0.0000
0.3448 1.6897 0.0000
0.3448 1.7241 0.0000
0.3448 1.7586 0.0000
0.3448 1.7931 0.0000
0.3448 1.8276 0.0000
0.3448 1.8621 0.0000
0.3448 1.8966 0.0000
0.3448 1.9310 0.0000
0.3448 1.9655 0.0000
0.3448 2.0000 0.0000
0.4138 1.0000 0.0000
0.4138 1.0345 0.0000
0.4138 1.0690 0.0000
0.4138 1.1034 0.0000
0.4138 1.1379 0.0000
0.4138 1.1724 0.0000
0.4138 1.2069 0.0000
0.4138 1.2414 0.0000
0.4138 1.2759 0.0000
0.4138 1.3103 0.0000
0.4138 1.3448 0.0000
0.4138 1.3793 0.0000
0.4138 1.4138 0.0000
0.4138 1.4483 0.0000
0.4138 1.4828 0.0000
0.4138 1.5172 0.0000
0.4138 1.5517 0.0000
0.4138 1.5862 0.0000
0.4138 1.6207 0.0000
0.4138 1.6552 0.0000
0.4138 1.6897 0.0000
0.4138 1.7241 0.0000
0.4138 1.7586 0.0000
0.4138 1.7931 0.0000
0.4138 1.8276 0.0000
0.4138 1.8621 0.0000
0.4138 1.8966 0.0000
0.4138 1.9310 0.0000
0.4138 1.9655 0.0000
0.4138 2.0000 0.0000
0.4828 1.0000 0.0000
0.4828 1.0345 0.0000
0.4828 1.0690 0.0000
0.4828 1.1034 0.0000
0.4828 1.1379 0.0000
0.4828 1.1724 0.0000
0.4828 1.2069 0.0000
0.4828 1.2414 0.0000
0.4828 1.2759 0.0000
0.4828 1.3103 0.0000
0.4828 1.3448 0.0000
0.4828 1.3793 0.0000
0.4828 1.4138 0.0000
0.4828 1.4483 0.0000
0.4828 1.4828 0.0000
0.4828 1.5172 0.0000
0.4828 1.5517 0.0000
0.4828 1.5862 0.0000
0.4828 1.6207 0.0000
0.4828 1.6552 0.0000
0.4828 1.6897 0.0000
0.4828 1.7241 0.0000
0.4828 1.7586 0.0000
0.4828 1.7931 0.0000
0.4828 1.8276 0.0000
0.4828 1.8621 0.0000
0.4828 1.8966 0.0000
0.4828 1.9310 0.0000
0.4828 1.9655 0.0000
0.4828 2.0000 0.0000
0.5517 1.0000 0.0000
0.5517 1.0345 0.0000
0.5517 1.0690 0.0000
0.5517 1.1034 0.0000
0.5517 1.1379 0.0000
0.5517 1.1724 0.0000
0.5517 1.2069 0.0000
0.5517 1.2414 0.0000
0.5517 1.2759 0.0000
0.5517 1.3103 0.0000
0.5517 1.3448 0.0000
0.5517 1.3793 0.0000
0.5517 1.4138 0.0000
0.5517 1.4483 0.0000
0.5517 1.4828 0.0000
0.5517 1.5172 0.0000
0.5517 1.5517 0.0000
0.5517 1.5862 0.0000
0.5517 1.6207 0.0000
0.5517 1.6552 0.0000
0.5517 1.6897 0.0000
0.5517 1.7241 0.0000
0.5517 1.7586 0.0000
0.5517 1.7931 0.0000
0.5517 1.8276 0.0000
0.5517 1.8621 0.0000
0.5517 1.8966 0.0000
0.5517 1.9310 0.0000
0.5517 1.9655 0.0000
0.5517 2.0000 0.0000
0.6207 1.0000 0.0000
0.6207 1.0345 0.0000
0.6207 1.0690 0.0000
0.6207 1.1034 0.0000
0.6207 1.1379 0.0000
0.6207 1.1724 0.0000
0.6207 1.2069 0.0000
0.6207 1.2414 0.0000
0.6207 1.2759 0.0000
0.6207 1.3103 0.0000
0.6207 1.3448 0.0000
0.6207 1.3793 0.0000
0.6207 1.4138 0.0000
0.6207 1.4483 0.0000
0.6207 1.4828 0.0000
0.6207 1.5172 0.0000
0.6207 1.5517 0.0000
0.6207 1.5862 0.0000
0.6207 1.6207 0.0000
0.6207 1.6552 0.0000
0.6207 1.6897 0.0000
0.6207 1.7241 0.0000
0.6207 1.7586 0.0000
0.6207 1.7931 0.0000
0.6207 1.8276 0.0000
0.6207 1.8621 0.0000
0.6207 1.8966 0.0000
0.6207 1.9310 0.0000
0.6207 1.9655 0.0000
0.6207 2.0000 0.0000
0.6897 1.0000 0.0000
0.6897 1.0345 0.0000
0.6897 1.0690 0.0000
0.6897 1.1034 0.0000
0.6897 1.1379 0.0000
0.6897 1.1724 0.0000
0.6897 1.2069 0.0000
0.6897 1.2414 0.0000
0.6897 1.2759 0.0000
0.6897 1.3103 0.0000
0.6897 1.3448 0.0000
0.6897 1.3793 0.0000
0.6897 1.4138 0.0000
0.6897 1.4483 0.0000
0.6897 1.4828 0.0000
0.6897 1.5172 0.0000
0.6897 1.5517 0.0000
0.6897 1.5862 0.0000
0.6897 1.6207 0.0000
0.6897 1.6552 0.0000
0.6897 1.6897 0.0000
0.6897 1.7241 0.0000
0.6897 1.7586 0.0000
0.6897 1.7931 0.0000
0.6897 1.8276 0.0000
0.6897 1.8621 0.0000
0.6897 1.8966 0.0000
0.6897 1.9310 0.0000
0.6897 1.9655 0.0000
0.6897 2.0000 0.0000
0.7586 1.0000 0.0000
0.7586 1.0345 0.0000
0.7586 1.0690 0.0000
0.7586 1.1034 0.0000
0.7586 1.1379 0.0000
0.7586 1.1724 0.0000
0.7586 1.2069 0.0000
0.7586 1.2414 0.0000
0.7586 1.2759 0.0000
0.7586 1.3103 0.0000
0.7586 1.3448 0.0000
0.7586 1.3793 0.0000
0.7586 1.4138 0.0000
0.7586 1.4483 0.0000
0.7586 1.4828 0.0000
0.7586 1.5172 0.0000
0.7586 1.5517 0.0000
0.7586 1.5862 0.0000
0.7586 1.6207 0.0000
0.7586 1.6552 0.0000
0.7586 1.6897 0.0000
0.7586 1.7241 0.0000
0.7586 1.7586 0.0000
0.7586 1.7931 0.0000
0.7586 1.8276 0.0000
0.7586 1.8621 0.0000
0.7586 1.8966 0.0000
0.7586 1.9310 0.0000
0.7586 1.9655 0.0000
0.7586 2.0000 0.0000
0.8276 1.0000 0.0000
0.8276 1.0345 0.0000
0.8276 1.0690 0.0000
0.8276 1.1034 0.0000
0.8276 1.1379 0.0000
0.8276 1.1724 0.0000
0.8276 1.2069 0.0000
0.8276 1.2414 0.0000
0.8276 1.2759 0.0000
0.8276 1.3103 0.0000
0.8276 1.3448 0.0000
0.8276 1.3793 0.0000
0.8276 1.4138 0.0000
0.8276 1.4483 0.0000
0.8276 1.4828 0.0000
0.8276 1.5172 0.0000
0.8276 1.5517 0.0000
0.8276 1.5862 0.0000
0.8276 1.6207 0.0000
0.8276 1.6552 0.0000
0.8276 1.6897 0.0000
0.8276 1.7241 0.0000
0.8276 1.7586 0.0000
0.8276 1.7931 0.0000
0.8276 1.8276 0.0000
0.8276 1.8621 0.0000
0.8276 1.8966 0.0000
0.8276 1.9310 0.0000
0.8276 1.9655 0.0000
0.8276 2.0000 0.0000
0.8966 1.0000 0.0000
0.8966 1.0345 0.0000
0.8966 1.0690 0.0000
0.8966 1.1034 0.0000
0.8966 1.1379 0.0000
0.8966 1.1724 0.0000
0.8966 1.2069 0.0000
0.8966 1.2414 0.0000
0.8966 1.2759 0.0000
0.8966 1.3103 0.0000
0.8966 1.3448 0.0000
0.8966 1.3793 0.0000
0.8966 1.4138 0.0000
0.8966 1.4483 0.0000
0.8966 1.4828 0.0000
0.8966 1.5172 0.0000
0.8966 1.5517 0.0000
0.8966 1.5862 0.0000
0.8966 1.6207 0.0000
0.8966 1.6552 0.0000
0.8966 1.6897 0.0000
0.8966 1.7241 0.0000
0.8966 1.7586 0.0000
0.8966 1.7931 0.0000
0.8966 1.8276 0.0000
0.8966 1.8621 0.0000
0.8966 1.8966 0.0000
0.8966 1.9310 0.0000
0.8966 1.9655 0.0000
0.8966 2.0000 0.0000
0.9655 1.0000 0.0000
0.9655 1.0345 0.0000
0.9655 1.0690 0.0000
0.9655 1.1034 0.0000
0.9655 1.1379 0.0000
0.9655 1.1724 0.0000
0.9655 1.2069 0.0000
0.9655 1.2414 0.0000
0.9655 1.2759 0.0000
0.9655 1.3103 0.0000
0.9655 1.3448 0.0000
0.9655 1.3793 0.0000
0.9655 1.4138 0.0000
0.9655 1.4483 0.0000
0.9655 1.4828 0.0000
0.9655 1.5172 0.0000
0.9655 1.5517 0.0000
0.9655 1.5862 0.0000
0.9655 1.6207 0.0000
0.9655 1.6552 0.0000
0.9655 1.6897 0.0000
0.9655 1.7241 0.0000
0.9655 1.7586 0.0000
0.9655 1.7931 0.0000
0.9655 1.8276 0.0000
0.9655 1.8621 0.0000
0.9655 1.8966 0.0000
0.9655 1.9310 0.0000
0.9655 1.9655 0.0000
0.9655 2.0000 0.0000
1.0345 1.0000 0.0000
1.0345 1.0345 0.0000
1.0345 1.0690 0.0000
1.0345 1.1034 0.0000
1.0345 1.1379 0.0000
1.0345 1.1724 0.0000
1.0345 1.2069 0.0000
1.0345 1.2414 0.0000
1.0345 1.2759 0.0000
1.0345 1.3103 0.0000
1.0345 1.3448 0.0000
[...]
         <PointData>
            <DataArray Name="fValues" NumberOfComponents="3" format="ascii" type="Float64">
 2.80733e-24 -9.24469e-23        00000 
-1.12293e-23  1.34752e-22        00000 
       00000 -4.99698e-23        00000 
 5.02267e-23 -7.16777e-23        00000 
-3.33132e-23  4.85817e-23        00000 
 1.51873e-22 -1.57638e-22        00000 
 4.44176e-23  1.10350e-22        00000 
-1.74398e-23 -2.39187e-22        00000 
 3.95594e-23 -6.66264e-23        00000 
 2.31755e-23  1.47461e-22        00000 
-4.99698e-23  5.55220e-23        00000 
 1.88350e-23 -4.60411e-23        00000 
-3.60893e-23        00000        00000 
 5.19130e-23 -1.05577e-22        00000 
 8.60591e-23 -2.22088e-23        00000 
 3.03453e-23 -2.02302e-23        00000 
 1.11044e-23  9.43874e-23        00000 
 2.75171e-23 -3.88919e-23        00000 
 6.66264e-23  8.88352e-23        00000 
-2.54621e-23 -1.17196e-22        00000 
 1.36029e-22  9.99396e-23        00000 
-4.53108e-23 -4.32193e-23        00000 
-2.22088e-23 -8.88352e-23        00000 
-3.13917e-24  6.41786e-23        00000 
-1.45745e-23 -1.11044e-23        00000 
-1.66550e-23 -6.43503e-24        00000 
-7.49547e-23  6.66264e-23        00000 
 2.12289e-23 -2.26442e-22        00000 
-2.79991e-23  3.63988e-23        00000 
-2.23797e-23 -1.41307e-22        00000 
-7.52421e-07  3.90894e-07        00000 
-3.57132e-07 -1.28680e-06        00000 
 5.63885e-07 -1.12230e-06        00000 
-4.74902e-07 -3.67946e-07        00000 
 2.32267e-07 -1.06860e-06        00000 
 5.83943e-07 -8.28458e-08        00000 
 1.26713e-06 -1.11036e-06        00000 
 6.32523e-07  7.60064e-07        00000 
 6.27920e-07 -1.24443e-06        00000 
-5.65378e-08  9.06316e-07        00000 
-7.77761e-07 -8.95509e-07        00000 
-7.16014e-07  1.30402e-06        00000 
 3.49862e-07 -1.41562e-06        00000 
-3.05095e-07 -1.01838e-06        00000 
-2.71146e-07  8.94402e-09        00000 
 4.65656e-07  5.08828e-07        00000 
 3.90211e-07 -2.40816e-07        00000 
-4.26582e-07  6.35119e-07        00000 
 2.35971e-07 -7.34367e-07        00000 
 5.99104e-07  9.24801e-07        00000 
 1.66248e-06 -9.79286e-07        00000 
 3.49774e-07 -1.35194e-06        00000 
 2.59422e-07 -5.90929e-07        00000 
-9.40444e-07 -1.15502e-06        00000 
-3.25997e-07  5.56031e-07        00000 
 5.12294e-08 -1.00044e-06        00000 
 4.57826e-07  2.14095e-07        00000 
 3.99007e-07 -2.36394e-06        00000 
-5.27697e-08  1.08375e-06        00000 
 6.30084e-07 -5.24055e-07        00000 
-1.36433e-06  9.96832e-07        00000 
-2.43785e-07 -8.91573e-07        00000 
 5.14558e-07 -4.20024e-07        00000 
 1.04665e-07 -6.86514e-07        00000 
 1.38677e-06 -6.61902e-08        00000 
 1.31174e-07 -1.55131e-07        00000 
 3.77885e-07 -4.88381e-07        00000 
 1.62148e-07  4.32639e-07        00000 
-1.11032e-06 -8.34534e-08        00000 
-9.45567e-07 -1.27557e-07        00000 
-3.48097e-07 -1.37233e-07        00000 
 6.81882e-07 -1.47929e-07        00000 
 1.17717e-08  8.49056e-07        00000 
 1.41397e-07 -1.48927e-06        00000 
-1.37551e-07  5.07263e-07        00000 
-1.04345e-07 -1.43221e-07        00000 
-1.12117e-07 -1.92476e-07        00000 
 5.56738e-07 -4.76600e-07        00000 
 6.06894e-07  3.07416e-07        00000 
-4.21797e-07  4.74632e-07        00000 
 5.11608e-07  1.33285e-06        00000 
 6.83159e-07 -7.10060e-07        00000 
 4.53848e-07  3.16372e-07        00000 
-5.46082e-07 -6.74166e-07        00000 
 6.63389e-07 -3.09892e-07        00000 
 5.49922e-07 -1.01101e-07        00000 
 5.90979e-07  2.42109e-06        00000 
 7.98369e-08 -1.55571e-06        00000 
-2.66966e-07  1.09466e-06        00000 
 1.37297e-06  3.85662e-07        00000 
 9.92698e-07 -1.20496e-06        00000 
 2.23913e-07 -9.67411e-07        00000 
-1.02869e-06  2.78781e-09        00000 
 1.91874e-07 -9.57373e-07        00000 
 5.78338e-07  7.87624e-07        00000 
-4.98456e-07 -3.11822e-07        00000 
-2.45843e-07 -7.46210e-07        00000 
 3.29628e-07 -8.36664e-07        00000 
 1.31457e-06  2.09262e-06        00000 
 2.03386e-07 -9.77841e-07        00000 
 6.55392e-07  7.89472e-07        00000 
 1.91634e-07 -1.87839e-06        00000 
 3.81631e-07 -4.55843e-07        00000 
-3.74494e-07 -3.18430e-07        00000 
 9.70654e-07  1.53629e-07        00000 
-2.16322e-08  3.73781e-07        00000 
 7.07409e-07 -1.13515e-06        00000 
 2.46817e-07 -1.08113e-06        00000 
 1.57509e-06 -4.19946e-07        00000 
-8.72489e-08  1.03120e-06        00000 
-5.70739e-07 -2.38074e-07        00000 
 1.83002e-07 -1.43222e-06        00000 
 1.27931e-06  1.08278e-06        00000 
 7.82883e-07  4.93390e-07        00000 
-1.68060e-07 -3.33223e-07        00000 
-4.91204e-07  8.02168e-07        00000 
 4.55594e-07 -2.06974e-06        00000 
 7.66277e-07 -1.16879e-06        00000 
 6.40114e-07 -2.04183e-08        00000 
 1.09143e-06 -6.71485e-07        00000 
-1.40847e-07 -4.14102e-07        00000 
 5.25119e-08 -6.18304e-07        00000 
 1.07264e-07 -1.69902e-07        00000 
 7.96769e-07 -5.04195e-07        00000 
 1.18273e-07  1.52171e-07        00000 
 6.35933e-07 -1.48674e-06        00000 
 4.06216e-07  6.70970e-07        00000 
 1.15736e-06 -1.90748e-06        00000 
 4.03506e-08  1.52937e-06        00000 
-3.36643e-07 -3.61538e-07        00000 
 1.65751e-07  1.66452e-06        00000 
 7.87040e-07  1.00779e-06        00000 
 3.95009e-07  4.29306e-07        00000 
-8.81331e-07  1.97712e-06        00000 
-1.74560e-07 -3.42076e-07        00000 
 8.97445e-08  1.06159e-06        00000 
 1.23632e-06  1.51380e-07        00000 
-5.35076e-07  3.55290e-07        00000 
 7.94107e-07  2.75245e-07        00000 
 9.47229e-07  1.82200e-06        00000 
 4.50007e-07 -7.82553e-07        00000 
 4.16695e-07 -1.67784e-06        00000 
 1.88439e-07  5.92671e-07        00000 
-7.86129e-09 -2.13540e-07        00000 
 7.97400e-07  8.72480e-07        00000 
 5.68894e-07 -9.63388e-08        00000 
 5.86490e-07 -3.53777e-07        00000 
 5.97327e-07 -1.10902e-06        00000 
 5.54973e-07  2.87785e-07        00000 
 5.13462e-07  1.31917e-06        00000 
 1.23282e-07  2.91651e-07        00000 
 4.95483e-07 -1.43258e-07        00000 
 6.01137e-07 -8.95938e-07        00000 
 2.59905e-07 -1.99486e-06        00000 
-4.50484e-07  1.19548e-06        00000 
 2.02446e-07 -6.09165e-07        00000 
 9.53582e-07  2.29016e-06        00000 
 4.97846e-07 -7.91870e-07        00000 
 5.96817e-08  3.94330e-07        00000 
-5.50721e-07  1.75342e-06        00000 
-3.06511e-07  1.15942e-06        00000 
-3.57302e-07  2.34526e-06        00000 
 3.03433e-07  5.70548e-08        00000 
 2.45710e-07  1.66998e-06        00000 
 7.15164e-07 -3.38191e-07        00000 
-7.89314e-07 -4.28114e-07        00000 
 2.02995e-07 -2.93889e-07        00000 
-1.51390e-06  4.47699e-07        00000 
 4.59976e-08 -9.48808e-07        00000 
 5.63216e-07  1.27719e-06        00000 
-4.36935e-08 -6.89012e-07        00000 
-6.43911e-07  9.11483e-07        00000 
 1.09313e-07 -9.71884e-09        00000 
 5.03471e-07  2.35123e-07        00000 
 5.63766e-07  1.21071e-06        00000 
 1.07778e-07 -6.65396e-07        00000 
 2.38985e-07  9.74266e-07        00000 
 9.56210e-07 -1.57331e-07        00000 
-3.39813e-07  1.47692e-07        00000 
 1.05995e-06 -4.76031e-08        00000 
 6.89256e-07 -9.93121e-07        00000 
 4.14045e-07  1.61639e-08        00000 
 1.44277e-06 -1.35975e-06        00000 
 4.59382e-07 -6.91047e-07        00000 
-4.26627e-07 -3.10601e-07        00000 
 1.79159e-07  6.77500e-07        00000 
-4.36253e-07  1.15354e-06        00000 
 6.14719e-07  6.09319e-07        00000 
 1.35075e-08 -1.05515e-06        00000 
 2.05487e-08  6.30310e-07        00000 
-3.55004e-07  7.57814e-07        00000 
-1.21259e-06 -2.77824e-07        00000 
-2.83482e-10  6.44481e-07        00000 
-3.23099e-09 -3.15115e-07        00000 
-1.08714e-06  1.27560e-06        00000 
-5.54169e-08 -1.58806e-06        00000 
-9.24719e-07  4.00631e-08        00000 
 5.55286e-07  4.63029e-07        00000 
 1.16882e-07 -6.14439e-07        00000 
-5.42070e-07 -5.74609e-07        00000 
-7.88624e-08  2.01624e-06        00000 
-1.04434e-06 -6.57757e-07        00000 
 9.34124e-07 -5.86982e-07        00000 
 3.67394e-07  8.67889e-08        00000 
 1.56013e-07 -1.86955e-07        00000 
-2.22353e-07  9.74771e-07        00000 
-9.49812e-08  3.87322e-07        00000 
 2.93748e-07 -1.75588e-08        00000 
 1.84620e-07 -2.21269e-06        00000 
 8.64139e-07 -7.66443e-07        00000 
 6.88017e-07  1.42471e-06        00000 
 1.10897e-06  7.89225e-08        00000 
 2.19771e-07 -4.57453e-07        00000 
-2.28673e-07  3.31673e-07        00000 
-8.03926e-08  7.03541e-08        00000 
 3.20566e-07  2.25515e-06        00000 
 3.78512e-07  2.71044e-07        00000 
-7.11981e-08  6.44581e-07        00000 
 1.17934e-06 -1.51759e-06        00000 
-8.87148e-08 -5.99794e-07        00000 
 2.05853e-08  1.73386e-06        00000 
-3.66139e-07 -7.41703e-07        00000 
 2.63303e-08 -7.99309e-07        00000 
 1.01940e-07  5.65950e-07        00000 
 1.00873e-06 -3.15115e-07        00000 
 2.59577e-07 -1.41541e-07        00000 
-4.60725e-07  4.05177e-07        00000 
-3.93894e-07  9.96253e-08        00000 
-5.93118e-07  6.36193e-07        00000 
-4.34529e-07 -3.20589e-08        00000 
-4.17085e-07 -4.64054e-07        00000 
 1.38078e-06 -1.80514e-06        00000 
 4.61479e-08 -1.38907e-06        00000 
 3.87936e-07  4.80370e-08        00000 
 7.16718e-07  4.03085e-08        00000 
 9.13165e-07  1.25037e-07        00000 
-1.71252e-07  1.25157e-06        00000 
 7.69645e-07  5.04058e-07        00000 
-3.57967e-07  5.32396e-07        00000 
 7.54460e-07 -4.79340e-07        00000 
 7.69938e-07 -3.12083e-07        00000 
 6.95371e-07 -7.52070e-07        00000 
-1.67234e-07 -4.17319e-07        00000 
-3.29457e-07  4.46712e-07        00000 
-2.68675e-07  2.27630e-07        00000 
 1.30608e-06  8.32601e-07        00000 
 5.33232e-07  5.58458e-07        00000 
-2.40528e-07 -3.34834e-07        00000 
 7.01589e-07  5.55834e-07        00000 
 5.66723e-07 -5.71647e-07        00000 
-2.01994e-07 -7.33281e-07        00000 
 1.82463e-07  2.36324e-07        00000 
 1.04832e-06 -1.03658e-06        00000 
 3.74557e-07 -1.20745e-06        00000 
-2.50544e-08 -6.18639e-07        00000 
-1.25177e-06  1.05655e-06        00000 
-5.67279e-07  7.77314e-07        00000 
-2.90288e-07  6.26931e-07        00000 
-7.96890e-08  2.41102e-07        00000 
-8.55217e-09 -4.76867e-07        00000 
-5.01258e-08 -1.51615e-06        00000 
-1.28063e-08 -1.07782e-06        00000 
-8.80941e-07 -8.58156e-07        00000 
 1.21132e-06 -1.47998e-06        00000 
-6.05366e-07 -1.60368e-07        00000 
 3.17510e-07  1.92927e-07        00000 
 9.52997e-07 -4.99604e-08        00000 
 5.64276e-07 -2.45981e-07        00000 
-6.00243e-07 -3.70079e-07        00000 
 1.42850e-07 -5.87757e-07        00000 
 1.16204e-06 -8.98748e-07        00000 
-1.49877e-07 -1.12789e-07        00000 
 3.91674e-07  5.72342e-07        00000 
 3.26573e-07 -1.75978e-06        00000 
 9.85950e-07  1.28554e-06        00000 
 4.81947e-07  9.65260e-07        00000 
 5.31575e-07  8.33023e-07        00000 
-2.08489e-07  7.36191e-07        00000 
-8.88276e-07 -1.07043e-06        00000 
-1.15939e-07  5.81620e-07        00000 
-1.94584e-07  4.65941e-07        00000 
-8.06743e-08 -4.08377e-07        00000 
-1.15360e-07 -9.19781e-07        00000 
-1.18041e-07 -6.63860e-07        00000 
-2.95600e-07 -1.63520e-08        00000 
 3.44499e-07  2.18717e-07        00000 
-2.60022e-07  1.32992e-06        00000 
 1.49820e-06  1.23889e-06        00000 
-4.92511e-07  1.62100e-07        00000 
 2.25757e-07  9.03933e-07        00000 
-1.10703e-06 -9.49056e-07        00000 
-4.86540e-07 -3.34949e-08        00000 
-6.21677e-07 -4.71860e-07        00000 
 5.28227e-07 -1.60342e-06        00000 
-2.75674e-08  1.77329e-06        00000 
 7.60047e-07  4.33211e-07        00000 
 4.07206e-07 -1.64599e-06        00000 
 4.73968e-07  5.30920e-07        00000 
-1.81501e-07  9.16071e-07        00000 
-3.73190e-07  2.24476e-07        00000 
-5.21792e-08 -4.70833e-07        00000 
-8.57522e-07  3.24608e-07        00000 
-1.16719e-06  1.96303e-06        00000 
 1.20962e-07 -1.12324e-06        00000 
-1.58522e-07  2.37705e-06        00000 
 6.93512e-07  6.73881e-07        00000 
-5.15591e-07  7.45155e-07        00000 
-1.75148e-06  2.09266e-06        00000 
-4.01942e-07 -2.00249e-06        00000 
-1.68025e-07 -4.07001e-08        00000 
-1.96789e-07 -4.41113e-07        00000 
 6.90676e-08  5.81093e-07        00000 
 4.39225e-07 -5.53051e-07        00000 
 3.83295e-08 -1.62264e-06        00000 
-9.37170e-07  2.01868e-07        00000 
 8.79775e-07 -8.17321e-07        00000 
 1.63386e-08  1.22505e-06        00000 
-9.29387e-08 -3.10385e-07        00000 
-1.37430e-06  7.60083e-07        00000 
-1.56010e-06  2.15294e-07        00000 
-9.04028e-07  9.72241e-07        00000 
-4.87644e-07 -1.99632e-06        00000 
 9.19908e-07 -1.26197e-06        00000 
 3.62091e-07  1.08058e-06        00000 
 1.43313e-07  4.15933e-07        00000 
 1.65176e-06 -9.78505e-07        00000 
 6.36172e-07 -1.76609e-06        00000 
 1.43312e-07 -8.77558e-08        00000 
 7.38455e-07  1.50878e-06        00000 
-3.14767e-07 -2.00435e-07        00000 
-3.06569e-07 -1.59917e-08        00000 
 2.96168e-07  9.70155e-07        00000 
 8.50360e-07 -5.98439e-07        00000 
-1.32204e-07  2.69813e-07        00000 
 3.90903e-07 -2.22032e-07        00000 
 1.64185e-07 -4.00352e-07        00000 
 1.58207e-07 -2.31918e-07        00000 
-9.02301e-08  1.72499e-06        00000 
 8.31170e-07  8.49307e-08        00000 
 5.11288e-07  3.68651e-07        00000 
 4.02976e-07  8.55055e-07        00000 
-2.82146e-07 -2.81969e-07        00000 
-5.22862e-07 -5.11194e-07        00000 
 3.38956e-07 -1.00949e-06        00000 
 6.81634e-07 -5.08661e-07        00000 
 3.10312e-07 -9.57494e-07        00000 
 5.18264e-07  1.96524e-07        00000 
-1.44771e-07  8.80878e-07        00000 
 1.44696e-07 -3.43117e-07        00000 
 1.32204e-07 -6.04677e-07        00000 
-8.06918e-07  6.25952e-07        00000 
 5.90337e-07 -1.30232e-06        00000 
 9.72791e-08 -1.11278e-06        00000 
 2.22862e-07  7.36512e-07        00000 
 6.17768e-07 -1.95788e-06        00000 
 5.34274e-07 -1.17432e-06        00000 
 1.36878e-07 -5.49565e-07        00000 
 7.25784e-07 -2.60287e-07        00000 
 4.17185e-07 -6.99969e-07        00000 
 5.30654e-07 -1.69602e-06        00000 
 2.15816e-07 -3.38367e-07        00000 
-3.90570e-07  9.60049e-07        00000 
-9.07422e-08 -7.92121e-08        00000 
 7.44142e-07  1.69813e-07        00000 
 9.81249e-07 -4.42207e-07        00000 
-6.84399e-07 -2.56969e-07        00000 
-2.45475e-07 -1.21235e-06        00000 
-1.22468e-06  1.40595e-06        00000 
 7.74022e-07 -7.70998e-08        00000 
-1.44149e-07  1.51882e-06        00000 
-1.18105e-07  6.80058e-07        00000 
-4.51490e-07 -4.95556e-07        00000 
-3.47144e-09 -3.81071e-07        00000 
-3.37369e-07  8.01122e-07        00000 
-5.35916e-07 -2.11156e-07        00000 
 5.56262e-07 -2.23615e-08        00000 
 5.29717e-07  4.81877e-07        00000 
 5.36916e-07  1.84003e-06        00000 
 2.78712e-07  6.58708e-07        00000 
-1.32437e-06  1.97934e-06        00000 
 4.55108e-07  9.99708e-07        00000 
 2.88415e-07 -1.26550e-06        00000 
 7.16997e-07  4.72722e-07        00000 
-1.27814e-06 -3.90182e-07        00000 
 1.45339e-06 -3.97220e-07        00000 
 3.96061e-07 -3.23282e-08        00000 
-3.89137e-07  1.20991e-06        00000 
 2.03362e-07 -5.01198e-07        00000 
-1.37567e-06  4.99641e-08        00000 
 7.17442e-10  3.94940e-07        00000 
 8.28129e-07 -3.13375e-07        00000 
 2.74781e-07  8.71734e-07        00000 
-8.76148e-07  2.87675e-07        00000 
-5.84291e-07 -1.66548e-07        00000 
-1.05318e-06 -2.37748e-07        00000 
 1.78614e-07  1.24358e-07        00000 
-1.24837e-06 -1.31581e-06        00000 
-1.08966e-06  8.06652e-07        00000 
-3.88287e-08 -2.40455e-08        00000 
-2.90274e-07  1.16960e-08        00000 
 5.14026e-07 -1.96384e-07        00000 
 4.86171e-07  8.72136e-07        00000 
-3.63340e-08  8.11229e-07        00000 
 1.05259e-08 -1.73241e-06        00000 
-7.61404e-07 -4.79130e-07        00000 
-2.12577e-07 -2.26048e-07        00000 
-8.92000e-07  4.02067e-07        00000 
-7.29046e-07  5.42158e-07        00000 
 4.09393e-07 -1.88042e-07        00000 
-1.00179e-06 -4.86751e-07        00000 
-7.74009e-07 -6.56728e-07        00000 
 2.34606e-07 -7.30293e-07        00000 
 6.80564e-07 -3.60336e-07        00000 
-2.97271e-07 -1.17151e-06        00000 
-5.09609e-08  7.45353e-07        00000 
 4.12780e-07 -7.53295e-07        00000 
-4.90837e-07  5.04819e-07        00000 
-9.03531e-07  1.82954e-06        00000 
 1.05908e-07  8.27243e-07        00000 
-3.05288e-07  3.49045e-07        00000 
 6.35204e-07  4.95014e-07        00000 
 5.76331e-08 -4.33583e-07        00000 
-5.09204e-07  1.53361e-06        00000 
-4.20820e-07 -1.14377e-06        00000 
-6.30229e-07 -1.58996e-06        00000 
-2.33115e-07 -9.20619e-07        00000 
 1.04956e-06 -1.03260e-06        00000 
 3.67647e-07  1.02954e-06        00000 
 5.22999e-07  1.55566e-06        00000 
-1.30348e-06  1.14472e-06        00000 
-2.75289e-07 -1.37011e-06        00000 
-8.14639e-07  2.02605e-07        00000 
 4.13947e-07  1.30818e-06        00000 
-5.29179e-07 -1.20549e-06        00000 
 4.61384e-07  4.06261e-09        00000 
 3.07806e-07  1.28010e-06        00000 
-4.81185e-07  4.29602e-07        00000 
-2.24128e-08 -1.32618e-06        00000 
 2.27574e-08  8.66006e-07        00000 
 6.61633e-07  3.79823e-07        00000 
-2.74415e-08 -2.99820e-07        00000 
-1.30518e-07  7.88425e-07        00000 
 1.68888e-07 -3.93853e-07        00000 
-1.35886e-07 -8.39350e-07        00000 
 2.49230e-07 -9.49410e-07        00000 
-3.16233e-07  5.03606e-07        00000 
-1.12725e-06  1.45264e-06        00000 
-7.72221e-07 -2.24214e-07        00000 
-6.09096e-07  6.56268e-07        00000 
 8.50693e-07 -9.96134e-07        00000 
-4.36776e-07 -4.61442e-07        00000 
-5.81314e-07 -7.69341e-07        00000 
 9.84354e-07 -1.41594e-06        00000 
 7.45911e-07  2.87726e-07        00000 
-2.00771e-07 -6.04751e-07        00000 
 3.44775e-07 -2.67111e-07        00000 
 7.55182e-07 -5.75287e-07        00000 
-1.61050e-07  1.05869e-06        00000 
 1.92825e-07  2.37716e-06        00000 
-5.26490e-07 -2.66733e-07        00000 
-4.36696e-07 -5.96655e-07        00000 
 4.99334e-07 -1.40234e-06        00000 
-1.14128e-06 -3.16805e-07        00000 
-6.83960e-08  6.54078e-07        00000 
 6.80166e-07 -8.12488e-07        00000 
-5.27564e-08  2.19067e-06        00000 
-9.06065e-07 -1.35482e-06        00000 
 8.44828e-07  5.23211e-07        00000 
-1.41733e-07  1.77275e-07        00000 
-2.23280e-07 -1.82634e-07        00000 
 3.63373e-07  1.07308e-07        00000 
-7.75553e-07 -1.42769e-08        00000 
 6.86696e-07  7.95321e-07        00000 
 6.19078e-07 -9.34110e-07        00000 
-6.42323e-07 -1.10308e-06        00000 
 7.40721e-07  1.79406e-07        00000 
-1.07361e-07  1.09353e-06        00000 
 4.78376e-07 -9.65174e-07        00000 
 1.21908e-06  1.61441e-07        00000 
 2.72840e-07 -4.96178e-07        00000 
-5.37654e-07  4.89930e-07        00000 
 1.57145e-07  5.19570e-07        00000 
 2.49067e-07 -1.32960e-06        00000 
 2.01844e-07  1.45837e-06        00000 
-3.57060e-07  2.54161e-07        00000 
-4.45861e-07 -9.11202e-07        00000 
 3.67463e-07 -2.84267e-07        00000 
 5.40077e-07  8.35743e-08        00000 
-1.13192e-06  1.30470e-06        00000 
 6.02031e-07 -4.10838e-07        00000 
-2.91752e-07  8.52492e-07        00000 
-7.98005e-07 -4.65746e-07        00000 
-3.71952e-07 -9.98810e-08        00000 
 1.18589e-06  5.80629e-07        00000 
 8.90387e-08 -4.31691e-07        00000 
-5.48906e-07  1.22760e-06        00000 
 1.68910e-07 -8.21500e-07        00000 