<?xml version="1.0" encoding="utf-8"?>
<VTKFile byte_order="LittleEndian" type="UnstructuredGrid" version="0.1">
   <UnstructuredGrid>
      <Piece NumberOfCells="3364" NumberOfPoints="1741">
         <Points>
            <DataArray Name="Points" NumberOfComponents="3" format="ascii" type="Float32">
0.0000 1.0000 0.0000
0.0000 1.0345 0.0000
0.0000 1.0690 0.0000
0.0000 1.1034 0.0000
0.0000 1.1379 0.0000
0.0000 1.1724 0.0000
0.0000 1.2069 0.0000
0.0000 1.2414 0.0000
0.0000 1.2759 0.0000
0.0000 1.3103 0.0000
0.0000 1.3448 0.0000
0.0000 1.3793 0.0000
0.0000 1.4138 0.0000
0.0000 1.4483 0.0000
0.0000 1.4828 0.0000
0.0000 1.5172 0.0000
0.0000 1.5517 0.0000
0.0000 1.5862 0.0000
0.0000 1.6207 0.0000
0.0000 1.6552 0.0000
0.0000 1.6897 0.0000
0.0000 1.7241 0.0000
0.0000 1.7586 0.0000
0.0000 1.7931 0.0000
0.0000 1.8276 0.0000
0.0000 1.8621 0.0000
0.0000 1.8966 0.0000
0.0000 1.9310 0.0000
0.0000 1.9655 0.0000
0.0000 2.0000 0.0000
0.0690 1.0000 0.0000
0.0690 1.0345 0.0000
0.0690 1.0690 0.0000
0.0690 1.1034 0.0000
0.0690 1.1379 0.0000
0.0690 1.1724 0.0000
0.0690 1.2069 0.0000
0.0690 1.2414 0.0000
0.0690 1.2759 0.0000
0.0690 1.3103 0.0000
0.0690 1.3448 0.0000
0.0690 1.3793 0.0000
0.0690 1.4138 0.0000
0.0690 1.4483 0.0000
0.0690 1.4828 0.0000
0.0690 1.5172 0.0000
0.0690 1.5517 0.0000
0.0690 1.5862 0.0000
0.0690 1.6207 0.0000
0.0690 1.6552 0.0000
0.0690 1.6897 0.0000
0.0690 1.7241 0.0000
0.0690 1.7586 0.0000
0.0690 1.7931 0.0000
0.0690 1.8276 0.0000
0.0690 1.8621 0.0000
0.0690 1.8966 0.0000
0.0690 1.9310 0.0000
0.0690 1.9655 0.0000
0.0690 2.0000 0.0000
0.1379 1.0000 0.0000
0.1379 1.0345 0.0000
0.1379 1.0690 0.0000
0.1379 1.1034 0.0000
0.1379 1.1379 0.0000
0.1379 1.1724 0.0000
0.1379 1.2069 0.0000
0.1379 1.2414 0.0000
0.1379 1.2759 0.0000
0.1379 1.3103 0.0000
0.1379 1.3448 0.0000
0.1379 1.3793 0.0000
0.1379 1.4138 0.0000
0.1379 1.4483 0.0000
0.1379 1.4828 0.0000
0.1379 1.5172 0.0000
0.1379 1.5517 0.0000
0.1379 1.5862 0.0000
0.1379 1.6207 0.0000
0.1379 1.6552 0.0000
0.1379 1.6897 0.0000
0.1379 1.7241 0.0000
0.1379 1.7586 0.0000
0.1379 1.7931 0.0000
0.1379 1.8276 0.0000
0.1379 1.8621 0.0000
0.1379 1.8966 0.0000
0.1379 1.9310 0.0000
0.1379 1.9655 0.0000
0.1379 2.0000 0.0000
0.2069 1.0000 0.0000
0.2069 1.0345 0.0000
0.2069 1.0690 0.0000
0.2069 1.1034 0.0000
0.2069 1.1379 0.0000
0.2069 1.1724 0.0000
0.2069 1.2069 0.0000
0.2069 1.2414 0.0000
0.2069 1.2759 0.0000
0.2069 1.3103 0.0000
0.2069 1.3448 0.0000
0.2069 1.3793 0.0000
0.2069 1.4138 0.0000
0.2069 1.4483 0.0000
0.2069 1.4828 0.0000
0.2069 1.5172 0.0000
0.2069 1.5517 0.0000
0.2069 1.5862 0.0000
0.2069 1.6207 0.0000
0.2069 1.6552 0.0000
0.2069 1.6897 0.0000
0.2069 1.7241 0.0000
0.2069 1.7586 0.0000
0.2069 1.7931 0.0000
0.2069 1.8276 0.0000
0.2069 1.8621 0.0000
0.2069 1.8966 0.0000
0.2069 1.9310 0.0000
0.2069 1.9655 0.0000
0.2069 2.0000 0.0000
0.2759 1.0000 0.0000
0.2759 1.0345 0.0000
0.2759 1.0690 0.0000
0.2759 1.1034 0.0000
0.2759 1.1379 0.0000
0.2759 1.1724 0.0000
0.2759 1.2069 0.0000
0.2759 1.2414 0.0000
0.2759 1.2759 0.0000
0.2759 1.3103 0.0000
0.2759 1.3448 0.0000
0.2759 1.3793 0.0000
0.2759 1.4138 0.0000
0.2759 1.4483 0.0000
0.2759 1.4828 0.0000
0.2759 1.5172 0.0000
0.2759 1.5517 0.0000
0.2759 1.5862 0.0000
0.2759 1.6207 0.0000
0.2759 1.6552 0.0000
0.2759 1.6897 0.0000
0.2759 1.7241 0.0000
0.2759 1.7586 0.0000
0.2759 1.7931 0.0000
0.2759 1.8276 0.0000
0.2759 1.8621 0.0000
0.2759 1.8966 0.0000
0.2759 1.9310 0.0000
0.2759 1.9655 0.0000
0.2759 2.0000 0.0000
0.3448 1.0000 0.0000
0.3448 1.0345 0.0000
0.3448 1.0690 0.0000
0.3448 1.1034 0.0000
0.3448 1.1379 0.0000
0.3448 1.1724 0.0000
0.3448 1.2069 0.0000
0.3448 1.2414 0.0000
0.3448 1.2759 0.0000
0.3448 1.3103 0.0000
0.3448 1.3448 0.0000
0.3448 1.3793 0.0000
0.3448 1.4138 0.0000
0.3448 1.4483 0.0000
0.3448 1.4828 0.0000
0.3448 1.5172 0.0000
0.3448 1.5517 0.0000
0.3448 1.5862 0.0000
0.3448 1.6207 0.0000
0.3448 1.6552 0.0000
0.3448 1.6897 0.0000
0.3448 1.7241 0.0000
0.3448 1.7586 0.0000
0.3448 1.7931 0.0000
0.3448 1.8276 0.0000
0.3448 1.8621 0.0000
0.3448 1.8966 0.0000
0.3448 1.9310 0.0000
0.3448 1.9655 0.0000
0.3448 2.0000 0.0000
0.4138 1.0000 0.0000
0.4138 1.0345 0.0000
0.4138 1.0690 0.0000
0.4138 1.1034 0.0000
0.4138 1.1379 0.0000
0.4138 1.1724 0.0000
0.4138 1.2069 0.0000
0.4138 1.2414 0.0000
0.4138 1.2759 0.0000
0.4138 1.3103 0.0000
0.4138 1.3448 0.0000
0.4138 1.3793 0.0000
0.4138 1.4138 0.0000
0.4138 1.4483 0.0000
0.4138 1.4828 0.0000
0.4138 1.5172 0.0000
0.4138 1.5517 0.0000
0.4138 1.5862 0.0000
0.4138 1.6207 0.0000
0.4138 1.6552 0.0000
0.4138 1.6897 0.0000
0.4138 1.7241 0.0000
0.4138 1.7586 0.0000
0.4138 1.7931 0.0000
0.4138 1.8276 0.0000
0.4138 1.8621 0.0000
0.4138 1.8966 0.0000
0.4138 1.9310 0.0000
0.4138 1.9655 0.0000
0.4138 2.0000 0.0000
0.4828 1.0000 0.0000
0.4828 1.0345 0.0000
0.4828 1.0690 0.0000
0.4828 1.1034 0.0000
0.4828 1.1379 0.0000
0.4828 1.1724 0.0000
0.4828 1.2069 0.0000
0.4828 1.2414 0.0000
0.4828 1.2759 0.0000
0.4828 1.3103 0.0000
0.4828 1.3448 0.0000
0.4828 1.3793 0.0000
0.4828 1.4138 0.0000
0.4828 1.4483 0.0000
0.4828 1.4828 0.0000
0.4828 1.5172 0.0000
0.4828 1.5517 0.0000
0.4828 1.5862 0.0000
0.4828 1.6207 0.0000
0.4828 1.6552 0.0000
0.4828 1.6897 0.0000
0.4828 1.7241 0.0000
0.4828 1.7586 0.0000
0.4828 1.7931 0.0000
0.4828 1.8276 0.0000
0.4828 1.8621 0.0000
0.4828 1.8966 0.0000
0.4828 1.9310 0.0000
0.4828 1.9655 0.0000
0.4828 2.0000 0.0000
0.5517 1.0000 0.0000
0.5517 1.0345 0.0000
0.5517 1.0690 0.0000
0.5517 1.1034 0.0000
0.5517 1.1379 0.0000
0.5517 1.1724 0.0000
0.5517 1.2069 0.0000
0.5517 1.2414 0.0000
0.5517 1.2759 0.0000
0.5517 1.3103 0.0000
0.5517 1.3448 0.0000
0.5517 1.3793 0.0000
0.5517 1.4138 0.0000
0.5517 1.4483 0.0000
0.5517 1.4828 0.0000
0.5517 1.5172 0.0000
0.5517 1.5517 0.0000
0.5517 1.5862 0.0000
0.5517 1.6207 0.0000
0.5517 1.6552 0.0000
0.5517 1.6897 0.0000
0.5517 1.7241 0.0000
0.5517 1.7586 0.0000
0.5517 1.7931 0.0000
0.5517 1.8276 0.0000
0.5517 1.8621 0.0000
0.5517 1.8966 0.0000
0.5517 1.9310 0.0000
0.5517 1.9655 0.0000
0.5517 2.0000 0.0000
0.6207 1.0000 0.0000
0.6207 1.0345 0.0000
0.6207 1.0690 0.0000
0.6207 1.1034 0.0000
0.6207 1.1379 0.0000
0.6207 1.1724 0.0000
0.6207 1.2069 0.0000
0.6207 1.2414 0.0000
0.6207 1.2759 0.0000
0.6207 1.3103 0.0000
0.6207 1.3448 0.0000
0.6207 1.3793 0.0000
0.6207 1.4138 0.0000
0.6207 1.4483 0.0000
0.6207 1.4828 0.0000
0.6207 1.5172 0.0000
0.6207 1.5517 0.0000
0.6207 1.5862 0.0000
0.6207 1.6207 0.0000
0.6207 1.6552 0.0000
0.6207 1.6897 0.0000
0.6207 1.7241 0.0000
0.6207 1.7586 0.0000
0.6207 1.7931 0.0000
0.6207 1.8276 0.0000
0.6207 1.8621 0.0000
0.6207 1.8966 0.0000
0.6207 1.9310 0.0000
0.6207 1.9655 0.0000
0.6207 2.0000 0.0000
0.6897 1.0000 0.0000
0.6897 1.0345 0.0000
0.6897 1.0690 0.0000
0.6897 1.1034 0.0000
0.6897 1.1379 0.0000
0.6897 1.1724 0.0000
0.6897 1.2069 0.0000
0.6897 1.2414 0.0000
0.6897 1.2759 0.0000
0.6897 1.3103 0.0000
0.6897 1.3448 0.0000
0.6897 1.3793 0.0000
0.6897 1.4138 0.0000
0.6897 1.4483 0.0000
0.6897 1.4828 0.0000
0.6897 1.5172 0.0000
0.6897 1.5517 0.0000
0.6897 1.5862 0.0000
0.6897 1.6207 0.0000
0.6897 1.6552 0.0000
0.6897 1.6897 0.0000
0.6897 1.7241 0.0000
0.6897 1.7586 0.0000
0.6897 1.7931 0.0000
0.6897 1.8276 0.0000
0.6897 1.8621 0.0000
0.6897 1.8966 0.0000
0.6897 1.9310 0.0000
0.6897 1.9655 0.0000
0.6897 2.0000 0.0000
0.7586 1.0000 0.0000
0.7586 1.0345 0.0000
0.7586 1.0690 0.0000
0.7586 1.1034 0.0000
0.7586 1.1379 0.0000
0.7586 1.1724 0.0000
0.7586 1.2069 0.0000
0.7586 1.2414 0.0000
0.7586 1.2759 0.0000
0.7586 1.3103 0.0000
0.7586 1.3448 0.0000
0.7586 1.3793 0.0000
0.7586 1.4138 0.0000
0.7586 1.4483 0.0000
0.7586 1.4828 0.0000
0.7586 1.5172 0.0000
0.7586 1.5517 0.0000
0.7586 1.5862 0.0000
0.7586 1.6207 0.0000
0.7586 1.6552 0.0000
0.7586 1.6897 0.0000
0.7586 1.7241 0.0000
0.7586 1.7586 0.0000
0.7586 1.7931 0.0000
0.7586 1.8276 0.0000
0.7586 1.8621 0.0000
0.7586 1.8966 0.0000
0.7586 1.9310 0.0000
0.7586 1.9655 0.0000
0.7586 2.0000 0.0000
0.8276 1.0000 0.0000
0.8276 1.0345 0.0000
0.8276 1.0690 0.0000
0.8276 1.1034 0.0000
0.8276 1.1379 0.0000
0.8276 1.1724 0.0000
0.8276 1.2069 0.0000
0.8276 1.2414 0.0000
0.8276 1.2759 0.0000
0.8276 1.3103 0.0000
0.8276 1.3448 0.0000
0.8276 1.3793 0.0000
0.8276 1.4138 0.0000
0.8276 1.4483 0.0000
0.8276 1.4828 0.0000
0.8276 1.5172 0.0000
0.8276 1.5517 0.0000
0.8276 1.5862 0.0000
0.8276 1.6207 0.0000
0.8276 1.6552 0.0000
0.8276 1.6897 0.0000
0.8276 1.7241 0.0000
0.8276 1.7586 0.0000
0.8276 1.7931 0.0000
0.8276 1.8276 0.0000
0.8276 1.8621 0.0000
0.8276 1.8966 0.0000
0.8276 1.9310 0.0000
0.8276 1.9655 0.0000
0.8276 2.0000 0.0000
0.8966 1.0000 0.0000
0.8966 1.0345 0.0000
0.8966 1.0690 0.0000
0.8966 1.1034 0.0000
0.8966 1.1379 0.0000
0.8966 1.1724 0.0000
0.8966 1.2069 0.0000
0.8966 1.2414 0.0000
0.8966 1.2759 0.0000
0.8966 1.3103 0.0000
0.8966 1.3448 0.0000
0.8966 1.3793 0.0000
0.8966 1.4138 0.0000
0.8966 1.4483 0.0000
0.8966 1.4828 0.0000
0.8966 1.5172 0.0000
0.8966 1.5517 0.0000
0.8966 1.5862 0.0000
0.8966 1.6207 0.0000
0.8966 1.6552 0.0000
0.8966 1.6897 0.0000
0.8966 1.7241 0.0000
0.8966 1.7586 0.0000
0.8966 1.7931 0.0000
0.8966 1.8276 0.0000
0.8966 1.8621 0.0000
0.8966 1.8966 0.0000
0.8966 1.9310 0.0000
0.8966 1.9655 0.0000
0.8966 2.0000 0.0000
0.9655 1.0000 0.0000
0.9655 1.0345 0.0000
0.9655 1.0690 0.0000
0.9655 1.1034 0.0000
0.9655 1.1379 0.0000
0.9655 1.1724 0.0000
0.9655 1.2069 0.0000
0.9655 1.2414 0.0000
0.9655 1.2759 0.0000
0.9655 1.3103 0.0000
0.9655 1.3448 0.0000
0.9655 1.3793 0.0000
0.9655 1.4138 0.0000
0.9655 1.4483 0.0000
0.9655 1.4828 0.0000
0.9655 1.5172 0.0000
0.9655 1.5517 0.0000
0.9655 1.5862 0.0000
0.9655 1.6207 0.0000
0.9655 1.6552 0.0000
0.9655 1.6897 0.0000
0.9655 1.7241 0.0000
0.9655 1.7586 0.0000
0.9655 1.7931 0.0000
0.9655 1.8276 0.0000
0.9655 1.8621 0.0000
0.9655 1.8966 0.0000
0.9655 1.9310 0.0000
0.9655 1.9655 0.0000
0.9655 2.0000 0.0000
1.0345 1.0000 0.0000
1.0345 1.0345 0.0000
1.0345 1.0690 0.0000
1.0345 1.1034 0.0000
1.0345 1.1379 0.0000
1.0345 1.1724 0.0000
1.0345 1.2069 0.0000
1.0345 1.2414 0.0000
1.0345 1.2759 0.0000
1.0345 1.3103 0.0000
1.0345 1.3448 0.0000
[...]
         <PointData>
            <DataArray Name="fValues" NumberOfComponents="3" format="ascii" type="Float64">
 8.81384e-23  1.15461e-22        00000 
       00000 -5.05319e-23        00000 
 3.47012e-23  1.11044e-23        00000 
 2.04046e-23 -6.81897e-23        00000 
-4.99698e-23  4.71937e-23        00000 
-3.61514e-24 -3.61128e-23        00000 
       00000  7.63427e-23        00000 
 1.37775e-23 -7.18521e-23        00000 
       00000  4.58056e-23        00000 
 2.84968e-23 -3.15707e-23        00000 
       00000 -6.73204e-23        00000 
-2.16254e-23  1.67422e-23        00000 
-3.88654e-23 -1.38805e-23        00000 
 1.05972e-23  5.61948e-24        00000 
-2.77610e-23 -2.22088e-23        00000 
-1.25567e-23 -5.07499e-23        00000 
       00000 -1.27701e-22        00000 
 2.42712e-23  1.37616e-23        00000 
 3.05371e-23 -1.05492e-22        00000 
-5.61126e-23  6.22602e-23        00000 
 4.71937e-23 -4.16415e-24        00000 
 1.05412e-23  2.95064e-23        00000 
-1.83917e-23  1.66566e-23        00000 
-3.85638e-23 -5.31915e-23        00000 
 4.44176e-23  9.99396e-23        00000 
 4.57439e-23 -1.96509e-22        00000 
-1.11044e-23  8.88352e-23        00000 
 2.76063e-23 -1.67735e-23        00000 
-1.17246e-23  1.08497e-23        00000 
 6.16901e-23 -1.83203e-23        00000 
 7.39734e-07 -4.80075e-07        00000 
 3.00032e-07 -1.29484e-07        00000 
 1.40130e-07 -4.79028e-07        00000 
 1.22392e-07 -3.10789e-08        00000 
 6.37589e-07 -3.69337e-07        00000 
-2.61991e-07  1.22382e-07        00000 
-2.76606e-08  1.19505e-07        00000 
-9.56919e-08  1.13600e-06        00000 
 3.60657e-07 -2.34952e-07        00000 
 2.23032e-07  4.38560e-08        00000 
-2.78006e-07  1.69384e-07        00000 
-4.38963e-10 -6.71038e-07        00000 
 2.33999e-09  5.83138e-07        00000 
-6.08335e-07 -2.71710e-07        00000 
 2.60182e-07  4.21801e-07        00000 
-1.77017e-08 -1.85833e-07        00000 
-2.71035e-08  1.31338e-07        00000 
 2.51517e-07 -2.11742e-07        00000 
 5.89091e-07  1.26826e-07        00000 
 3.77578e-07 -5.75139e-07        00000 
 1.70101e-07  8.42722e-07        00000 
-1.99611e-08 -1.12617e-07        00000 
 4.03343e-07  3.08445e-07        00000 
 2.88272e-08  6.45245e-07        00000 
-1.93119e-07 -8.65918e-07        00000 
 5.38482e-07  1.18996e-06        00000 
 4.83135e-07 -3.70897e-08        00000 
 5.99169e-08  6.69328e-08        00000 
 4.13681e-08  5.56833e-08        00000 
-2.40108e-07  1.81611e-08        00000 
-7.85053e-08 -5.99101e-07        00000 
 4.29205e-07 -7.05866e-07        00000 
 1.72264e-07 -1.89048e-07        00000 
-8.51388e-08 -2.33030e-08        00000 
 2.21371e-07 -6.73750e-07        00000 
 2.43650e-07  4.24105e-07        00000 
-4.84863e-07 -3.25444e-07        00000 
 4.92888e-07 -1.21583e-07        00000 
-3.41283e-07 -6.16069e-07        00000 
 2.45295e-07 -3.10774e-07        00000 
-2.53023e-07 -5.13803e-07        00000 
-1.50208e-07 -1.80504e-09        00000 
-5.76903e-07  3.78519e-07        00000 
 9.57728e-08 -1.81189e-07        00000 
-4.73954e-07 -1.22804e-07        00000 
 5.84842e-07  1.02926e-06        00000 
 7.57270e-07  8.90913e-07        00000 
-3.26619e-07  5.23582e-07        00000 
-1.37709e-07  1.62248e-07        00000 
-5.73923e-07 -6.75139e-07        00000 
-7.43559e-08  1.67350e-07        00000 
 6.32970e-07 -2.74900e-07        00000 
 4.97504e-07 -7.06319e-07        00000 
 1.97857e-07 -9.09402e-07        00000 
-2.80298e-08  8.09626e-08        00000 
 1.11191e-07 -6.62209e-07        00000 
-4.49847e-08  1.61176e-07        00000 
 5.41887e-07 -8.12872e-07        00000 
 4.41780e-07 -3.44536e-07        00000 
 1.82166e-07  2.38895e-07        00000 
 6.38098e-07 -4.16373e-07        00000 
-1.10809e-07  8.92178e-08        00000 
 7.45567e-08  7.54552e-08        00000 
 5.82461e-07 -1.32237e-08        00000 
 3.22370e-07 -5.27080e-07        00000 
 1.83173e-07  4.90413e-07        00000 
 5.22461e-07  1.58380e-07        00000 
-2.07833e-07  2.64266e-07        00000 
-1.33099e-07  3.25937e-09        00000 
 5.13085e-07  3.96365e-07        00000 
 3.75621e-07 -3.76405e-07        00000 
-2.48127e-07  9.64741e-07        00000 
-4.05846e-07 -4.58971e-07        00000 
-3.86308e-07  1.20462e-07        00000 
-3.74509e-07 -4.83617e-07        00000 
-2.14381e-07  1.31757e-07        00000 
 2.47294e-07  8.54261e-07        00000 
 8.43798e-08  5.47377e-07        00000 
-2.43128e-07  2.97887e-07        00000 
 1.34555e-07 -2.74942e-08        00000 
 4.92231e-08 -7.75232e-07        00000 
-1.63669e-07  2.69061e-07        00000 
-9.13069e-08  2.57724e-07        00000 
 2.33456e-08 -6.73837e-07        00000 
-4.50397e-07  8.24777e-07        00000 
 9.71261e-08 -2.87577e-07        00000 
 6.26659e-07  2.63915e-07        00000 
 1.67552e-07  6.38555e-08        00000 
-2.06514e-07  4.41870e-08        00000 
 1.54663e-07  8.05865e-07        00000 
-3.59933e-07 -4.53930e-07        00000 
 1.17303e-07  1.86660e-08        00000 
 2.35646e-07 -1.32783e-08        00000 
-1.93595e-07  4.02592e-07        00000 
 2.90557e-07  3.14680e-08        00000 
-3.79504e-07  2.34941e-08        00000 
 2.67481e-07  4.49367e-07        00000 
 4.10926e-07  3.56796e-08        00000 
-4.74724e-07  4.65786e-07        00000 
 9.52296e-08 -7.61212e-08        00000 
 1.20643e-07 -1.92193e-07        00000 
-4.88921e-08 -1.41500e-06        00000 
 1.00535e-07 -2.09643e-07        00000 
 1.91237e-07 -3.98918e-07        00000 
-3.62236e-07  6.62614e-09        00000 
-2.73772e-07 -1.29727e-08        00000 
-8.89553e-07  7.28584e-08        00000 
 2.30825e-07 -2.46464e-07        00000 
-1.30938e-07  2.07633e-07        00000 
 4.97860e-07 -3.35724e-07        00000 
 1.76584e-07  4.27554e-07        00000 
-2.55342e-07  1.06309e-06        00000 
 2.41718e-07  3.51740e-08        00000 
 7.50001e-08  6.24620e-07        00000 
 1.30365e-07 -1.13968e-07        00000 
 1.30434e-07 -1.02751e-07        00000 
 4.56703e-07 -4.27436e-07        00000 
 4.14338e-07  2.89618e-07        00000 
-3.24414e-07 -5.18987e-07        00000 
 5.09085e-07 -4.20922e-07        00000 
 5.11657e-07  2.41473e-07        00000 
 7.01470e-07 -1.75305e-07        00000 
 3.15724e-07  1.01055e-06        00000 
 2.90350e-07  4.80614e-08        00000 
 4.11786e-07  6.32316e-07        00000 
-4.60565e-07 -3.31339e-07        00000 
 5.34373e-09 -1.14470e-07        00000 
-2.90995e-07 -3.36984e-08        00000 
 5.30432e-07  4.70856e-09        00000 
 4.59121e-07  1.68010e-07        00000 
-7.67454e-08  1.81313e-07        00000 
-5.60782e-07 -7.84210e-07        00000 
 2.45179e-07 -1.03384e-07        00000 
-1.38788e-07  3.34836e-07        00000 
-1.16862e-07 -4.47709e-08        00000 
-3.29724e-07 -1.97029e-07        00000 
-1.77134e-07  5.85554e-07        00000 
 3.19086e-07  5.21616e-07        00000 
 5.67817e-07  1.71141e-07        00000 
 1.35708e-07  3.21765e-07        00000 
-2.95613e-07  1.85830e-07        00000 
 6.69238e-07 -9.32231e-08        00000 
-5.36002e-07 -7.98533e-07        00000 
 1.56039e-07  7.71112e-07        00000 
-2.83053e-07 -1.12752e-06        00000 
 2.21463e-07  2.44182e-07        00000 
-9.39073e-08 -7.25258e-07        00000 
 4.62453e-07  7.85987e-07        00000 
 1.46222e-07 -1.98774e-07        00000 
-1.26392e-07  1.55871e-07        00000 
 5.35821e-07  4.16269e-07        00000 
 7.23761e-08  7.45270e-07        00000 
-2.50675e-07 -4.67156e-07        00000 
 4.22271e-07  6.75971e-07        00000 
 2.52956e-07 -1.31632e-07        00000 
 1.91154e-07  2.34663e-07        00000 
-2.57148e-08 -4.65977e-07        00000 
-5.47678e-08  5.02946e-07        00000 
-3.69899e-07  7.81622e-07        00000 
 1.00097e-07  6.14981e-07        00000 
 2.79595e-07 -2.87922e-07        00000 
-1.79794e-08  4.48744e-07        00000 
-4.56673e-07 -4.01485e-07        00000 
-2.19049e-07 -2.13297e-07        00000 
 2.18216e-07  8.77797e-07        00000 
 3.36556e-07  8.40988e-07        00000 
-7.59969e-08 -3.49219e-07        00000 
-1.77119e-07  9.04440e-07        00000 
 1.69681e-07  6.99262e-08        00000 
 4.93909e-08 -9.76825e-08        00000 
 4.34747e-07 -7.65896e-07        00000 
 2.49964e-07 -8.92647e-07        00000 
 3.38434e-07  2.43843e-08        00000 
 4.99591e-08  3.45750e-07        00000 
 3.75316e-07 -4.98855e-07        00000 
 3.32285e-07 -3.49534e-07        00000 
 8.57003e-07  4.17253e-07        00000 
 2.21840e-07  3.03403e-07        00000 
 4.64447e-07  2.09772e-07        00000 
 7.23464e-08  4.56042e-07        00000 
-6.31885e-08  7.63470e-08        00000 
 8.99995e-08 -1.71236e-07        00000 
 2.21691e-07 -7.67234e-07        00000 
 8.39725e-08  3.54997e-07        00000 
 4.97931e-07 -7.10130e-07        00000 
-6.25171e-08  4.12018e-07        00000 
 3.73435e-07 -6.30175e-07        00000 
-1.55072e-07  7.76667e-07        00000 
-2.44336e-07  7.36918e-07        00000 
 2.22096e-07  9.16712e-07        00000 
-5.17615e-07 -5.97095e-07        00000 
-1.25041e-07 -2.53837e-07        00000 
-2.76823e-07 -1.09502e-07        00000 
-1.38094e-07 -4.66420e-07        00000 
 3.04242e-07 -3.48718e-07        00000 
 1.93886e-07 -3.07862e-07        00000 
 2.24133e-07 -6.65680e-07        00000 
 7.23765e-07  5.18134e-08        00000 
 3.10197e-07  1.63841e-07        00000 
 6.54742e-08 -1.03611e-07        00000 
-4.26653e-08  1.27540e-08        00000 
 3.74624e-07  5.17946e-07        00000 
 2.79500e-07 -2.31887e-07        00000 
-1.10797e-07 -1.24462e-06        00000 
 5.35692e-07 -1.84130e-07        00000 
 1.70761e-08 -2.76048e-07        00000 
 3.53021e-07  7.42570e-07        00000 
 6.74202e-07  5.10119e-09        00000 
 3.11134e-07 -6.17267e-07        00000 
 1.74864e-07 -4.48880e-07        00000 
 6.10082e-07  3.47798e-07        00000 
 6.96413e-07 -1.70117e-07        00000 
-5.68805e-08  8.57221e-07        00000 
 1.45346e-07  1.80707e-07        00000 
 1.77117e-07 -5.71208e-07        00000 
 2.88154e-07  8.61226e-08        00000 
 3.33159e-07 -1.11306e-07        00000 
 1.01519e-07  9.94022e-07        00000 
 3.07850e-07  1.17608e-06        00000 
-6.10242e-08  2.57398e-07        00000 
 3.95864e-07 -1.07884e-06        00000 
 1.16642e-07 -1.36422e-07        00000 
 6.73055e-07  3.96523e-07        00000 
 6.11863e-09 -1.04763e-06        00000 
-1.83893e-08  3.66068e-07        00000 
 2.88147e-07  1.26506e-07        00000 
 4.95072e-07 -3.44042e-08        00000 
-3.34231e-07 -8.03048e-07        00000 
-2.88942e-07  6.87832e-07        00000 
-1.18556e-07 -2.80120e-07        00000 
 1.18217e-07 -1.41544e-07        00000 
 1.09826e-08  4.24581e-07        00000 
 2.59272e-07 -5.35281e-07        00000 
 2.37161e-07 -7.23084e-07        00000 
 2.58300e-07  3.28694e-07        00000 
-9.26673e-08 -1.89633e-08        00000 
-6.65929e-08 -3.59779e-08        00000 
 6.25778e-07  3.48960e-07        00000 
 7.07922e-07  5.86293e-07        00000 
 9.49973e-08  1.09239e-07        00000 
-1.82296e-07  3.92794e-07        00000 
-1.23730e-07 -1.20608e-08        00000 
 1.54191e-07 -1.88486e-07        00000 
 2.01129e-08  1.24323e-08        00000 
 5.33115e-07  3.55791e-07        00000 
 6.05343e-08 -5.77272e-07        00000 
 3.40439e-07  2.63369e-07        00000 
 4.56823e-07  2.28113e-07        00000 
 9.87902e-07  1.13375e-06        00000 
-3.07628e-08 -1.38513e-07        00000 
 8.73483e-09 -3.53592e-08        00000 
-2.09887e-07 -2.57110e-07        00000 
 3.35919e-07 -1.15652e-07        00000 
 3.20247e-07 -4.56502e-07        00000 
 1.93079e-07 -5.23243e-07        00000 
 1.05925e-07  3.48178e-07        00000 
-1.21879e-08 -1.30022e-07        00000 
-1.79567e-07 -2.92340e-07        00000 
-5.73110e-07  9.65253e-08        00000 
-2.58336e-07 -1.14983e-07        00000 
-7.27272e-07 -5.54423e-07        00000 
-2.50371e-07 -5.70732e-07        00000 
 2.06668e-07 -5.99311e-07        00000 
-3.10038e-07 -6.82619e-07        00000 
 3.44401e-07  2.39868e-07        00000 
 9.74210e-08 -4.19289e-07        00000 
 4.91747e-08 -1.62864e-08        00000 
 2.68308e-07 -6.87800e-07        00000 
 2.46060e-07  2.60670e-07        00000 
 6.87411e-07  1.17810e-07        00000 
 1.03427e-06  3.50642e-07        00000 
 3.24211e-07 -2.52134e-07        00000 
 4.05066e-07 -8.38901e-07        00000 
-1.40567e-07  1.12546e-08        00000 
-5.27968e-08 -1.70883e-08        00000 
 4.62143e-07 -9.54021e-07        00000 
 5.41152e-07  3.33797e-07        00000 
-3.45122e-08  1.88225e-07        00000 
 2.02865e-07  1.38418e-06        00000 
 1.43306e-08  5.44807e-07        00000 
-3.88984e-07 -4.85136e-08        00000 
 3.08231e-07  3.91200e-07        00000 
 3.02937e-07 -5.37858e-07        00000 
 2.76492e-07  1.16769e-06        00000 
 4.74579e-08 -6.77541e-07        00000 
-4.69989e-07  1.26306e-06        00000 
-7.15691e-08  2.08361e-07        00000 
-7.80494e-07  8.86412e-07        00000 
-1.64914e-07 -1.94229e-07        00000 
-2.00248e-07  4.26899e-07        00000 
-8.80841e-09 -9.41927e-07        00000 
-2.83512e-07 -5.96028e-07        00000 
 8.93748e-08  7.23460e-08        00000 
-3.97027e-08 -7.61634e-08        00000 
 3.04973e-07 -4.48433e-07        00000 
-4.75529e-08 -1.07495e-07        00000 
 1.31046e-08  7.38884e-07        00000 
-2.17687e-07 -1.00187e-06        00000 
 2.34804e-07  2.10810e-09        00000 
-3.05382e-07 -1.96746e-07        00000 
 9.74139e-08  3.07825e-07        00000 
-1.36076e-07  1.34713e-07        00000 
-2.93372e-07 -5.84955e-07        00000 
-7.49811e-08  6.30174e-08        00000 
 1.27026e-07  1.80638e-07        00000 
-3.06367e-07  7.52412e-07        00000 
 1.92622e-07  6.78298e-07        00000 
-1.51561e-07  6.00719e-07        00000 
 1.80362e-07 -4.27109e-07        00000 
 3.85617e-07  5.46372e-07        00000 
-1.68354e-07  7.18375e-07        00000 
 2.54537e-07  3.01883e-07        00000 
-2.84905e-07 -4.35106e-07        00000 
-3.83279e-07  4.77245e-07        00000 
 1.34357e-07  1.99865e-08        00000 
-4.54289e-07  1.41880e-07        00000 
-1.94615e-08  7.14031e-07        00000 
 1.25494e-07  2.82348e-07        00000 
 2.49778e-07  1.66968e-07        00000 
-8.66532e-09  3.65227e-08        00000 
 1.88984e-08  2.11348e-07        00000 
 6.48735e-08 -9.08710e-07        00000 
-6.66292e-08 -4.77070e-07        00000 
-3.64043e-07 -1.77936e-07        00000 
 3.08547e-07 -3.63560e-08        00000 
 7.08230e-07  7.10974e-07        00000 
 2.19564e-08  9.27676e-07        00000 
-3.31468e-07  1.05837e-06        00000 
 2.83735e-07  1.68654e-07        00000 
 1.83728e-07  4.10953e-07        00000 
 4.07748e-07  1.38268e-07        00000 
 3.15131e-07  1.71332e-07        00000 
 3.22228e-07 -2.83336e-07        00000 
-1.46601e-07 -3.03589e-07        00000 
-4.46018e-07  1.75170e-07        00000 
-2.35998e-08  3.64220e-07        00000 
 3.73974e-07  7.13105e-07        00000 
 2.88057e-08  4.48684e-08        00000 
 5.52723e-08 -1.35148e-07        00000 
 9.60884e-09  5.23318e-07        00000 
-2.01341e-07 -4.22895e-07        00000 
-2.06829e-07 -2.59310e-07        00000 
 2.83042e-07 -7.84701e-07        00000 
-8.51705e-08 -8.05383e-07        00000 
-6.03521e-07  3.99554e-07        00000 
-4.56487e-07 -2.29089e-07        00000 
-5.37823e-07  3.25384e-07        00000 
 3.74316e-07 -7.01005e-07        00000 
 3.93732e-07  1.17320e-07        00000 
 4.79947e-08 -6.55287e-07        00000 
 3.12480e-07 -5.11781e-07        00000 
 8.09476e-08 -8.68997e-07        00000 
-1.14936e-07 -1.09461e-06        00000 
-1.08595e-07 -6.88990e-07        00000 
-3.35484e-08 -2.46099e-07        00000 
 2.34171e-07 -1.49211e-07        00000 
-4.96812e-08  1.16517e-06        00000 
 1.59785e-08  6.55738e-07        00000 
-2.71235e-07  1.49270e-07        00000 
-2.87807e-07 -1.98960e-07        00000 
-3.05996e-07  4.11249e-08        00000 
-3.46850e-07 -4.03764e-07        00000 
 6.99469e-08 -8.50630e-07        00000 
 2.44327e-07  3.84966e-07        00000 
-2.79241e-07 -1.01095e-06        00000 
-3.72103e-07  2.37277e-07        00000 
 2.59240e-07  7.83970e-07        00000 
 3.84238e-07 -5.44153e-07        00000 
-1.54898e-08  3.67903e-07        00000 
-2.73383e-07 -4.70883e-07        00000 
-2.39890e-07 -3.55004e-08        00000 
-1.32388e-07 -5.35552e-07        00000 
-3.05063e-07 -5.05680e-07        00000 
 5.64401e-08 -2.28782e-07        00000 
-1.62162e-07 -6.81189e-07        00000 
-3.72956e-07 -1.99245e-07        00000 
-3.69049e-07  3.92088e-07        00000 
 5.35837e-07  4.43457e-07        00000 
 1.27273e-07  2.73248e-07        00000 
-3.95946e-07 -1.60222e-07        00000 
-2.27865e-07 -1.39909e-06        00000 
 1.24753e-07  2.31771e-07        00000 
-4.16828e-07 -2.21359e-07        00000 
 4.63274e-07 -1.22813e-06        00000 
 1.90607e-08 -3.25804e-08        00000 
 1.19824e-07  2.43190e-07        00000 
 3.92237e-07  1.39679e-06        00000 
 3.28925e-07  1.44620e-07        00000 
 2.98443e-07 -3.45124e-07        00000 
 3.19691e-07 -8.50082e-08        00000 
 2.39463e-07 -1.78727e-07        00000 
-2.35005e-07 -7.56274e-07        00000 
-1.30807e-08 -1.01843e-07        00000 
 3.57150e-07 -3.35286e-07        00000 
 4.88555e-07 -4.90295e-07        00000 
-3.41566e-07  5.53275e-07        00000 
 2.66078e-07  8.09414e-07        00000 
-2.32081e-07  5.54399e-08        00000 
 8.08031e-08  2.84632e-07        00000 
 3.12427e-07 -1.23993e-07        00000 
-2.23493e-07 -6.39398e-07        00000 
-3.79857e-07 -6.49260e-07        00000 
-1.81190e-07 -1.01568e-06        00000 
-1.22050e-07  2.70752e-07        00000 
 2.96568e-07 -8.92883e-07        00000 
 4.35830e-07 -2.52028e-07        00000 
-1.79193e-07  2.01431e-07        00000 
 2.08065e-07  8.38825e-07        00000 
-8.14546e-08  2.61891e-07        00000 
-8.82370e-09 -4.70657e-08        00000 
 1.35578e-07 -6.33055e-07        00000 
 3.03402e-07 -2.73914e-07        00000 
 5.30272e-07 -3.24151e-07        00000 
 5.96175e-08 -3.48214e-07        00000 
 2.55691e-07 -4.99377e-07        00000 
 1.05809e-07  3.94941e-07        00000 
-1.43428e-07 -3.71115e-07        00000 
 1.42692e-07  7.20821e-08        00000 
-1.19687e-07  5.90089e-07        00000 
 2.90067e-07  3.60761e-07        00000 
-9.62559e-08  1.18322e-07        00000 
-1.22066e-07 -4.38546e-08        00000 
-8.33767e-07  8.04872e-08        00000 
-6.21339e-07 -8.09818e-07        00000 
-1.43001e-07  3.83243e-07        00000 
-1.77863e-07  8.38956e-07        00000 
-4.77721e-07  7.52038e-07        00000 
-6.73993e-07 -5.44863e-08        00000 
-2.04536e-07 -3.36546e-07        00000 
-6.37332e-07 -3.28077e-07        00000 
-7.95066e-07  3.38468e-07        00000 
-3.18093e-07 -1.73128e-07        00000 
-6.28556e-08 -5.44087e-08        00000 
-3.17316e-07 -4.74254e-07        00000 
-6.73688e-07  2.25141e-07        00000 
 3.85745e-07  4.03665e-07        00000 
 5.31096e-08  1.68166e-07        00000 
 1.08298e-07  3.74681e-07        00000 
-2.03943e-07  8.77524e-08        00000 
-4.88028e-08 -5.59714e-07        00000 
-9.06080e-08 -3.51706e-07        00000 
-3.87310e-07  2.16237e-07        00000 
 8.28366e-07 -1.21924e-06        00000 
 3.11559e-07 -3.11709e-08        00000 
-6.79802e-07  5.94552e-08        00000 
-1.36719e-07  5.20686e-08        00000 
-2.14401e-07 -6.79847e-07        00000 
 1.55795e-07  6.62996e-07        00000 
-8.80240e-07  7.42789e-07        00000 
-4.23053e-07  7.64116e-07        00000 
-1.22208e-07 -2.88448e-07        00000 
-3.67254e-07 -3.75060e-07        00000 
-2.21560e-07 -2.23446e-07        00000 
 1.60195e-07 -5.61232e-07        00000 
-7.79499e-07  1.61973e-07        00000 
 7.05532e-08 -7.79823e-08        00000 
-2.67762e-07  6.93939e-07        00000 
-2.67253e-08 -5.11792e-08        00000 
-2.20968e-07  2.39967e-07        00000 
 7.87817e-08  4.92308e-07        00000 
-1.49337e-07  6.98581e-07        00000 
 1.05972e-07 -3.54922e-07        00000 
 4.30789e-08 -6.47496e-07        00000 
-2.25900e-07 -8.98114e-07        00000 
 2.02409e-07 -3.82787e-07        00000 
 1.04829e-07 -4.08298e-07        00000 
 6.91626e-07  1.36730e-07        00000 