<?xml version="1.0" encoding="utf-8"?>
<VTKFile byte_order="LittleEndian" type="UnstructuredGrid" version="0.1">
   <UnstructuredGrid>
      <Piece NumberOfCells="3364" NumberOfPoints="1741">
         <Points>
            <DataArray Name="Points" NumberOfComponents="3" format="ascii" type="Float32">
0.0000 1.0000 0.0000
0.0000 1.0345 0.0000
0.0000 1.0690 0.0000
0.0000 1.1034 0.0000
0.0000 1.1379 0.0000
0.0000 1.1724 0.0000
0.0000 1.2069 0.0000
0.0000 1.2414 0.0000
0.0000 1.2759 0.0000
0.0000 1.3103 0.0000
0.0000 1.3448 0.0000
0.0000 1.3793 0.0000
0.0000 1.4138 0.0000
0.0000 1.4483 0.0000
0.0000 1.4828 0.0000
0.0000 1.5172 0.0000
0.0000 1.5517 0.0000
0.0000 1.5862 0.0000
0.0000 1.6207 0.0000
0.0000 1.6552 0.0000
0.0000 1.6897 0.0000
0.0000 1.7241 0.0000
0.0000 1.7586 0.0000
0.0000 1.7931 0.0000
0.0000 1.8276 0.0000
0.0000 1.8621 0.0000
0.0000 1.8966 0.0000
0.0000 1.9310 0.0000
0.0000 1.9655 0.0000
0.0000 2.0000 0.0000
0.0690 1.0000 0.0000
0.0690 1.0345 0.0000
0.0690 1.0690 0.0000
0.0690 1.1034 0.0000
0.0690 1.1379 0.0000
0.0690 1.1724 0.0000
0.0690 1.2069 0.0000
0.0690 1.2414 0.0000
0.0690 1.2759 0.0000
0.0690 1.3103 0.0000
0.0690 1.3448 0.0000
0.0690 1.3793 0.0000
0.0690 1.4138 0.0000
0.0690 1.4483 0.0000
0.0690 1.4828 0.0000
0.0690 1.5172 0.0000
0.0690 1.5517 0.0000
0.0690 1.5862 0.0000
0.0690 1.6207 0.0000
0.0690 1.6552 0.0000
0.0690 1.6897 0.0000
0.0690 1.7241 0.0000
0.0690 1.7586 0.0000
0.0690 1.7931 0.0000
0.0690 1.8276 0.0000
0.0690 1.8621 0.0000
0.0690 1.8966 0.0000
0.0690 1.9310 0.0000
0.0690 1.9655 0.0000
0.0690 2.0000 0.0000
0.1379 1.0000 0.0000
0.1379 1.0345 0.0000
0.1379 1.0690 0.0000
0.1379 1.1034 0.0000
0.1379 1.1379 0.0000
0.1379 1.1724 0.0000
0.1379 1.2069 0.0000
0.1379 1.2414 0.0000
0.1379 1.2759 0.0000
0.1379 1.3103 0.0000
0.1379 1.3448 0.0000
0.1379 1.3793 0.0000
0.1379 1.4138 0.0000
0.1379 1.4483 0.0000
0.1379 1.4828 0.0000
0.1379 1.5172 0.0000
0.1379 1.5517 0.0000
0.1379 1.5862 0.0000
0.1379 1.6207 0.0000
0.1379 1.6552 0.0000
0.1379 1.6897 0.0000
0.1379 1.7241 0.0000
0.1379 1.7586 0.0000
0.1379 1.7931 0.0000
0.1379 1.8276 0.0000
0.1379 1.8621 0.0000
0.1379 1.8966 0.0000
0.1379 1.9310 0.0000
0.1379 1.9655 0.0000
0.1379 2.0000 0.0000
0.2069 1.0000 0.0000
0.2069 1.0345 0.0000
0.2069 1.0690 0.0000
0.2069 1.1034 0.0000
0.2069 1.1379 0.0000
0.2069 1.1724 0.0000
0.2069 1.2069 0.0000
0.2069 1.2414 0.0000
0.2069 1.2759 0.0000
0.2069 1.3103 0.0000
0.2069 1.3448 0.0000
0.2069 1.3793 0.0000
0.2069 1.4138 0.0000
0.2069 1.4483 0.0000
0.2069 1.4828 0.0000
0.2069 1.5172 0.0000
0.2069 1.5517 0.0000
0.2069 1.5862 0.0000
0.2069 1.6207 0.0000
0.2069 1.6552 0.0000
0.2069 1.6897 0.0000
0.2069 1.7241 0.0000
0.2069 1.7586 0.0000
0.2069 1.7931 0.0000
0.2069 1.8276 0.0000
0.2069 1.8621 0.0000
0.2069 1.8966 0.0000
0.2069 1.9310 0.0000
0.2069 1.9655 0.0000
0.2069 2.0000 0.0000
0.2759 1.0000 0.0000
0.2759 1.0345 0.0000
0.2759 1.0690 0.0000
0.2759 1.1034 0.0000
0.2759 1.1379 0.0000
0.2759 1.1724 0.0000
0.2759 1.2069 0.0000
0.2759 1.2414 0.0000
0.2759 1.2759 0.0000
0.2759 1.3103 0.0000
0.2759 1.3448 0.0000
0.2759 1.3793 0.0000
0.2759 1.4138 0.0000
0.2759 1.4483 0.0000
0.2759 1.4828 0.0000
0.2759 1.5172 0.0000
0.2759 1.5517 0.0000
0.2759 1.5862 0.0000
0.2759 1.6207 0.0000
0.2759 1.6552 0.0000
0.2759 1.6897 0.0000
0.2759 1.7241 0.0000
0.2759 1.7586 0.0000
0.2759 1.7931 0.0000
0.2759 1.8276 0.0000
0.2759 1.8621 0.0000
0.2759 1.8966 0.0000
0.2759 1.9310 0.0000
0.2759 1.9655 0.0000
0.2759 2.0000 0.0000
0.3448 1.0000 0.0000
0.3448 1.0345 0.0000
0.3448 1.0690 0.0000
0.3448 1.1034 0.0000
0.3448 1.1379 0.0000
0.3448 1.1724 0.0000
0.3448 1.2069 0.0000
0.3448 1.2414 0.0000
0.3448 1.2759 0.0000
0.3448 1.3103 0.0000
0.3448 1.3448 0.0000
0.3448 1.3793 0.0000
0.3448 1.4138 0.0000
0.3448 1.4483 0.0000
0.3448 1.4828 0.0000
0.3448 1.5172 0.0000
0.3448 1.5517 0.0000
0.3448 1.5862 0.0000
0.3448 1.6207 0.0000
0.3448 1.6552 0.0000
0.3448 1.6897 0.0000
0.3448 1.7241 0.0000
0.3448 1.7586 0.0000
0.3448 1.7931 0.0000
0.3448 1.8276 0.0000
0.3448 1.8621 0.0000
0.3448 1.8966 0.0000
0.3448 1.9310 0.0000
0.3448 1.9655 0.0000
0.3448 2.0000 0.0000
0.4138 1.0000 0.0000
0.4138 1.0345 0.0000
0.4138 1.0690 0.0000
0.4138 1.1034 0.0000
0.4138 1.1379 0.0000
0.4138 1.1724 0.0000
0.4138 1.2069 0.0000
0.4138 1.2414 0.0000
0.4138 1.2759 0.0000
0.4138 1.3103 0.0000
0.4138 1.3448 0.0000
0.4138 1.3793 0.0000
0.4138 1.4138 0.0000
0.4138 1.4483 0.0000
0.4138 1.4828 0.0000
0.4138 1.5172 0.0000
0.4138 1.5517 0.0000
0.4138 1.5862 0.0000
0.4138 1.6207 0.0000
0.4138 1.6552 0.0000
0.4138 1.6897 0.0000
0.4138 1.7241 0.0000
0.4138 1.7586 0.0000
0.4138 1.7931 0.0000
0.4138 1.8276 0.0000
0.4138 1.8621 0.0000
0.4138 1.8966 0.0000
0.4138 1.9310 0.0000
0.4138 1.9655 0.0000
0.4138 2.0000 0.0000
0.4828 1.0000 0.0000
0.4828 1.0345 0.0000
0.4828 1.0690 0.0000
0.4828 1.1034 0.0000
0.4828 1.1379 0.0000
0.4828 1.1724 0.0000
0.4828 1.2069 0.0000
0.4828 1.2414 0.0000
0.4828 1.2759 0.0000
0.4828 1.3103 0.0000
0.4828 1.3448 0.0000
0.4828 1.3793 0.0000
0.4828 1.4138 0.0000
0.4828 1.4483 0.0000
0.4828 1.4828 0.0000
0.4828 1.5172 0.0000
0.4828 1.5517 0.0000
0.4828 1.5862 0.0000
0.4828 1.6207 0.0000
0.4828 1.6552 0.0000
0.4828 1.6897 0.0000
0.4828 1.7241 0.0000
0.4828 1.7586 0.0000
0.4828 1.7931 0.0000
0.4828 1.8276 0.0000
0.4828 1.8621 0.0000
0.4828 1.8966 0.0000
0.4828 1.9310 0.0000
0.4828 1.9655 0.0000
0.4828 2.0000 0.0000
0.5517 1.0000 0.0000
0.5517 1.0345 0.0000
0.5517 1.0690 0.0000
0.5517 1.1034 0.0000
0.5517 1.1379 0.0000
0.5517 1.1724 0.0000
0.5517 1.2069 0.0000
0.5517 1.2414 0.0000
0.5517 1.2759 0.0000
0.5517 1.3103 0.0000
0.5517 1.3448 0.0000
0.5517 1.3793 0.0000
0.5517 1.4138 0.0000
0.5517 1.4483 0.0000
0.5517 1.4828 0.0000
0.5517 1.5172 0.0000
0.5517 1.5517 0.0000
0.5517 1.5862 0.0000
0.5517 1.6207 0.0000
0.5517 1.6552 0.0000
0.5517 1.6897 0.0000
0.5517 1.7241 0.0000
0.5517 1.7586 0.0000
0.5517 1.7931 0.0000
0.5517 1.8276 0.0000
0.5517 1.8621 0.0000
0.5517 1.8966 0.0000
0.5517 1.9310 0.0000
0.5517 1.9655 0.0000
0.5517 2.0000 0.0000
0.6207 1.0000 0.0000
0.6207 1.0345 0.0000
0.6207 1.0690 0.0000
0.6207 1.1034 0.0000
0.6207 1.1379 0.0000
0.6207 1.1724 0.0000
0.6207 1.2069 0.0000
0.6207 1.2414 0.0000
0.6207 1.2759 0.0000
0.6207 1.3103 0.0000
0.6207 1.3448 0.0000
0.6207 1.3793 0.0000
0.6207 1.4138 0.0000
0.6207 1.4483 0.0000
0.6207 1.4828 0.0000
0.6207 1.5172 0.0000
0.6207 1.5517 0.0000
0.6207 1.5862 0.0000
0.6207 1.6207 0.0000
0.6207 1.6552 0.0000
0.6207 1.6897 0.0000
0.6207 1.7241 0.0000
0.6207 1.7586 0.0000
0.6207 1.7931 0.0000
0.6207 1.8276 0.0000
0.6207 1.8621 0.0000
0.6207 1.8966 0.0000
0.6207 1.9310 0.0000
0.6207 1.9655 0.0000
0.6207 2.0000 0.0000
0.6897 1.0000 0.0000
0.6897 1.0345 0.0000
0.6897 1.0690 0.0000
0.6897 1.1034 0.0000
0.6897 1.1379 0.0000
0.6897 1.1724 0.0000
0.6897 1.2069 0.0000
0.6897 1.2414 0.0000
0.6897 1.2759 0.0000
0.6897 1.3103 0.0000
0.6897 1.3448 0.0000
0.6897 1.3793 0.0000
0.6897 1.4138 0.0000
0.6897 1.4483 0.0000
0.6897 1.4828 0.0000
0.6897 1.5172 0.0000
0.6897 1.5517 0.0000
0.6897 1.5862 0.0000
0.6897 1.6207 0.0000
0.6897 1.6552 0.0000
0.6897 1.6897 0.0000
0.6897 1.7241 0.0000
0.6897 1.7586 0.0000
0.6897 1.7931 0.0000
0.6897 1.8276 0.0000
0.6897 1.8621 0.0000
0.6897 1.8966 0.0000
0.6897 1.9310 0.0000
0.6897 1.9655 0.0000
0.6897 2.0000 0.0000
0.7586 1.0000 0.0000
0.7586 1.0345 0.0000
0.7586 1.0690 0.0000
0.7586 1.1034 0.0000
0.7586 1.1379 0.0000
0.7586 1.1724 0.0000
0.7586 1.2069 0.0000
0.7586 1.2414 0.0000
0.7586 1.2759 0.0000
0.7586 1.3103 0.0000
0.7586 1.3448 0.0000
0.7586 1.3793 0.0000
0.7586 1.4138 0.0000
0.7586 1.4483 0.0000
0.7586 1.4828 0.0000
0.7586 1.5172 0.0000
0.7586 1.5517 0.0000
0.7586 1.5862 0.0000
0.7586 1.6207 0.0000
0.7586 1.6552 0.0000
0.7586 1.6897 0.0000
0.7586 1.7241 0.0000
0.7586 1.7586 0.0000
0.7586 1.7931 0.0000
0.7586 1.8276 0.0000
0.7586 1.8621 0.0000
0.7586 1.8966 0.0000
0.7586 1.9310 0.0000
0.7586 1.9655 0.0000
0.7586 2.0000 0.0000
0.8276 1.0000 0.0000
0.8276 1.0345 0.0000
0.8276 1.0690 0.0000
0.8276 1.1034 0.0000
0.8276 1.1379 0.0000
0.8276 1.1724 0.0000
0.8276 1.2069 0.0000
0.8276 1.2414 0.0000
0.8276 1.2759 0.0000
0.8276 1.3103 0.0000
0.8276 1.3448 0.0000
0.8276 1.3793 0.0000
0.8276 1.4138 0.0000
0.8276 1.4483 0.0000
0.8276 1.4828 0.0000
0.8276 1.5172 0.0000
0.8276 1.5517 0.0000
0.8276 1.5862 0.0000
0.8276 1.6207 0.0000
0.8276 1.6552 0.0000
0.8276 1.6897 0.0000
0.8276 1.7241 0.0000
0.8276 1.7586 0.0000
0.8276 1.7931 0.0000
0.8276 1.8276 0.0000
0.8276 1.8621 0.0000
0.8276 1.8966 0.0000
0.8276 1.9310 0.0000
0.8276 1.9655 0.0000
0.8276 2.0000 0.0000
0.8966 1.0000 0.0000
0.8966 1.0345 0.0000
0.8966 1.0690 0.0000
0.8966 1.1034 0.0000
0.8966 1.1379 0.0000
0.8966 1.1724 0.0000
0.8966 1.2069 0.0000
0.8966 1.2414 0.0000
0.8966 1.2759 0.0000
0.8966 1.3103 0.0000
0.8966 1.3448 0.0000
0.8966 1.3793 0.0000
0.8966 1.4138 0.0000
0.8966 1.4483 0.0000
0.8966 1.4828 0.0000
0.8966 1.5172 0.0000
0.8966 1.5517 0.0000
0.8966 1.5862 0.0000
0.8966 1.6207 0.0000
0.8966 1.6552 0.0000
0.8966 1.6897 0.0000
0.8966 1.7241 0.0000
0.8966 1.7586 0.0000
0.8966 1.7931 0.0000
0.8966 1.8276 0.0000
0.8966 1.8621 0.0000
0.8966 1.8966 0.0000
0.8966 1.9310 0.0000
0.8966 1.9655 0.0000
0.8966 2.0000 0.0000
0.9655 1.0000 0.0000
0.9655 1.0345 0.0000
0.9655 1.0690 0.0000
0.9655 1.1034 0.0000
0.9655 1.1379 0.0000
0.9655 1.1724 0.0000
0.9655 1.2069 0.0000
0.9655 1.2414 0.0000
0.9655 1.2759 0.0000
0.9655 1.3103 0.0000
0.9655 1.3448 0.0000
0.9655 1.3793 0.0000
0.9655 1.4138 0.0000
0.9655 1.4483 0.0000
0.9655 1.4828 0.0000
0.9655 1.5172 0.0000
0.9655 1.5517 0.0000
0.9655 1.5862 0.0000
0.9655 1.6207 0.0000
0.9655 1.6552 0.0000
0.9655 1.6897 0.0000
0.9655 1.7241 0.0000
0.9655 1.7586 0.0000
0.9655 1.7931 0.0000
0.9655 1.8276 0.0000
0.9655 1.8621 0.0000
0.9655 1.8966 0.0000
0.9655 1.9310 0.0000
0.9655 1.9655 0.0000
0.9655 2.0000 0.0000
1.0345 1.0000 0.0000
1.0345 1.0345 0.0000
1.0345 1.0690 0.0000
1.0345 1.1034 0.0000
1.0345 1.1379 0.0000
1.0345 1.1724 0.0000
1.0345 1.2069 0.0000
1.0345 1.2414 0.0000
1.0345 1.2759 0.0000
1.0345 1.3103 0.0000
1.0345 1.3448 0.0000
[...]
         <PointData>
            <DataArray Name="fValues" NumberOfComponents="3" format="ascii" type="Float64">
-5.39007e-22  5.14989e-22        00000 
 2.15603e-21 -1.79669e-22        00000 
 1.77670e-22 -3.55341e-22        00000 
-3.23683e-22 -5.46913e-22        00000 
-2.30971e-21  8.88352e-22        00000 
 1.49612e-21 -2.89185e-21        00000 
-1.59903e-21  1.95437e-21        00000 
 1.06034e-21  1.85281e-21        00000 
-7.10681e-22 -8.88352e-22        00000 
-3.84362e-22 -2.19836e-22        00000 
 2.66506e-22  1.95437e-21        00000 
 8.85943e-23 -5.08964e-21        00000 
-1.33253e-22 -1.77670e-22        00000 
 1.98469e-22 -2.41236e-21        00000 
 1.66566e-22  1.24369e-21        00000 
-3.55075e-22 -7.36658e-22        00000 
-7.10681e-22 -5.33011e-22        00000 
 7.63211e-22 -8.83850e-22        00000 
       00000  1.42136e-21        00000 
-8.14789e-22  1.39519e-21        00000 
 3.55341e-22 -7.10681e-22        00000 
-6.42038e-22 -2.46982e-22        00000 
-7.10681e-22 -1.77670e-22        00000 
-2.90199e-22 -8.81758e-22        00000 
-1.77670e-22  1.33253e-22        00000 
 1.57902e-21 -1.08596e-21        00000 
 2.13204e-21 -1.77670e-22        00000 
-3.46652e-21 -2.04077e-22        00000 
-3.13590e-22        00000        00000 
-8.61746e-22        00000        00000 
 2.14587e-05  8.47361e-06        00000 
 2.03944e-05  2.87252e-06        00000 
 1.97509e-05 -1.92850e-06        00000 
 1.88133e-05 -6.03884e-06        00000 
 1.75963e-05 -9.56267e-06        00000 
 1.61558e-05 -1.25693e-05        00000 
 1.45426e-05 -1.51087e-05        00000 
 1.27977e-05 -1.72190e-05        00000 
 1.09547e-05 -1.89307e-05        00000 
 9.04116e-06 -2.02695e-05        00000 
 7.08044e-06 -2.12582e-05        00000 
 5.09223e-06 -2.19174e-05        00000 
 3.09327e-06 -2.22663e-05        00000 
 1.09771e-06 -2.23229e-05        00000 
-8.82784e-07 -2.21044e-05        00000 
-2.83882e-06 -2.16263e-05        00000 
-4.76325e-06 -2.09026e-05        00000 
-6.65104e-06 -1.99444e-05        00000 
-8.49915e-06 -1.87595e-05        00000 
-1.03063e-05 -1.73508e-05        00000 
-1.20725e-05 -1.57147e-05        00000 
-1.37988e-05 -1.38396e-05        00000 
-1.54869e-05 -1.17033e-05        00000 
-1.71385e-05 -9.26998e-06        00000 
-1.87562e-05 -6.48562e-06        00000 
-2.03455e-05 -3.27047e-06        00000 
-2.19242e-05  4.94104e-07        00000 
-2.35581e-05  4.99203e-06        00000 
-2.55129e-05  1.05307e-05        00000 
-2.96368e-05  1.75715e-05        00000 
 4.49105e-05  5.10453e-06        00000 
 4.54622e-05 -6.76573e-07        00000 
 4.40935e-05 -6.58710e-06        00000 
 4.18285e-05 -1.21700e-05        00000 
 3.89313e-05 -1.72591e-05        00000 
 3.55695e-05 -2.17846e-05        00000 
 3.18625e-05 -2.57176e-05        00000 
 2.79002e-05 -2.90499e-05        00000 
 2.37538e-05 -3.17852e-05        00000 
 1.94811e-05 -3.39344e-05        00000 
 1.51306e-05 -3.55132e-05        00000 
 1.07431e-05 -3.65405e-05        00000 
 6.35343e-06 -3.70379e-05        00000 
 1.99074e-06 -3.70289e-05        00000 
-2.32115e-06 -3.65378e-05        00000 
-6.56370e-06 -3.55895e-05        00000 
-1.07237e-05 -3.42081e-05        00000 
-1.47932e-05 -3.24153e-05        00000 
-1.87698e-05 -3.02296e-05        00000 
-2.26557e-05 -2.76636e-05        00000 
-2.64575e-05 -2.47228e-05        00000 
-3.01854e-05 -2.14037e-05        00000 
-3.38513e-05 -1.76916e-05        00000 
-3.74680e-05 -1.35600e-05        00000 
-4.10473e-05 -8.97050e-06        00000 
-4.45993e-05 -3.87495e-06        00000 
-4.81336e-05  1.77521e-06        00000 
-5.16620e-05  8.00156e-06        00000 
-5.51875e-05  1.47026e-05        00000 
-5.77072e-05  2.12703e-05        00000 
 7.30623e-05  1.93277e-06        00000 
 7.29044e-05 -4.79082e-06        00000 
 7.07421e-05 -1.12168e-05        00000 
 6.70763e-05 -1.73417e-05        00000 
 6.23622e-05 -2.30354e-05        00000 
 5.68853e-05 -2.81930e-05        00000 
 5.08473e-05 -3.27412e-05        00000 
 4.43995e-05 -3.66322e-05        00000 
 3.76607e-05 -3.98375e-05        00000 
 3.07274e-05 -4.23433e-05        00000 
 2.36801e-05 -4.41474e-05        00000 
 1.65870e-05 -4.52568e-05        00000 
 9.50623e-06 -4.56864e-05        00000 
 2.48679e-06 -4.54576e-05        00000 
-4.43089e-06 -4.45974e-05        00000 
-1.12152e-05 -4.31372e-05        00000 
-1.78438e-05 -4.11109e-05        00000 
-2.43037e-05 -3.85538e-05        00000 
-3.05914e-05 -3.55005e-05        00000 
-3.67127e-05 -3.19823e-05        00000 
-4.26808e-05 -2.80258e-05        00000 
-4.85150e-05 -2.36508e-05        00000 
-5.42369e-05 -1.88693e-05        00000 
-5.98658e-05 -1.36860e-05        00000 
-6.54113e-05 -8.10085e-06        00000 
-7.08624e-05 -2.11529e-06        00000 
-7.61671e-05  4.25572e-06        00000 
-8.11869e-05  1.09635e-05        00000 
-8.55538e-05  1.79096e-05        00000 
-8.88108e-05  2.51463e-05        00000 
 1.05466e-04  1.50490e-06        00000 
 1.03563e-04 -6.00995e-06        00000 
 9.96663e-05 -1.30697e-05        00000 
 9.41369e-05 -1.96514e-05        00000 
 8.73083e-05 -2.57132e-05        00000 
 7.94791e-05 -3.11883e-05        00000 
 7.08898e-05 -3.60113e-05        00000 
 6.17346e-05 -4.01275e-05        00000 
 5.21729e-05 -4.34946e-05        00000 
 4.23386e-05 -4.60833e-05        00000 
 3.23461e-05 -4.78763e-05        00000 
 2.22951e-05 -4.88682e-05        00000 
 1.22726e-05 -4.90652e-05        00000 
 2.35432e-06 -4.84845e-05        00000 
-7.39554e-06 -4.71544e-05        00000 
-1.69251e-05 -4.51125e-05        00000 
-2.61958e-05 -4.24052e-05        00000 
-3.51837e-05 -3.90850e-05        00000 
-4.38798e-05 -3.52084e-05        00000 
-5.22901e-05 -3.08327e-05        00000 
-6.04338e-05 -2.60130e-05        00000 
-6.83402e-05 -2.07995e-05        00000 
-7.60433e-05 -1.52348e-05        00000 
-8.35737e-05 -9.35277e-06        00000 
-9.09478e-05 -3.17851e-06        00000 
-9.81509e-05  3.27048e-06        00000 
-1.05115e-04  9.98328e-06        00000 
-1.11690e-04  1.69612e-05        00000 
-1.17654e-04  2.42486e-05        00000 
-1.22705e-04  3.19185e-05        00000 
 1.41726e-04  5.34650e-06        00000 
 1.37452e-04 -2.95748e-06        00000 
 1.31178e-04 -1.06613e-05        00000 
 1.23202e-04 -1.77508e-05        00000 
 1.13815e-04 -2.41970e-05        00000 
 1.03287e-04 -2.99623e-05        00000 
 9.18575e-05 -3.50007e-05        00000 
 7.97349e-05 -3.92650e-05        00000 
 6.71012e-05 -4.27102e-05        00000 
 5.41168e-05 -4.52977e-05        00000 
 4.09258e-05 -4.69979e-05        00000 
 2.76598e-05 -4.77927e-05        00000 
 1.44395e-05 -4.76776e-05        00000 
 1.37496e-06 -4.66641e-05        00000 
-1.14359e-05 -4.47804e-05        00000 
-2.39098e-05 -4.20716e-05        00000 
-3.59814e-05 -3.85988e-05        00000 
-4.76060e-05 -3.44369e-05        00000 
-5.87619e-05 -2.96708e-05        00000 
-6.94517e-05 -2.43915e-05        00000 
-7.97011e-05 -1.86900e-05        00000 
-8.95554e-05 -1.26526e-05        00000 
-9.90737e-05 -6.35436e-06        00000 
-1.08319e-04  1.45685e-07        00000 
-1.17345e-04  6.80954e-06        00000 
-1.26183e-04  1.36248e-05        00000 
-1.34821e-04  2.06100e-05        00000 
-1.43199e-04  2.78220e-05        00000 
-1.51195e-04  3.53565e-05        00000 
-1.58633e-04  4.33560e-05        00000 
 1.81749e-04  1.44370e-05        00000 
 1.74597e-04  5.34088e-06        00000 
 1.65414e-04 -3.03893e-06        00000 
 1.54493e-04 -1.06911e-05        00000 
 1.42107e-04 -1.76029e-05        00000 
 1.28506e-04 -2.37520e-05        00000 
 1.13913e-04 -2.91054e-05        00000 
 9.85303e-05 -3.36192e-05        00000 
 8.25418e-05 -3.72424e-05        00000 
 6.61201e-05 -3.99218e-05        00000 
 4.94312e-05 -4.16084e-05        00000 
 3.26379e-05 -4.22632e-05        00000 
 1.59003e-05 -4.18636e-05        00000 
-6.25881e-07 -4.04083e-05        00000 
-1.67942e-05 -3.79216e-05        00000 
-3.24729e-05 -3.44549e-05        00000 
-4.75522e-05 -3.00870e-05        00000 
-6.19511e-05 -2.49211e-05        00000 
-7.56232e-05 -1.90807e-05        00000 
-8.85616e-05 -1.27017e-05        00000 
-1.00799e-04 -5.92483e-06        00000 
-1.12408e-04  1.11528e-06        00000 
-1.23492e-04  8.30009e-06        00000 
-1.34176e-04  1.55379e-05        00000 
-1.44595e-04  2.27738e-05        00000 
-1.54874e-04  2.99984e-05        00000 
-1.65111e-04  3.72546e-05        00000 
-1.75361e-04  4.46403e-05        00000 
-1.85619e-04  5.23091e-05        00000 
-1.95812e-04  6.04626e-05        00000 
 2.25581e-04  2.97288e-05        00000 
 2.15046e-04  1.98228e-05        00000 
 2.02478e-04  1.07360e-05        00000 
 1.88189e-04  2.45024e-06        00000 
 1.72441e-04 -5.04880e-06        00000 
 1.55455e-04 -1.17583e-05        00000 
 1.37419e-04 -1.76514e-05        00000 
 1.18504e-04 -2.26761e-05        00000 
 9.88704e-05 -2.67591e-05        00000 
 7.86866e-05 -2.98140e-05        00000 
 5.81313e-05 -3.17517e-05        00000 
 3.73993e-05 -3.24917e-05        00000 
 1.67006e-05 -3.19740e-05        00000 
-3.74506e-06 -3.01694e-05        00000 
-2.37173e-05 -2.70873e-05        00000 
-4.30071e-05 -2.27810e-05        00000 
-6.14306e-05 -1.73489e-05        00000 
-7.88431e-05 -1.09315e-05        00000 
-9.51521e-05 -3.70521e-06        00000 
-1.10327e-04  4.12851e-06        00000 
-1.24407e-04  1.23564e-05        00000 
-1.37499e-04  2.07697e-05        00000 
-1.49775e-04  2.91812e-05        00000 
-1.61461e-04  3.74430e-05        00000 
-1.72820e-04  4.54633e-05        00000 
-1.84126e-04  5.32195e-05        00000 
-1.95643e-04  6.07687e-05        00000 
-2.07590e-04  6.82513e-05        00000 
-2.20116e-04  7.58877e-05        00000 
-2.33272e-04  8.39678e-05        00000 
 2.73277e-04  5.23470e-05        00000 
 2.58788e-04  4.16368e-05        00000 
 2.42400e-04  3.18265e-05        00000 
 2.24435e-04  2.28246e-05        00000 
 2.05114e-04  1.45617e-05        00000 
 1.84591e-04  7.01108e-06        00000 
 1.62970e-04  1.98293e-07        00000 
 1.40346e-04 -5.79824e-06        00000 
 1.16821e-04 -1.08551e-05        00000 
 9.25301e-05 -1.48178e-05        00000 
 6.76545e-05 -1.75192e-05        00000 
 4.24250e-05 -1.87996e-05        00000 
 1.71209e-05 -1.85272e-05        00000 
-7.94112e-06 -1.66161e-05        00000 
-3.24240e-05 -1.30409e-05        00000 
-5.59924e-05 -7.84651e-06        00000 
-7.83377e-05 -1.15161e-06        00000 
-9.92040e-05  6.85403e-06        00000 
-1.18413e-04  1.59188e-05        00000 
-1.35882e-04  2.57447e-05        00000 
-1.51642e-04  3.60077e-05        00000 
-1.65844e-04  4.63827e-05        00000 
-1.78753e-04  5.65703e-05        00000 
-1.90741e-04  6.63252e-05        00000 
-2.02260e-04  7.54820e-05        00000 
-2.13813e-04  8.39782e-05        00000 
-2.25911e-04  9.18714e-05        00000 
-2.39025e-04  9.93465e-05        00000 
-2.53539e-04  1.06714e-04        00000 
-2.69693e-04  1.14396e-04        00000 
 3.24666e-04  8.37273e-05        00000 
 3.05582e-04  7.22967e-05        00000 
 2.85040e-04  6.17950e-05        00000 
 2.63311e-04  5.19882e-05        00000 
 2.40498e-04  4.27091e-05        00000 
 2.16589e-04  3.38856e-05        00000 
 1.91518e-04  2.55503e-05        00000 
 1.65218e-04  1.78371e-05        00000 
 1.37670e-04  1.09644e-05        00000 
 1.08935e-04  5.20992e-06        00000 
 7.91801e-05  8.79477e-07        00000 
 4.86817e-05 -1.72745e-06        00000 
 1.78223e-05 -2.35128e-06        00000 
-1.29290e-05 -8.02987e-07        00000 
-4.30470e-05  3.01117e-06        00000 
-7.19882e-05  9.07276e-06        00000 
-9.92345e-05  1.72437e-05        00000 
-1.24338e-04  2.72689e-05        00000 
-1.46963e-04  3.87892e-05        00000 
-1.66926e-04  5.13641e-05        00000 
-1.84219e-04  6.45020e-05        00000 
-1.99032e-04  7.76979e-05        00000 
-2.11752e-04  9.04742e-05        00000 
-2.22951e-04  1.02424e-04        00000 
-2.33360e-04  1.13253e-04        00000 
-2.43820e-04  1.22816e-04        00000 
-2.55222e-04  1.31146e-04        00000 
-2.68435e-04  1.38475e-04        00000 
-2.84221e-04  1.45231e-04        00000 
-3.03142e-04  1.52032e-04        00000 
 3.78996e-04  1.25658e-04        00000 
 3.54674e-04  1.13757e-04        00000 
 3.29908e-04  1.02701e-04        00000 
 3.04773e-04  9.20114e-05        00000 
 2.79078e-04  8.13661e-05        00000 
 2.52479e-04  7.06298e-05        00000 
 2.24576e-04  5.98598e-05        00000 
 1.95009e-04  4.92911e-05        00000 
 1.63530e-04  3.93051e-05        00000 
 1.30064e-04  3.03855e-05        00000 
 9.47389e-05  2.30671e-05        00000 
 5.78941e-05  1.78806e-05        00000 
 2.00722e-05  1.52977e-05        00000 
-1.80155e-05  1.56823e-05        00000 
-5.55394e-05  1.92491e-05        00000 
-9.16153e-05  2.60353e-05        00000 
-1.25377e-04  3.58868e-05        00000 
-1.56052e-04  4.84609e-05        00000 
-1.83034e-04  6.32445e-05        00000 
-2.05943e-04  7.95880e-05        00000 
-2.24681e-04  9.67510e-05        00000 
-2.39459e-04  1.13958e-04        00000 
-2.50812e-04  1.30460e-04        00000 
-2.59586e-04  1.45599e-04        00000 
-2.66904e-04  1.58870e-04        00000 
-2.74106e-04  1.69979e-04        00000 
-2.82662e-04  1.78896e-04        00000 
-2.94064e-04  1.85887e-04        00000 
-3.09696e-04  1.91533e-04        00000 
-3.30684e-04  1.96723e-04        00000 
 4.34355e-04  1.80148e-04        00000 
 4.04373e-04  1.68331e-04        00000 
 3.75905e-04  1.57048e-04        00000 
 3.48539e-04  1.45446e-04        00000 
 3.21496e-04  1.32982e-04        00000 
 2.93808e-04  1.19442e-04        00000 
 2.64491e-04  1.04942e-04        00000 
 2.32680e-04  8.98838e-05        00000 
 1.97746e-04  7.49062e-05        00000 
 1.59378e-04  6.08139e-05        00000 
 1.17629e-04  4.84978e-05        00000 
 7.29288e-05  3.88505e-05        00000 
 2.60675e-05  3.26811e-05        00000 
-2.18605e-05  3.06357e-05        00000 
-6.95374e-05  3.31314e-05        00000 
-1.15527e-04  4.03072e-05        00000 
-1.58393e-04  5.20002e-05        00000 
-1.96826e-04  6.77469e-05        00000 
-2.29760e-04  8.68114e-05        00000 
-2.56481e-04  1.08238e-04        00000 
-2.76704e-04  1.30921e-04        00000 
-2.90630e-04  1.53691e-04        00000 
-2.98970e-04  1.75403e-04        00000 
-3.02933e-04  1.95032e-04        00000 
-3.04188e-04  2.11756e-04        00000 
-3.04786e-04  2.25048e-04        00000 
-3.07051e-04  2.34746e-04        00000 
-3.13434e-04  2.41122e-04        00000 
-3.26318e-04  2.44926e-04        00000 
-3.47804e-04  2.47405e-04        00000 
 4.86818e-04  2.48939e-04        00000 
 4.51443e-04  2.38253e-04        00000 
 4.20951e-04  2.27390e-04        00000 
 3.93939e-04  2.14979e-04        00000 
 3.68556e-04  2.00193e-04        00000 
 3.42789e-04  1.82747e-04        00000 
 3.14701e-04  1.62854e-04        00000 
 2.82629e-04  1.41166e-04        00000 
 2.45341e-04  1.18690e-04        00000 
 2.02140e-04  9.66943e-05        00000 
 1.52945e-04  7.65901e-05        00000 
 9.83051e-05  5.98133e-05        00000 
 3.93805e-05  4.76922e-05        00000 
-2.21401e-05  4.13212e-05        00000 
-8.41644e-05  4.14490e-05        00000 
-1.44367e-04  4.83937e-05        00000 
-2.00386e-04  6.19965e-05        00000 
-2.50033e-04  8.16210e-05        00000 
-2.91491e-04  1.06198e-04        00000 
-3.23487e-04  1.34315e-04        00000 
-3.45420e-04  1.64329e-04        00000 
-3.57443e-04  1.94504e-04        00000 
-3.60486e-04  2.23147e-04        00000 
-3.56249e-04  2.48734e-04        00000 
-3.47137e-04  2.70023e-04        00000 
-3.36176e-04  2.86162e-04        00000 
-3.26888e-04  2.96783e-04        00000 
-3.23116e-04  3.02098e-04        00000 
-3.28793e-04  3.03000e-04        00000 
-3.47629e-04  3.01139e-04        00000 
 5.29292e-04  3.32334e-04        00000 
 4.90364e-04  3.24557e-04        00000 
 4.61553e-04  3.15252e-04        00000 
 4.39666e-04  3.02441e-04        00000 
 4.21111e-04  2.85001e-04        00000 
 4.02279e-04  2.62590e-04        00000 
 3.79827e-04  2.35556e-04        00000 
 3.50913e-04  2.04851e-04        00000 
 3.13384e-04  1.71936e-04        00000 
 2.65930e-04  1.38675e-04        00000 
 2.08201e-04  1.07194e-04        00000 
 1.40861e-04  7.97144e-05        00000 
 6.55822e-05  5.83548e-05        00000 
-1.50531e-05  4.49255e-05        00000 
-9.77397e-05  4.07299e-05        00000 
-1.78720e-04  4.64057e-05        00000 
-2.54118e-04  6.18299e-05        00000 
-3.20299e-04  8.61065e-05        00000 
-3.74218e-04  1.17643e-04        00000 
-4.13715e-04  1.54305e-04        00000 
-4.37707e-04  1.93633e-04        00000 
-4.46305e-04  2.33066e-04        00000 
-4.40801e-04  2.70179e-04        00000 
-4.23603e-04  3.02842e-04        00000 
-3.98122e-04  3.29365e-04        00000 
-3.68645e-04  3.48564e-04        00000 
-3.40228e-04  3.59838e-04        00000 
-3.18552e-04  3.63267e-04        00000 
-3.09734e-04  3.59756e-04        00000 
-3.20004e-04  3.51248e-04        00000 
 5.50241e-04  4.26815e-04        00000 
 5.12645e-04  4.24664e-04        00000 
 4.92359e-04  4.18760e-04        00000 
 4.83344e-04  4.06633e-04        00000 
 4.79540e-04  3.86966e-04        00000 
 4.75206e-04  3.59370e-04        00000 
 4.65148e-04  3.24259e-04        00000 
 4.44909e-04  2.82783e-04        00000 
 4.10972e-04  2.36793e-04        00000 
 3.60987e-04  1.88788e-04        00000 
 2.94001e-04  1.41787e-04        00000 
 2.10639e-04  9.91167e-05        00000 
 1.13178e-04  6.41121e-05        00000 
 5.47392e-06  3.97589e-05        00000 
-1.07287e-04  2.83291e-05        00000 
-2.19021e-04  3.10654e-05        00000 
-3.23320e-04  4.79703e-05        00000 
-4.14110e-04  7.77509e-05        00000 
-4.86301e-04  1.17943e-04        00000 
-5.36304e-04  1.65208e-04        00000 
-5.62410e-04  2.15722e-04        00000 
-5.64859e-04  2.65679e-04        00000 
-5.45756e-04  3.11630e-04        00000 
-5.08775e-04  3.50856e-04        00000 
-4.58808e-04  3.81397e-04        00000 
-4.01733e-04  4.02071e-04        00000 
-3.44256e-04  4.12312e-04        00000 
-2.94013e-04  4.12090e-04        00000 
-2.59666e-04  4.02059e-04        00000 
-2.50880e-04  3.83912e-04        00000 
 5.33007e-04  5.20770e-04        00000 
 5.06762e-04  5.27884e-04        00000 
 5.05926e-04  5.28126e-04        00000 
 5.20698e-04  5.19180e-04        00000 
 5.42237e-04  4.99824e-04        00000 
 5.62590e-04  4.69528e-04        00000 
 5.74550e-04  4.28356e-04        00000 
 5.71618e-04  3.77109e-04        00000 
 5.48205e-04  3.17539e-04        00000 
 5.00033e-04  2.52528e-04        00000 
 4.24688e-04  1.86068e-04        00000 
 3.22144e-04  1.23020e-04        00000 
 1.95131e-04  6.86348e-05        00000 
 4.91997e-05  2.79026e-05        00000 
-1.07583e-04  4.85377e-06        00000 
-2.65309e-04  1.92229e-06        00000 
-4.13231e-04  1.94905e-05        00000 
-5.40980e-04  5.57036e-05        00000 
-6.39857e-04  1.06621e-04        00000 
-7.03941e-04  1.66752e-04        00000 
-7.30659e-04  2.29925e-04        00000 
-7.21099e-04  2.90056e-04        00000 
-6.79403e-04  3.42323e-04        00000 
-6.11997e-04  3.83338e-04        00000 
-5.26603e-04  4.11695e-04        00000 
-4.31169e-04  4.27304e-04        00000 
-3.33791e-04  4.30808e-04        00000 
-2.42885e-04  4.22828e-04        00000 
-1.68460e-04  4.03352e-04        00000 
-1.23462e-04  3.72451e-04        00000 
 4.57578e-04  5.87877e-04        00000 
 4.59972e-04  6.08064e-04        00000 
 4.93102e-04  6.18155e-04        00000 
 5.43856e-04  6.17609e-04        00000 
 6.01967e-04  6.05873e-04        00000 
 6.58627e-04  5.81766e-04        00000 
 7.05283e-04  5.43778e-04        00000 
 7.33081e-04  4.90789e-04        00000 
 7.33038e-04  4.23021e-04        00000 
 6.96962e-04  3.42805e-04        00000 
 6.18822e-04  2.54913e-04        00000 
 4.96200e-04  1.66322e-04        00000 
 3.31429e-04  8.53948e-05        00000 
 1.32092e-04  2.06425e-05        00000 
-8.93046e-05 -2.06807e-05        00000 
-3.16476e-04 -3.38484e-05        00000 
-5.31150e-04 -1.75598e-05        00000 