<?xml version="1.0" encoding="utf-8"?>
<VTKFile byte_order="LittleEndian" type="UnstructuredGrid" version="0.1">
   <UnstructuredGrid>
      <Piece NumberOfCells="3364" NumberOfPoints="1741">
         <Points>
            <DataArray Name="Points" NumberOfComponents="3" format="ascii" type="Float32">
0.0000 1.0000 0.0000
0.0000 1.0345 0.0000
0.0000 1.0690 0.0000
0.0000 1.1034 0.0000
0.0000 1.1379 0.0000
0.0000 1.1724 0.0000
0.0000 1.2069 0.0000
0.0000 1.2414 0.0000
0.0000 1.2759 0.0000
0.0000 1.3103 0.0000
0.0000 1.3448 0.0000
0.0000 1.3793 0.0000
0.0000 1.4138 0.0000
0.0000 1.4483 0.0000
0.0000 1.4828 0.0000
0.0000 1.5172 0.0000
0.0000 1.5517 0.0000
0.0000 1.5862 0.0000
0.0000 1.6207 0.0000
0.0000 1.6552 0.0000
0.0000 1.6897 0.0000
0.0000 1.7241 0.0000
0.0000 1.7586 0.0000
0.0000 1.7931 0.0000
0.0000 1.8276 0.0000
0.0000 1.8621 0.0000
0.0000 1.8966 0.0000
0.0000 1.9310 0.0000
0.0000 1.9655 0.0000
0.0000 2.0000 0.0000
0.0690 1.0000 0.0000
0.0690 1.0345 0.0000
0.0690 1.0690 0.0000
0.0690 1.1034 0.0000
0.0690 1.1379 0.0000
0.0690 1.1724 0.0000
0.0690 1.2069 0.0000
0.0690 1.2414 0.0000
0.0690 1.2759 0.0000
0.0690 1.3103 0.0000
0.0690 1.3448 0.0000
0.0690 1.3793 0.0000
0.0690 1.4138 0.0000
0.0690 1.4483 0.0000
0.0690 1.4828 0.0000
0.0690 1.5172 0.0000
0.0690 1.5517 0.0000
0.0690 1.5862 0.0000
0.0690 1.6207 0.0000
0.0690 1.6552 0.0000
0.0690 1.6897 0.0000
0.0690 1.7241 0.0000
0.0690 1.7586 0.0000
0.0690 1.7931 0.0000
0.0690 1.8276 0.0000
0.0690 1.8621 0.0000
0.0690 1.8966 0.0000
0.0690 1.9310 0.0000
0.0690 1.9655 0.0000
0.0690 2.0000 0.0000
0.1379 1.0000 0.0000
0.1379 1.0345 0.0000
0.1379 1.0690 0.0000
0.1379 1.1034 0.0000
0.1379 1.1379 0.0000
0.1379 1.1724 0.0000
0.1379 1.2069 0.0000
0.1379 1.2414 0.0000
0.1379 1.2759 0.0000
0.1379 1.3103 0.0000
0.1379 1.3448 0.0000
0.1379 1.3793 0.0000
0.1379 1.4138 0.0000
0.1379 1.4483 0.0000
0.1379 1.4828 0.0000
0.1379 1.5172 0.0000
0.1379 1.5517 0.0000
0.1379 1.5862 0.0000
0.1379 1.6207 0.0000
0.1379 1.6552 0.0000
0.1379 1.6897 0.0000
0.1379 1.7241 0.0000
0.1379 1.7586 0.0000
0.1379 1.7931 0.0000
0.1379 1.8276 0.0000
0.1379 1.8621 0.0000
0.1379 1.8966 0.0000
0.1379 1.9310 0.0000
0.1379 1.9655 0.0000
0.1379 2.0000 0.0000
0.2069 1.0000 0.0000
0.2069 1.0345 0.0000
0.2069 1.0690 0.0000
0.2069 1.1034 0.0000
0.2069 1.1379 0.0000
0.2069 1.1724 0.0000
0.2069 1.2069 0.0000
0.2069 1.2414 0.0000
0.2069 1.2759 0.0000
0.2069 1.3103 0.0000
0.2069 1.3448 0.0000
0.2069 1.3793 0.0000
0.2069 1.4138 0.0000
0.2069 1.4483 0.0000
0.2069 1.4828 0.0000
0.2069 1.5172 0.0000
0.2069 1.5517 0.0000
0.2069 1.5862 0.0000
0.2069 1.6207 0.0000
0.2069 1.6552 0.0000
0.2069 1.6897 0.0000
0.2069 1.7241 0.0000
0.2069 1.7586 0.0000
0.2069 1.7931 0.0000
0.2069 1.8276 0.0000
0.2069 1.8621 0.0000
0.2069 1.8966 0.0000
0.2069 1.9310 0.0000
0.2069 1.9655 0.0000
0.2069 2.0000 0.0000
0.2759 1.0000 0.0000
0.2759 1.0345 0.0000
0.2759 1.0690 0.0000
0.2759 1.1034 0.0000
0.2759 1.1379 0.0000
0.2759 1.1724 0.0000
0.2759 1.2069 0.0000
0.2759 1.2414 0.0000
0.2759 1.2759 0.0000
0.2759 1.3103 0.0000
0.2759 1.3448 0.0000
0.2759 1.3793 0.0000
0.2759 1.4138 0.0000
0.2759 1.4483 0.0000
0.2759 1.4828 0.0000
0.2759 1.5172 0.0000
0.2759 1.5517 0.0000
0.2759 1.5862 0.0000
0.2759 1.6207 0.0000
0.2759 1.6552 0.0000
0.2759 1.6897 0.0000
0.2759 1.7241 0.0000
0.2759 1.7586 0.0000
0.2759 1.7931 0.0000
0.2759 1.8276 0.0000
0.2759 1.8621 0.0000
0.2759 1.8966 0.0000
0.2759 1.9310 0.0000
0.2759 1.9655 0.0000
0.2759 2.0000 0.0000
0.3448 1.0000 0.0000
0.3448 1.0345 0.0000
0.3448 1.0690 0.0000
0.3448 1.1034 0.0000
0.3448 1.1379 0.0000
0.3448 1.1724 0.0000
0.3448 1.2069 0.0000
0.3448 1.2414 0.0000
0.3448 1.2759 0.0000
0.3448 1.3103 0.0000
0.3448 1.3448 0.0000
0.3448 1.3793 0.0000
0.3448 1.4138 0.0000
0.3448 1.4483 0.0000
0.3448 1.4828 0.0000
0.3448 1.5172 0.0000
0.3448 1.5517 0.0000
0.3448 1.5862 0.0000
0.3448 1.6207 0.0000
0.3448 1.6552 0.0000
0.3448 1.6897 0.0000
0.3448 1.7241 0.0000
0.3448 1.7586 0.0000
0.3448 1.7931 0.0000
0.3448 1.8276 0.0000
0.3448 1.8621 0.0000
0.3448 1.8966 0.0000
0.3448 1.9310 0.0000
0.3448 1.9655 0.0000
0.3448 2.0000 0.0000
0.4138 1.0000 0.0000
0.4138 1.0345 0.0000
0.4138 1.0690 0.0000
0.4138 1.1034 0.0000
0.4138 1.1379 0.0000
0.4138 1.1724 0.0000
0.4138 1.2069 0.0000
0.4138 1.2414 0.0000
0.4138 1.2759 0.0000
0.4138 1.3103 0.0000
0.4138 1.3448 0.0000
0.4138 1.3793 0.0000
0.4138 1.4138 0.0000
0.4138 1.4483 0.0000
0.4138 1.4828 0.0000
0.4138 1.5172 0.0000
0.4138 1.5517 0.0000
0.4138 1.5862 0.0000
0.4138 1.6207 0.0000
0.4138 1.6552 0.0000
0.4138 1.6897 0.0000
0.4138 1.7241 0.0000
0.4138 1.7586 0.0000
0.4138 1.7931 0.0000
0.4138 1.8276 0.0000
0.4138 1.8621 0.0000
0.4138 1.8966 0.0000
0.4138 1.9310 0.0000
0.4138 1.9655 0.0000
0.4138 2.0000 0.0000
0.4828 1.0000 0.0000
0.4828 1.0345 0.0000
0.4828 1.0690 0.0000
0.4828 1.1034 0.0000
0.4828 1.1379 0.0000
0.4828 1.1724 0.0000
0.4828 1.2069 0.0000
0.4828 1.2414 0.0000
0.4828 1.2759 0.0000
0.4828 1.3103 0.0000
0.4828 1.3448 0.0000
0.4828 1.3793 0.0000
0.4828 1.4138 0.0000
0.4828 1.4483 0.0000
0.4828 1.4828 0.0000
0.4828 1.5172 0.0000
0.4828 1.5517 0.0000
0.4828 1.5862 0.0000
0.4828 1.6207 0.0000
0.4828 1.6552 0.0000
0.4828 1.6897 0.0000
0.4828 1.7241 0.0000
0.4828 1.7586 0.0000
0.4828 1.7931 0.0000
0.4828 1.8276 0.0000
0.4828 1.8621 0.0000
0.4828 1.8966 0.0000
0.4828 1.9310 0.0000
0.4828 1.9655 0.0000
0.4828 2.0000 0.0000
0.5517 1.0000 0.0000
0.5517 1.0345 0.0000
0.5517 1.0690 0.0000
0.5517 1.1034 0.0000
0.5517 1.1379 0.0000
0.5517 1.1724 0.0000
0.5517 1.2069 0.0000
0.5517 1.2414 0.0000
0.5517 1.2759 0.0000
0.5517 1.3103 0.0000
0.5517 1.3448 0.0000
0.5517 1.3793 0.0000
0.5517 1.4138 0.0000
0.5517 1.4483 0.0000
0.5517 1.4828 0.0000
0.5517 1.5172 0.0000
0.5517 1.5517 0.0000
0.5517 1.5862 0.0000
0.5517 1.6207 0.0000
0.5517 1.6552 0.0000
0.5517 1.6897 0.0000
0.5517 1.7241 0.0000
0.5517 1.7586 0.0000
0.5517 1.7931 0.0000
0.5517 1.8276 0.0000
0.5517 1.8621 0.0000
0.5517 1.8966 0.0000
0.5517 1.9310 0.0000
0.5517 1.9655 0.0000
0.5517 2.0000 0.0000
0.6207 1.0000 0.0000
0.6207 1.0345 0.0000
0.6207 1.0690 0.0000
0.6207 1.1034 0.0000
0.6207 1.1379 0.0000
0.6207 1.1724 0.0000
0.6207 1.2069 0.0000
0.6207 1.2414 0.0000
0.6207 1.2759 0.0000
0.6207 1.3103 0.0000
0.6207 1.3448 0.0000
0.6207 1.3793 0.0000
0.6207 1.4138 0.0000
0.6207 1.4483 0.0000
0.6207 1.4828 0.0000
0.6207 1.5172 0.0000
0.6207 1.5517 0.0000
0.6207 1.5862 0.0000
0.6207 1.6207 0.0000
0.6207 1.6552 0.0000
0.6207 1.6897 0.0000
0.6207 1.7241 0.0000
0.6207 1.7586 0.0000
0.6207 1.7931 0.0000
0.6207 1.8276 0.0000
0.6207 1.8621 0.0000
0.6207 1.8966 0.0000
0.6207 1.9310 0.0000
0.6207 1.9655 0.0000
0.6207 2.0000 0.0000
0.6897 1.0000 0.0000
0.6897 1.0345 0.0000
0.6897 1.0690 0.0000
0.6897 1.1034 0.0000
0.6897 1.1379 0.0000
0.6897 1.1724 0.0000
0.6897 1.2069 0.0000
0.6897 1.2414 0.0000
0.6897 1.2759 0.0000
0.6897 1.3103 0.0000
0.6897 1.3448 0.0000
0.6897 1.3793 0.0000
0.6897 1.4138 0.0000
0.6897 1.4483 0.0000
0.6897 1.4828 0.0000
0.6897 1.5172 0.0000
0.6897 1.5517 0.0000
0.6897 1.5862 0.0000
0.6897 1.6207 0.0000
0.6897 1.6552 0.0000
0.6897 1.6897 0.0000
0.6897 1.7241 0.0000
0.6897 1.7586 0.0000
0.6897 1.7931 0.0000
0.6897 1.8276 0.0000
0.6897 1.8621 0.0000
0.6897 1.8966 0.0000
0.6897 1.9310 0.0000
0.6897 1.9655 0.0000
0.6897 2.0000 0.0000
0.7586 1.0000 0.0000
0.7586 1.0345 0.0000
0.7586 1.0690 0.0000
0.7586 1.1034 0.0000
0.7586 1.1379 0.0000
0.7586 1.1724 0.0000
0.7586 1.2069 0.0000
0.7586 1.2414 0.0000
0.7586 1.2759 0.0000
0.7586 1.3103 0.0000
0.7586 1.3448 0.0000
0.7586 1.3793 0.0000
0.7586 1.4138 0.0000
0.7586 1.4483 0.0000
0.7586 1.4828 0.0000
0.7586 1.5172 0.0000
0.7586 1.5517 0.0000
0.7586 1.5862 0.0000
0.7586 1.6207 0.0000
0.7586 1.6552 0.0000
0.7586 1.6897 0.0000
0.7586 1.7241 0.0000
0.7586 1.7586 0.0000
0.7586 1.7931 0.0000
0.7586 1.8276 0.0000
0.7586 1.8621 0.0000
0.7586 1.8966 0.0000
0.7586 1.9310 0.0000
0.7586 1.9655 0.0000
0.7586 2.0000 0.0000
0.8276 1.0000 0.0000
0.8276 1.0345 0.0000
0.8276 1.0690 0.0000
0.8276 1.1034 0.0000
0.8276 1.1379 0.0000
0.8276 1.1724 0.0000
0.8276 1.2069 0.0000
0.8276 1.2414 0.0000
0.8276 1.2759 0.0000
0.8276 1.3103 0.0000
0.8276 1.3448 0.0000
0.8276 1.3793 0.0000
0.8276 1.4138 0.0000
0.8276 1.4483 0.0000
0.8276 1.4828 0.0000
0.8276 1.5172 0.0000
0.8276 1.5517 0.0000
0.8276 1.5862 0.0000
0.8276 1.6207 0.0000
0.8276 1.6552 0.0000
0.8276 1.6897 0.0000
0.8276 1.7241 0.0000
0.8276 1.7586 0.0000
0.8276 1.7931 0.0000
0.8276 1.8276 0.0000
0.8276 1.8621 0.0000
0.8276 1.8966 0.0000
0.8276 1.9310 0.0000
0.8276 1.9655 0.0000
0.8276 2.0000 0.0000
0.8966 1.0000 0.0000
0.8966 1.0345 0.0000
0.8966 1.0690 0.0000
0.8966 1.1034 0.0000
0.8966 1.1379 0.0000
0.8966 1.1724 0.0000
0.8966 1.2069 0.0000
0.8966 1.2414 0.0000
0.8966 1.2759 0.0000
0.8966 1.3103 0.0000
0.8966 1.3448 0.0000
0.8966 1.3793 0.0000
0.8966 1.4138 0.0000
0.8966 1.4483 0.0000
0.8966 1.4828 0.0000
0.8966 1.5172 0.0000
0.8966 1.5517 0.0000
0.8966 1.5862 0.0000
0.8966 1.6207 0.0000
0.8966 1.6552 0.0000
0.8966 1.6897 0.0000
0.8966 1.7241 0.0000
0.8966 1.7586 0.0000
0.8966 1.7931 0.0000
0.8966 1.8276 0.0000
0.8966 1.8621 0.0000
0.8966 1.8966 0.0000
0.8966 1.9310 0.0000
0.8966 1.9655 0.0000
0.8966 2.0000 0.0000
0.9655 1.0000 0.0000
0.9655 1.0345 0.0000
0.9655 1.0690 0.0000
0.9655 1.1034 0.0000
0.9655 1.1379 0.0000
0.9655 1.1724 0.0000
0.9655 1.2069 0.0000
0.9655 1.2414 0.0000
0.9655 1.2759 0.0000
0.9655 1.3103 0.0000
0.9655 1.3448 0.0000
0.9655 1.3793 0.0000
0.9655 1.4138 0.0000
0.9655 1.4483 0.0000
0.9655 1.4828 0.0000
0.9655 1.5172 0.0000
0.9655 1.5517 0.0000
0.9655 1.5862 0.0000
0.9655 1.6207 0.0000
0.9655 1.6552 0.0000
0.9655 1.6897 0.0000
0.9655 1.7241 0.0000
0.9655 1.7586 0.0000
0.9655 1.7931 0.0000
0.9655 1.8276 0.0000
0.9655 1.8621 0.0000
0.9655 1.8966 0.0000
0.9655 1.9310 0.0000
0.9655 1.9655 0.0000
0.9655 2.0000 0.0000
1.0345 1.0000 0.0000
1.0345 1.0345 0.0000
1.0345 1.0690 0.0000
1.0345 1.1034 0.0000
1.0345 1.1379 0.0000
1.0345 1.1724 0.0000
1.0345 1.2069 0.0000
1.0345 1.2414 0.0000
1.0345 1.2759 0.0000
1.0345 1.3103 0.0000
1.0345 1.3448 0.0000
[...]
         <PointData>
            <DataArray Name="fValues" NumberOfComponents="3" format="ascii" type="Float64">
 2.70414e-18  5.94744e-19        00000 
 7.35924e-19  1.47185e-18        00000 
       00000 -5.45803e-19        00000 
 1.14294e-18 -3.47453e-18        00000 
-5.45803e-19  4.91223e-18        00000 
-1.47158e-18 -6.10460e-18        00000 
-5.45803e-19  2.00128e-18        00000 
 1.82870e-19  1.14294e-19        00000 
-4.54836e-20 -3.63869e-19        00000 
-8.20869e-20 -1.28758e-18        00000 
 1.13709e-20  9.09672e-20        00000 
 4.28601e-20  7.42909e-19        00000 
-2.27418e-20 -1.63741e-18        00000 
 4.07064e-19 -5.47858e-19        00000 
-3.86611e-19 -1.09161e-18        00000 
 1.84299e-19  7.31479e-19        00000 
 2.72902e-19  5.45803e-19        00000 
-9.36741e-19 -1.50606e-18        00000 
 6.36771e-19 -1.81934e-19        00000 
-5.25751e-19 -1.48582e-19        00000 
 1.81934e-19 -7.27738e-19        00000 
-8.16849e-19  1.44388e-18        00000 
-1.18257e-18  1.27354e-18        00000 
 3.65740e-19 -1.52011e-18        00000 
 2.18321e-18  1.27354e-18        00000 
-8.80911e-19 -2.42174e-18        00000 
       00000  1.45548e-18        00000 
 2.19853e-18 -2.71381e-18        00000 
 4.58737e-19  1.69733e-18        00000 
 3.73614e-18 -2.34975e-18        00000 
-2.41995e-02 -2.22903e-02        00000 
-1.64743e-02 -1.75277e-02        00000 
-1.25947e-02 -1.46761e-02        00000 
-9.94126e-03 -1.29366e-02        00000 
-7.90171e-03 -1.18541e-02        00000 
-6.22597e-03 -1.11821e-02        00000 
-4.78831e-03 -1.07780e-02        00000 
-3.51613e-03 -1.05547e-02        00000 
-2.36322e-03 -1.04570e-02        00000 
-1.29779e-03 -1.04491e-02        00000 
-2.96595e-04 -1.05073e-02        00000 
 6.58305e-04 -1.06163e-02        00000 
 1.58142e-03 -1.07663e-02        00000 
 2.48504e-03 -1.09518e-02        00000 
 3.38006e-03 -1.11705e-02        00000 
 4.27667e-03 -1.14227e-02        00000 
 5.18487e-03 -1.17114e-02        00000 
 6.11508e-03 -1.20420e-02        00000 
 7.07876e-03 -1.24230e-02        00000 
 8.08924e-03 -1.28669e-02        00000 
 9.16289e-03 -1.33909e-02        00000 
 1.03209e-02 -1.40198e-02        00000 
 1.15922e-02 -1.47892e-02        00000 
 1.30186e-02 -1.57515e-02        00000 
 1.46644e-02 -1.69864e-02        00000 
 1.66365e-02 -1.86203e-02        00000 
 1.91296e-02 -2.08636e-02        00000 
 2.25478e-02 -2.40879e-02        00000 
 2.79146e-02 -2.89990e-02        00000 
 3.97004e-02 -3.68561e-02        00000 
-4.14439e-02 -3.95360e-02        00000 
-3.30221e-02 -3.62263e-02        00000 
-2.60863e-02 -3.31169e-02        00000 
-2.07532e-02 -3.06912e-02        00000 
-1.64799e-02 -2.89090e-02        00000 
-1.29265e-02 -2.76448e-02        00000 
-9.87893e-03 -2.67804e-02        00000 
-7.19632e-03 -2.62219e-02        00000 
-4.78164e-03 -2.58986e-02        00000 
-2.56487e-03 -2.57587e-02        00000 
-4.93421e-04 -2.57651e-02        00000 
 1.47377e-03 -2.58920e-02        00000 
 3.37003e-03 -2.61223e-02        00000 
 5.22352e-03 -2.64459e-02        00000 
 7.05917e-03 -2.68582e-02        00000 
 8.90015e-03 -2.73597e-02        00000 
 1.07693e-02 -2.79557e-02        00000 
 1.26904e-02 -2.86562e-02        00000 
 1.46899e-02 -2.94768e-02        00000 
 1.67985e-02 -3.04398e-02        00000 
 1.90539e-02 -3.15757e-02        00000 
 2.15045e-02 -3.29261e-02        00000 
 2.42153e-02 -3.45470e-02        00000 
 2.72765e-02 -3.65137e-02        00000 
 3.08196e-02 -3.89269e-02        00000 
 3.50441e-02 -4.19182e-02        00000 
 4.02668e-02 -4.56500e-02        00000 
 4.70102e-02 -5.02852e-02        00000 
 5.61323e-02 -5.58249e-02        00000 
 6.73480e-02 -6.13542e-02        00000 
-5.59197e-02 -5.87859e-02        00000 
-4.63859e-02 -5.58873e-02        00000 
-3.80821e-02 -5.33118e-02        00000 
-3.09259e-02 -5.10658e-02        00000 
-2.48210e-02 -4.92271e-02        00000 
-1.95638e-02 -4.77950e-02        00000 
-1.49680e-02 -4.67305e-02        00000 
-1.08822e-02 -4.59841e-02        00000 
-7.18713e-03 -4.55087e-02        00000 
-3.78870e-03 -4.52639e-02        00000 
-6.11663e-04 -4.52178e-02        00000 
 2.40518e-03 -4.53465e-02        00000 
 5.31289e-03 -4.56335e-02        00000 
 8.15537e-03 -4.60688e-02        00000 
 1.09718e-02 -4.66478e-02        00000 
 1.37990e-02 -4.73717e-02        00000 
 1.66729e-02 -4.82465e-02        00000 
 1.96311e-02 -4.92835e-02        00000 
 2.27148e-02 -5.04999e-02        00000 
 2.59714e-02 -5.19187e-02        00000 
 2.94573e-02 -5.35705e-02        00000 
 3.32426e-02 -5.54940e-02        00000 
 3.74160e-02 -5.77363e-02        00000 
 4.20920e-02 -6.03532e-02        00000 
 4.74207e-02 -6.34055e-02        00000 
 5.35970e-02 -6.69497e-02        00000 
 6.08650e-02 -7.10151e-02        00000 
 6.94835e-02 -7.55554e-02        00000 
 7.95096e-02 -8.03771e-02        00000 
 9.09473e-02 -8.53955e-02        00000 
-6.81458e-02 -8.01015e-02        00000 
-5.74954e-02 -7.77256e-02        00000 
-4.80010e-02 -7.55858e-02        00000 
-3.95787e-02 -7.37074e-02        00000 
-3.21166e-02 -7.21017e-02        00000 
-2.54949e-02 -7.07835e-02        00000 
-1.95783e-02 -6.97520e-02        00000 
-1.42366e-02 -6.89939e-02        00000 
-9.35349e-03 -6.84902e-02        00000 
-4.82862e-03 -6.82214e-02        00000 
-5.76356e-04 -6.81698e-02        00000 
 3.47641e-03 -6.83215e-02        00000 
 7.39277e-03 -6.86663e-02        00000 
 1.12282e-02 -6.91981e-02        00000 
 1.50331e-02 -6.99150e-02        00000 
 1.88548e-02 -7.08185e-02        00000 
 2.27397e-02 -7.19141e-02        00000 
 2.67360e-02 -7.32109e-02        00000 
 3.08954e-02 -7.47217e-02        00000 
 3.52758e-02 -7.64630e-02        00000 
 3.99443e-02 -7.84550e-02        00000 
 4.49793e-02 -8.07207e-02        00000 
 5.04742e-02 -8.32849e-02        00000 
 5.65392e-02 -8.61705e-02        00000 
 6.33021e-02 -8.93935e-02        00000 
 7.09029e-02 -9.29535e-02        00000 
 7.94771e-02 -9.68217e-02        00000 
 8.91176e-02 -1.00934e-01        00000 
 9.98851e-02 -1.05226e-01        00000 
 1.11773e-01 -1.09601e-01        00000 
-7.80060e-02 -1.03507e-01        00000 
-6.63884e-02 -1.01648e-01        00000 
-5.59235e-02 -9.99723e-02        00000 
-4.65022e-02 -9.84827e-02        00000 
-3.80129e-02 -9.71892e-02        00000 
-3.03391e-02 -9.61008e-02        00000 
-2.33648e-02 -9.52257e-02        00000 
-1.69760e-02 -9.45680e-02        00000 
-1.10652e-02 -9.41277e-02        00000 
-5.53460e-03 -9.39029e-02        00000 
-2.96916e-04 -9.38907e-02        00000 
 4.72507e-03 -9.40886e-02        00000 
 9.59972e-03 -9.44950e-02        00000 
 1.43882e-02 -9.51097e-02        00000 
 1.91466e-02 -9.59336e-02        00000 
 2.39278e-02 -9.69689e-02        00000 
 2.87834e-02 -9.82193e-02        00000 
 3.37665e-02 -9.96893e-02        00000 
 3.89331e-02 -1.01384e-01        00000 
 4.43444e-02 -1.03311e-01        00000 
 5.00688e-02 -1.05475e-01        00000 
 5.61828e-02 -1.07882e-01        00000 
 6.27721e-02 -1.10534e-01        00000 
 6.99308e-02 -1.13429e-01        00000 
 7.77581e-02 -1.16555e-01        00000 
 8.63518e-02 -1.19892e-01        00000 
 9.57989e-02 -1.23404e-01        00000 
 1.06171e-01 -1.27049e-01        00000 
 1.17517e-01 -1.30779e-01        00000 
 1.29861e-01 -1.34555e-01        00000 
-8.53466e-02 -1.28623e-01        00000 
-7.29906e-02 -1.27314e-01        00000 
-6.17974e-02 -1.26115e-01        00000 
-5.16389e-02 -1.25031e-01        00000 
-4.23914e-02 -1.24072e-01        00000 
-3.39353e-02 -1.23248e-01        00000 
-2.61553e-02 -1.22574e-01        00000 
-1.89419e-02 -1.22064e-01        00000 
-1.21927e-02 -1.21729e-01        00000 
-5.81357e-03 -1.21582e-01        00000 
 2.80549e-04 -1.21630e-01        00000 
 6.16574e-03 -1.21883e-01        00000 
 1.19099e-02 -1.22347e-01        00000 
 1.75740e-02 -1.23026e-01        00000 
 2.32136e-02 -1.23927e-01        00000 
 2.88813e-02 -1.25050e-01        00000 
 3.46278e-02 -1.26397e-01        00000 
 4.05048e-02 -1.27968e-01        00000 
 4.65663e-02 -1.29759e-01        00000 
 5.28705e-02 -1.31767e-01        00000 
 5.94810e-02 -1.33982e-01        00000 
 6.64671e-02 -1.36397e-01        00000 
 7.39041e-02 -1.38995e-01        00000 
 8.18715e-02 -1.41759e-01        00000 
 9.04508e-02 -1.44664e-01        00000 
 9.97217e-02 -1.47682e-01        00000 
 1.09759e-01 -1.50779e-01        00000 
 1.20630e-01 -1.53920e-01        00000 
 1.32393e-01 -1.57073e-01        00000 
 1.45097e-01 -1.60212e-01        00000 
-8.99886e-02 -1.54917e-01        00000 
-7.71905e-02 -1.54185e-01        00000 
-6.55561e-02 -1.53477e-01        00000 
-5.49413e-02 -1.52804e-01        00000 
-4.52102e-02 -1.52179e-01        00000 
-3.62352e-02 -1.51621e-01        00000 
-2.78969e-02 -1.51151e-01        00000 
-2.00847e-02 -1.50792e-01        00000 
-1.26976e-02 -1.50566e-01        00000 
-5.64428e-03 -1.50496e-01        00000 
 1.15642e-03 -1.50601e-01        00000 
 7.77612e-03 -1.50899e-01        00000 
 1.42776e-02 -1.51405e-01        00000 
 2.07161e-02 -1.52128e-01        00000 
 2.71412e-02 -1.53077e-01        00000 
 3.35985e-02 -1.54254e-01        00000 
 4.01319e-02 -1.55658e-01        00000 
 4.67857e-02 -1.57282e-01        00000 
 5.36064e-02 -1.59116e-01        00000 
 6.06442e-02 -1.61144e-01        00000 
 6.79545e-02 -1.63347e-01        00000 
 7.55982e-02 -1.65701e-01        00000 
 8.36414e-02 -1.68180e-01        00000 
 9.21549e-02 -1.70753e-01        00000 
 1.01213e-01 -1.73386e-01        00000 
 1.10889e-01 -1.76047e-01        00000 
 1.21260e-01 -1.78701e-01        00000 
 1.32398e-01 -1.81315e-01        00000 
 1.44373e-01 -1.83863e-01        00000 
 1.57257e-01 -1.86322e-01        00000 
-9.17734e-02 -1.81717e-01        00000 
-7.88848e-02 -1.81586e-01        00000 
-6.71416e-02 -1.81378e-01        00000 
-5.63851e-02 -1.81111e-01        00000 
-4.64674e-02 -1.80808e-01        00000 
-3.72512e-02 -1.80497e-01        00000 
-2.86108e-02 -1.80209e-01        00000 
-2.04323e-02 -1.79978e-01        00000 
-1.26146e-02 -1.79837e-01        00000 
-5.06902e-03 -1.79819e-01        00000 
 2.28033e-03 -1.79956e-01        00000 
 9.49757e-03 -1.80275e-01        00000 
 1.66361e-02 -1.80798e-01        00000 
 2.37403e-02 -1.81542e-01        00000 
 3.08475e-02 -1.82517e-01        00000 
 3.79905e-02 -1.83727e-01        00000 
 4.51999e-02 -1.85166e-01        00000 
 5.25066e-02 -1.86824e-01        00000 
 5.99445e-02 -1.88682e-01        00000 
 6.75520e-02 -1.90713e-01        00000 
 7.53738e-02 -1.92887e-01        00000 
 8.34616e-02 -1.95167e-01        00000 
 9.18750e-02 -1.97515e-01        00000 
 1.00680e-01 -1.99887e-01        00000 
 1.09950e-01 -2.02243e-01        00000 
 1.19761e-01 -2.04540e-01        00000 
 1.30196e-01 -2.06740e-01        00000 
 1.41338e-01 -2.08811e-01        00000 
 1.53271e-01 -2.10722e-01        00000 
 1.66084e-01 -2.12454e-01        00000 
-9.05751e-02 -2.08247e-01        00000 
-7.79979e-02 -2.08732e-01        00000 
-6.65231e-02 -2.09023e-01        00000 
-5.59779e-02 -2.09148e-01        00000 
-4.62010e-02 -2.09142e-01        00000 
-3.70442e-02 -2.09044e-01        00000 
-2.83739e-02 -2.08899e-01        00000 
-2.00719e-02 -2.08752e-01        00000 
-1.20364e-02 -2.08652e-01        00000 
-4.18250e-03 -2.08645e-01        00000 
 3.55855e-03 -2.08774e-01        00000 
 1.12399e-02 -2.09078e-01        00000 
 1.89009e-02 -2.09588e-01        00000 
 2.65694e-02 -2.10329e-01        00000 
 3.42640e-02 -2.11315e-01        00000 
 4.19977e-02 -2.12548e-01        00000 
 4.97811e-02 -2.14023e-01        00000 
 5.76255e-02 -2.15721e-01        00000 
 6.55462e-02 -2.17616e-01        00000 
 7.35653e-02 -2.19670e-01        00000 
 8.17142e-02 -2.21839e-01        00000 
 9.00348e-02 -2.24072e-01        00000 
 9.85805e-02 -2.26317e-01        00000 
 1.07416e-01 -2.28517e-01        00000 
 1.16618e-01 -2.30617e-01        00000 
 1.26270e-01 -2.32567e-01        00000 
 1.36466e-01 -2.34320e-01        00000 
 1.47303e-01 -2.35836e-01        00000 
 1.58884e-01 -2.37084e-01        00000 
 1.71314e-01 -2.38040e-01        00000 
-8.63078e-02 -2.33628e-01        00000 
-7.44924e-02 -2.34733e-01        00000 
-6.37092e-02 -2.35513e-01        00000 
-5.37688e-02 -2.36006e-01        00000 
-4.44942e-02 -2.36260e-01        00000 
-3.57239e-02 -2.36329e-01        00000 
-2.73144e-02 -2.36273e-01        00000 
-1.91424e-02 -2.36155e-01        00000 
-1.11059e-02 -2.36038e-01        00000 
-3.12466e-03 -2.35986e-01        00000 
 4.85967e-03 -2.36057e-01        00000 
 1.28852e-02 -2.36304e-01        00000 
 2.09717e-02 -2.36768e-01        00000 
 2.91235e-02 -2.37483e-01        00000 
 3.73335e-02 -2.38467e-01        00000 
 4.55869e-02 -2.39727e-01        00000 
 5.38657e-02 -2.41251e-01        00000 
 6.21539e-02 -2.43018e-01        00000 
 7.04414e-02 -2.44989e-01        00000 
 7.87284e-02 -2.47114e-01        00000 
 8.70285e-02 -2.49334e-01        00000 
 9.53715e-02 -2.51582e-01        00000 
 1.03805e-01 -2.53784e-01        00000 
 1.12393e-01 -2.55868e-01        00000 
 1.21219e-01 -2.57763e-01        00000 
 1.30381e-01 -2.59402e-01        00000 
 1.39986e-01 -2.60727e-01        00000 
 1.50155e-01 -2.61689e-01        00000 
 1.61011e-01 -2.62251e-01        00000 
 1.72680e-01 -2.62385e-01        00000 
-7.89298e-02 -2.56885e-01        00000 
-6.83768e-02 -2.58607e-01        00000 
-5.87562e-02 -2.59853e-01        00000 
-4.98566e-02 -2.60678e-01        00000 
-4.14809e-02 -2.61144e-01        00000 
-3.34507e-02 -2.61323e-01        00000 
-2.56107e-02 -2.61294e-01        00000 
-1.78313e-02 -2.61139e-01        00000 
-1.00107e-02 -2.60941e-01        00000 
-2.07576e-03 -2.60783e-01        00000 
 6.01842e-03 -2.60741e-01        00000 
 1.42897e-02 -2.60883e-01        00000 
 2.27319e-02 -2.61267e-01        00000 
 3.13183e-02 -2.61934e-01        00000 
 4.00066e-02 -2.62910e-01        00000 
 4.87446e-02 -2.64205e-01        00000 
 5.74760e-02 -2.65805e-01        00000 
 6.61476e-02 -2.67682e-01        00000 
 7.47146e-02 -2.69786e-01        00000 
 8.31475e-02 -2.72052e-01        00000 
 9.14362e-02 -2.74402e-01        00000 
 9.95942e-02 -2.76747e-01        00000 
 1.07661e-01 -2.78992e-01        00000 
 1.15703e-01 -2.81041e-01        00000 
 1.23812e-01 -2.82800e-01        00000 
 1.32102e-01 -2.84184e-01        00000 
 1.40708e-01 -2.85116e-01        00000 
 1.49777e-01 -2.85535e-01        00000 
 1.59464e-01 -2.85395e-01        00000 
 1.69923e-01 -2.84665e-01        00000 
-6.84480e-02 -2.76940e-01        00000 
-5.97138e-02 -2.79261e-01        00000 
-5.17770e-02 -2.80941e-01        00000 
-4.43964e-02 -2.82052e-01        00000 
-3.73487e-02 -2.82676e-01        00000 
-3.04353e-02 -2.82905e-01        00000 
-2.34868e-02 -2.82840e-01        00000 
-1.63671e-02 -2.82585e-01        00000 
-8.97556e-03 -2.82245e-01        00000 
-1.24830e-03 -2.81923e-01        00000 
 6.84200e-03 -2.81717e-01        00000 
 1.52878e-02 -2.81711e-01        00000 
 2.40495e-02 -2.81980e-01        00000 
 3.30607e-02 -2.82579e-01        00000 
 4.22337e-02 -2.83542e-01        00000 
 5.14671e-02 -2.84882e-01        00000 
 6.06542e-02 -2.86587e-01        00000 
 6.96919e-02 -2.88620e-01        00000 
 7.84894e-02 -2.90919e-01        00000 
 8.69767e-02 -2.93402e-01        00000 
 9.51114e-02 -2.95969e-01        00000 
 1.02885e-01 -2.98506e-01        00000 
 1.10325e-01 -3.00890e-01        00000 
 1.17498e-01 -3.02997e-01        00000 
 1.24509e-01 -3.04705e-01        00000 
 1.31496e-01 -3.05903e-01        00000 
 1.38625e-01 -3.06491e-01        00000 
 1.46084e-01 -3.06391e-01        00000 
 1.54071e-01 -3.05542e-01        00000 
 1.62785e-01 -3.03908e-01        00000 
-5.49311e-02 -2.92595e-01        00000 
-4.86350e-02 -2.95481e-01        00000 
-4.29525e-02 -2.97550e-01        00000 
-3.76041e-02 -2.98895e-01        00000 
-3.23359e-02 -2.99624e-01        00000 
-2.69271e-02 -2.99854e-01        00000 
-2.11951e-02 -2.99708e-01        00000 
-1.49986e-02 -2.99313e-01        00000 
-8.24024e-03 -2.98794e-01        00000 
-8.67976e-04 -2.98276e-01        00000 
 7.12470e-03 -2.97873e-01        00000 
 1.56999e-02 -2.97692e-01        00000 
 2.47785e-02 -2.97822e-01        00000 
 3.42450e-02 -2.98335e-01        00000 
 4.39551e-02 -2.99278e-01        00000 
 5.37448e-02 -3.00669e-01        00000 
 6.34422e-02 -3.02497e-01        00000 
 7.28790e-02 -3.04719e-01        00000 
 8.19034e-02 -3.07262e-01        00000 
 9.03915e-02 -3.10023e-01        00000 
 9.82574e-02 -3.12880e-01        00000 
 1.05461e-01 -3.15689e-01        00000 
 1.12015e-01 -3.18296e-01        00000 
 1.17984e-01 -3.20547e-01        00000 
 1.23485e-01 -3.22285e-01        00000 
 1.28684e-01 -3.23368e-01        00000 
 1.33790e-01 -3.23668e-01        00000 
 1.39042e-01 -3.23080e-01        00000 
 1.44699e-01 -3.21525e-01        00000 
 1.51024e-01 -3.18957e-01        00000 
-3.85432e-02 -3.02505e-01        00000 
-3.53701e-02 -3.05900e-01        00000 
-3.25492e-02 -3.08298e-01        00000 
-2.97582e-02 -3.09828e-01        00000 
-2.67153e-02 -3.10630e-01        00000 
-2.31843e-02 -3.10849e-01        00000 
-1.89761e-02 -3.10629e-01        00000 
-1.39500e-02 -3.10113e-01        00000 
-8.01578e-03 -3.09441e-01        00000 
-1.13478e-03 -3.08749e-01        00000 
 6.67788e-03 -3.08166e-01        00000 
 1.53527e-02 -3.07816e-01        00000 
 2.47671e-02 -3.07806e-01        00000 
 3.47495e-02 -3.08225e-01        00000 
 4.50878e-02 -3.09134e-01        00000 
 5.55407e-02 -3.10565e-01        00000 
 6.58530e-02 -3.12510e-01        00000 
 7.57725e-02 -3.14922e-01        00000 
 8.50677e-02 -3.17716e-01        00000 
 9.35443e-02 -3.20771e-01        00000 
 1.01060e-01 -3.23938e-01        00000 
 1.07534e-01 -3.27045e-01        00000 
 1.12954e-01 -3.29908e-01        00000 
 1.17382e-01 -3.32337e-01        00000 
 1.20945e-01 -3.34146e-01        00000 
 1.23841e-01 -3.35159e-01        00000 
 1.26323e-01 -3.35214e-01        00000 
 1.28690e-01 -3.34174e-01        00000 
 1.31278e-01 -3.31931e-01        00000 
 1.34436e-01 -3.28412e-01        00000 
-1.96172e-02 -3.05167e-01        00000 
-2.03026e-02 -3.08973e-01        00000 
-2.09457e-02 -3.11624e-01        00000 
-2.11942e-02 -3.13304e-01        00000 
-2.07602e-02 -3.14197e-01        00000 
-1.94150e-02 -3.14474e-01        00000 
-1.69835e-02 -3.14289e-01        00000 
-1.33396e-02 -3.13788e-01        00000 
-8.40554e-03 -3.13103e-01        00000 
-2.15463e-03 -3.12368e-01        00000 
 5.38262e-03 -3.11713e-01        00000 
 1.41123e-02 -3.11267e-01        00000 
 2.38727e-02 -3.11155e-01        00000 
 3.44348e-02 -3.11486e-01        00000 
 4.55097e-02 -3.12344e-01        00000 
 5.67622e-02 -3.13777e-01        00000 
 6.78320e-02 -3.15789e-01        00000 
 7.83585e-02 -3.18332e-01        00000 
 8.80073e-02 -3.21312e-01        00000 
 9.64943e-02 -3.24586e-01        00000 
 1.03606e-01 -3.27981e-01        00000 
 1.09215e-01 -3.31298e-01        00000 
 1.13280e-01 -3.34327e-01        00000 
 1.15855e-01 -3.36854e-01        00000 
 1.17079e-01 -3.38671e-01        00000 
 1.17170e-01 -3.39578e-01        00000 
 1.16420e-01 -3.39384e-01        00000 
 1.15185e-01 -3.37914e-01        00000 
 1.13875e-01 -3.35015e-01        00000 
 1.12939e-01 -3.30564e-01        00000 
 1.20684e-03 -2.98945e-01        00000 
-4.06207e-03 -3.02997e-01        00000 
-8.67355e-03 -3.05800e-01        00000 
-1.22947e-02 -3.07628e-01        00000 
-1.46875e-02 -3.08714e-01        00000 
-1.56850e-02 -3.09248e-01        00000 
-1.51689e-02 -3.09377e-01        00000 
-1.30540e-02 -3.09212e-01        00000 
-9.28334e-03 -3.08848e-01        00000 
-3.83341e-03 -3.08378e-01        00000 
 3.27100e-03 -3.07903e-01        00000 
 1.19372e-02 -3.07545e-01        00000 
 2.19867e-02 -3.07437e-01        00000 
 3.31446e-02 -3.07714e-01        00000 
 4.50412e-02 -3.08494e-01        00000 
 5.72292e-02 -3.09857e-01        00000 
 6.92131e-02 -3.11826e-01        00000 