<?xml version="1.0" encoding="utf-8"?>
<VTKFile byte_order="LittleEndian" type="UnstructuredGrid" version="0.1">
   <UnstructuredGrid>
      <Piece NumberOfCells="3364" NumberOfPoints="1741">
         <Points>
            <DataArray Name="Points" NumberOfComponents="3" format="ascii" type="Float32">
0.0000 1.0000 0.0000
0.0000 1.0345 0.0000
0.0000 1.0690 0.0000
0.0000 1.1034 0.0000
0.0000 1.1379 0.0000
0.0000 1.1724 0.0000
0.0000 1.2069 0.0000
0.0000 1.2414 0.0000
0.0000 1.2759 0.0000
0.0000 1.3103 0.0000
0.0000 1.3448 0.0000
0.0000 1.3793 0.0000
0.0000 1.4138 0.0000
0.0000 1.4483 0.0000
0.0000 1.4828 0.0000
0.0000 1.5172 0.0000
0.0000 1.5517 0.0000
0.0000 1.5862 0.0000
0.0000 1.6207 0.0000
0.0000 1.6552 0.0000
0.0000 1.6897 0.0000
0.0000 1.7241 0.0000
0.0000 1.7586 0.0000
0.0000 1.7931 0.0000
0.0000 1.8276 0.0000
0.0000 1.8621 0.0000
0.0000 1.8966 0.0000
0.0000 1.9310 0.0000
0.0000 1.9655 0.0000
0.0000 2.0000 0.0000
0.0690 1.0000 0.0000
0.0690 1.0345 0.0000
0.0690 1.0690 0.0000
0.0690 1.1034 0.0000
0.0690 1.1379 0.0000
0.0690 1.1724 0.0000
0.0690 1.2069 0.0000
0.0690 1.2414 0.0000
0.0690 1.2759 0.0000
0.0690 1.3103 0.0000
0.0690 1.3448 0.0000
0.0690 1.3793 0.0000
0.0690 1.4138 0.0000
0.0690 1.4483 0.0000
0.0690 1.4828 0.0000
0.0690 1.5172 0.0000
0.0690 1.5517 0.0000
0.0690 1.5862 0.0000
0.0690 1.6207 0.0000
0.0690 1.6552 0.0000
0.0690 1.6897 0.0000
0.0690 1.7241 0.0000
0.0690 1.7586 0.0000
0.0690 1.7931 0.0000
0.0690 1.8276 0.0000
0.0690 1.8621 0.0000
0.0690 1.8966 0.0000
0.0690 1.9310 0.0000
0.0690 1.9655 0.0000
0.0690 2.0000 0.0000
0.1379 1.0000 0.0000
0.1379 1.0345 0.0000
0.1379 1.0690 0.0000
0.1379 1.1034 0.0000
0.1379 1.1379 0.0000
0.1379 1.1724 0.0000
0.1379 1.2069 0.0000
0.1379 1.2414 0.0000
0.1379 1.2759 0.0000
0.1379 1.3103 0.0000
0.1379 1.3448 0.0000
0.1379 1.3793 0.0000
0.1379 1.4138 0.0000
0.1379 1.4483 0.0000
0.1379 1.4828 0.0000
0.1379 1.5172 0.0000
0.1379 1.5517 0.0000
0.1379 1.5862 0.0000
0.1379 1.6207 0.0000
0.1379 1.6552 0.0000
0.1379 1.6897 0.0000
0.1379 1.7241 0.0000
0.1379 1.7586 0.0000
0.1379 1.7931 0.0000
0.1379 1.8276 0.0000
0.1379 1.8621 0.0000
0.1379 1.8966 0.0000
0.1379 1.9310 0.0000
0.1379 1.9655 0.0000
0.1379 2.0000 0.0000
0.2069 1.0000 0.0000
0.2069 1.0345 0.0000
0.2069 1.0690 0.0000
0.2069 1.1034 0.0000
0.2069 1.1379 0.0000
0.2069 1.1724 0.0000
0.2069 1.2069 0.0000
0.2069 1.2414 0.0000
0.2069 1.2759 0.0000
0.2069 1.3103 0.0000
0.2069 1.3448 0.0000
0.2069 1.3793 0.0000
0.2069 1.4138 0.0000
0.2069 1.4483 0.0000
0.2069 1.4828 0.0000
0.2069 1.5172 0.0000
0.2069 1.5517 0.0000
0.2069 1.5862 0.0000
0.2069 1.6207 0.0000
0.2069 1.6552 0.0000
0.2069 1.6897 0.0000
0.2069 1.7241 0.0000
0.2069 1.7586 0.0000
0.2069 1.7931 0.0000
0.2069 1.8276 0.0000
0.2069 1.8621 0.0000
0.2069 1.8966 0.0000
0.2069 1.9310 0.0000
0.2069 1.9655 0.0000
0.2069 2.0000 0.0000
0.2759 1.0000 0.0000
0.2759 1.0345 0.0000
0.2759 1.0690 0.0000
0.2759 1.1034 0.0000
0.2759 1.1379 0.0000
0.2759 1.1724 0.0000
0.2759 1.2069 0.0000
0.2759 1.2414 0.0000
0.2759 1.2759 0.0000
0.2759 1.3103 0.0000
0.2759 1.3448 0.0000
0.2759 1.3793 0.0000
0.2759 1.4138 0.0000
0.2759 1.4483 0.0000
0.2759 1.4828 0.0000
0.2759 1.5172 0.0000
0.2759 1.5517 0.0000
0.2759 1.5862 0.0000
0.2759 1.6207 0.0000
0.2759 1.6552 0.0000
0.2759 1.6897 0.0000
0.2759 1.7241 0.0000
0.2759 1.7586 0.0000
0.2759 1.7931 0.0000
0.2759 1.8276 0.0000
0.2759 1.8621 0.0000
0.2759 1.8966 0.0000
0.2759 1.9310 0.0000
0.2759 1.9655 0.0000
0.2759 2.0000 0.0000
0.3448 1.0000 0.0000
0.3448 1.0345 0.0000
0.3448 1.0690 0.0000
0.3448 1.1034 0.0000
0.3448 1.1379 0.0000
0.3448 1.1724 0.0000
0.3448 1.2069 0.0000
0.3448 1.2414 0.0000
0.3448 1.2759 0.0000
0.3448 1.3103 0.0000
0.3448 1.3448 0.0000
0.3448 1.3793 0.0000
0.3448 1.4138 0.0000
0.3448 1.4483 0.0000
0.3448 1.4828 0.0000
0.3448 1.5172 0.0000
0.3448 1.5517 0.0000
0.3448 1.5862 0.0000
0.3448 1.6207 0.0000
0.3448 1.6552 0.0000
0.3448 1.6897 0.0000
0.3448 1.7241 0.0000
0.3448 1.7586 0.0000
0.3448 1.7931 0.0000
0.3448 1.8276 0.0000
0.3448 1.8621 0.0000
0.3448 1.8966 0.0000
0.3448 1.9310 0.0000
0.3448 1.9655 0.0000
0.3448 2.0000 0.0000
0.4138 1.0000 0.0000
0.4138 1.0345 0.0000
0.4138 1.0690 0.0000
0.4138 1.1034 0.0000
0.4138 1.1379 0.0000
0.4138 1.1724 0.0000
0.4138 1.2069 0.0000
0.4138 1.2414 0.0000
0.4138 1.2759 0.0000
0.4138 1.3103 0.0000
0.4138 1.3448 0.0000
0.4138 1.3793 0.0000
0.4138 1.4138 0.0000
0.4138 1.4483 0.0000
0.4138 1.4828 0.0000
0.4138 1.5172 0.0000
0.4138 1.5517 0.0000
0.4138 1.5862 0.0000
0.4138 1.6207 0.0000
0.4138 1.6552 0.0000
0.4138 1.6897 0.0000
0.4138 1.7241 0.0000
0.4138 1.7586 0.0000
0.4138 1.7931 0.0000
0.4138 1.8276 0.0000
0.4138 1.8621 0.0000
0.4138 1.8966 0.0000
0.4138 1.9310 0.0000
0.4138 1.9655 0.0000
0.4138 2.0000 0.0000
0.4828 1.0000 0.0000
0.4828 1.0345 0.0000
0.4828 1.0690 0.0000
0.4828 1.1034 0.0000
0.4828 1.1379 0.0000
0.4828 1.1724 0.0000
0.4828 1.2069 0.0000
0.4828 1.2414 0.0000
0.4828 1.2759 0.0000
0.4828 1.3103 0.0000
0.4828 1.3448 0.0000
0.4828 1.3793 0.0000
0.4828 1.4138 0.0000
0.4828 1.4483 0.0000
0.4828 1.4828 0.0000
0.4828 1.5172 0.0000
0.4828 1.5517 0.0000
0.4828 1.5862 0.0000
0.4828 1.6207 0.0000
0.4828 1.6552 0.0000
0.4828 1.6897 0.0000
0.4828 1.7241 0.0000
0.4828 1.7586 0.0000
0.4828 1.7931 0.0000
0.4828 1.8276 0.0000
0.4828 1.8621 0.0000
0.4828 1.8966 0.0000
0.4828 1.9310 0.0000
0.4828 1.9655 0.0000
0.4828 2.0000 0.0000
0.5517 1.0000 0.0000
0.5517 1.0345 0.0000
0.5517 1.0690 0.0000
0.5517 1.1034 0.0000
0.5517 1.1379 0.0000
0.5517 1.1724 0.0000
0.5517 1.2069 0.0000
0.5517 1.2414 0.0000
0.5517 1.2759 0.0000
0.5517 1.3103 0.0000
0.5517 1.3448 0.0000
0.5517 1.3793 0.0000
0.5517 1.4138 0.0000
0.5517 1.4483 0.0000
0.5517 1.4828 0.0000
0.5517 1.5172 0.0000
0.5517 1.5517 0.0000
0.5517 1.5862 0.0000
0.5517 1.6207 0.0000
0.5517 1.6552 0.0000
0.5517 1.6897 0.0000
0.5517 1.7241 0.0000
0.5517 1.7586 0.0000
0.5517 1.7931 0.0000
0.5517 1.8276 0.0000
0.5517 1.8621 0.0000
0.5517 1.8966 0.0000
0.5517 1.9310 0.0000
0.5517 1.9655 0.0000
0.5517 2.0000 0.0000
0.6207 1.0000 0.0000
0.6207 1.0345 0.0000
0.6207 1.0690 0.0000
0.6207 1.1034 0.0000
0.6207 1.1379 0.0000
0.6207 1.1724 0.0000
0.6207 1.2069 0.0000
0.6207 1.2414 0.0000
0.6207 1.2759 0.0000
0.6207 1.3103 0.0000
0.6207 1.3448 0.0000
0.6207 1.3793 0.0000
0.6207 1.4138 0.0000
0.6207 1.4483 0.0000
0.6207 1.4828 0.0000
0.6207 1.5172 0.0000
0.6207 1.5517 0.0000
0.6207 1.5862 0.0000
0.6207 1.6207 0.0000
0.6207 1.6552 0.0000
0.6207 1.6897 0.0000
0.6207 1.7241 0.0000
0.6207 1.7586 0.0000
0.6207 1.7931 0.0000
0.6207 1.8276 0.0000
0.6207 1.8621 0.0000
0.6207 1.8966 0.0000
0.6207 1.9310 0.0000
0.6207 1.9655 0.0000
0.6207 2.0000 0.0000
0.6897 1.0000 0.0000
0.6897 1.0345 0.0000
0.6897 1.0690 0.0000
0.6897 1.1034 0.0000
0.6897 1.1379 0.0000
0.6897 1.1724 0.0000
0.6897 1.2069 0.0000
0.6897 1.2414 0.0000
0.6897 1.2759 0.0000
0.6897 1.3103 0.0000
0.6897 1.3448 0.0000
0.6897 1.3793 0.0000
0.6897 1.4138 0.0000
0.6897 1.4483 0.0000
0.6897 1.4828 0.0000
0.6897 1.5172 0.0000
0.6897 1.5517 0.0000
0.6897 1.5862 0.0000
0.6897 1.6207 0.0000
0.6897 1.6552 0.0000
0.6897 1.6897 0.0000
0.6897 1.7241 0.0000
0.6897 1.7586 0.0000
0.6897 1.7931 0.0000
0.6897 1.8276 0.0000
0.6897 1.8621 0.0000
0.6897 1.8966 0.0000
0.6897 1.9310 0.0000
0.6897 1.9655 0.0000
0.6897 2.0000 0.0000
0.7586 1.0000 0.0000
0.7586 1.0345 0.0000
0.7586 1.0690 0.0000
0.7586 1.1034 0.0000
0.7586 1.1379 0.0000
0.7586 1.1724 0.0000
0.7586 1.2069 0.0000
0.7586 1.2414 0.0000
0.7586 1.2759 0.0000
0.7586 1.3103 0.0000
0.7586 1.3448 0.0000
0.7586 1.3793 0.0000
0.7586 1.4138 0.0000
0.7586 1.4483 0.0000
0.7586 1.4828 0.0000
0.7586 1.5172 0.0000
0.7586 1.5517 0.0000
0.7586 1.5862 0.0000
0.7586 1.6207 0.0000
0.7586 1.6552 0.0000
0.7586 1.6897 0.0000
0.7586 1.7241 0.0000
0.7586 1.7586 0.0000
0.7586 1.7931 0.0000
0.7586 1.8276 0.0000
0.7586 1.8621 0.0000
0.7586 1.8966 0.0000
0.7586 1.9310 0.0000
0.7586 1.9655 0.0000
0.7586 2.0000 0.0000
0.8276 1.0000 0.0000
0.8276 1.0345 0.0000
0.8276 1.0690 0.0000
0.8276 1.1034 0.0000
0.8276 1.1379 0.0000
0.8276 1.1724 0.0000
0.8276 1.2069 0.0000
0.8276 1.2414 0.0000
0.8276 1.2759 0.0000
0.8276 1.3103 0.0000
0.8276 1.3448 0.0000
0.8276 1.3793 0.0000
0.8276 1.4138 0.0000
0.8276 1.4483 0.0000
0.8276 1.4828 0.0000
0.8276 1.5172 0.0000
0.8276 1.5517 0.0000
0.8276 1.5862 0.0000
0.8276 1.6207 0.0000
0.8276 1.6552 0.0000
0.8276 1.6897 0.0000
0.8276 1.7241 0.0000
0.8276 1.7586 0.0000
0.8276 1.7931 0.0000
0.8276 1.8276 0.0000
0.8276 1.8621 0.0000
0.8276 1.8966 0.0000
0.8276 1.9310 0.0000
0.8276 1.9655 0.0000
0.8276 2.0000 0.0000
0.8966 1.0000 0.0000
0.8966 1.0345 0.0000
0.8966 1.0690 0.0000
0.8966 1.1034 0.0000
0.8966 1.1379 0.0000
0.8966 1.1724 0.0000
0.8966 1.2069 0.0000
0.8966 1.2414 0.0000
0.8966 1.2759 0.0000
0.8966 1.3103 0.0000
0.8966 1.3448 0.0000
0.8966 1.3793 0.0000
0.8966 1.4138 0.0000
0.8966 1.4483 0.0000
0.8966 1.4828 0.0000
0.8966 1.5172 0.0000
0.8966 1.5517 0.0000
0.8966 1.5862 0.0000
0.8966 1.6207 0.0000
0.8966 1.6552 0.0000
0.8966 1.6897 0.0000
0.8966 1.7241 0.0000
0.8966 1.7586 0.0000
0.8966 1.7931 0.0000
0.8966 1.8276 0.0000
0.8966 1.8621 0.0000
0.8966 1.8966 0.0000
0.8966 1.9310 0.0000
0.8966 1.9655 0.0000
0.8966 2.0000 0.0000
0.9655 1.0000 0.0000
0.9655 1.0345 0.0000
0.9655 1.0690 0.0000
0.9655 1.1034 0.0000
0.9655 1.1379 0.0000
0.9655 1.1724 0.0000
0.9655 1.2069 0.0000
0.9655 1.2414 0.0000
0.9655 1.2759 0.0000
0.9655 1.3103 0.0000
0.9655 1.3448 0.0000
0.9655 1.3793 0.0000
0.9655 1.4138 0.0000
0.9655 1.4483 0.0000
0.9655 1.4828 0.0000
0.9655 1.5172 0.0000
0.9655 1.5517 0.0000
0.9655 1.5862 0.0000
0.9655 1.6207 0.0000
0.9655 1.6552 0.0000
0.9655 1.6897 0.0000
0.9655 1.7241 0.0000
0.9655 1.7586 0.0000
0.9655 1.7931 0.0000
0.9655 1.8276 0.0000
0.9655 1.8621 0.0000
0.9655 1.8966 0.0000
0.9655 1.9310 0.0000
0.9655 1.9655 0.0000
0.9655 2.0000 0.0000
1.0345 1.0000 0.0000
1.0345 1.0345 0.0000
1.0345 1.0690 0.0000
1.0345 1.1034 0.0000
1.0345 1.1379 0.0000
1.0345 1.1724 0.0000
1.0345 1.2069 0.0000
1.0345 1.2414 0.0000
1.0345 1.2759 0.0000
1.0345 1.3103 0.0000
1.0345 1.3448 0.0000
[...]
         <PointData>
            <DataArray Name="fValues" NumberOfComponents="3" format="ascii" type="Float64">
 2.74694e-18 -2.38537e-18        00000 
 4.41554e-18  1.83981e-18        00000 
-2.54708e-18  7.39109e-20        00000 
 4.18315e-18 -5.71468e-21        00000 
-1.81934e-19  2.72902e-19        00000 
-1.52406e-19 -1.95759e-19        00000 
 3.45675e-18        00000        00000 
-1.87442e-18  1.18294e-18        00000 
 1.36451e-18 -3.63869e-19        00000 
 8.57432e-19  1.30846e-18        00000 
-2.72902e-19  5.45803e-19        00000 
 9.20778e-19  1.18865e-18        00000 
-4.32094e-19  2.72902e-18        00000 
 8.10534e-19 -2.90581e-18        00000 
-2.95643e-19  1.45548e-18        00000 
 5.35037e-19 -1.78298e-18        00000 
-1.45548e-18        00000        00000 
 1.22790e-18 -4.31482e-18        00000 
-2.36515e-18 -5.45803e-19        00000 
 1.12008e-18 -8.00056e-19        00000 
-2.54708e-18  1.27354e-18        00000 
 4.71360e-18 -1.36697e-18        00000 
-1.45548e-18  7.27738e-19        00000 
-1.12008e-18 -5.37180e-19        00000 
-4.73030e-18  2.67216e-19        00000 
 1.46520e-18 -2.70994e-19        00000 
 4.00256e-18 -6.02658e-19        00000 
-5.40472e-18  2.35240e-18        00000 
 5.59660e-18 -3.25704e-18        00000 
-5.24998e-18  4.66508e-18        00000 
 3.66386e-02  2.08718e-02        00000 
 3.14646e-02  1.21134e-02        00000 
 2.87109e-02  5.26902e-03        00000 
 2.62743e-02 -2.03449e-04        00000 
 2.38736e-02 -4.67191e-03        00000 
 2.14482e-02 -8.35970e-03        00000 
 1.89883e-02 -1.14134e-02        00000 
 1.64968e-02 -1.39347e-02        00000 
 1.39796e-02 -1.59967e-02        00000 
 1.14424e-02 -1.76533e-02        00000 
 8.89022e-03 -1.89447e-02        00000 
 6.32705e-03 -1.99011e-02        00000 
 3.75604e-03 -2.05446e-02        00000 
 1.17962e-03 -2.08908e-02        00000 
-1.40041e-03 -2.09499e-02        00000 
-3.98274e-03 -2.07267e-02        00000 
-6.56647e-03 -2.02213e-02        00000 
-9.15107e-03 -1.94283e-02        00000 
-1.17363e-02 -1.83370e-02        00000 
-1.43221e-02 -1.69299e-02        00000 
-1.69089e-02 -1.51816e-02        00000 
-1.94977e-02 -1.30567e-02        00000 
-2.20904e-02 -1.05067e-02        00000 
-2.46917e-02 -7.46479e-03        00000 
-2.73122e-02 -3.83762e-03        00000 
-2.99772e-02  5.08818e-04        00000 
-3.27497e-02  5.77590e-03        00000 
-3.58061e-02  1.22857e-02        00000 
-3.97302e-02  2.05982e-02        00000 
-4.79785e-02  3.16040e-02        00000 
 7.19819e-02  2.60105e-02        00000 
 6.80595e-02  1.78604e-02        00000 
 6.27952e-02  9.74581e-03        00000 
 5.74427e-02  2.38235e-03        00000 
 5.20367e-02 -4.10269e-03        00000 
 4.65901e-02 -9.72882e-03        00000 
 4.11146e-02 -1.45521e-02        00000 
 3.56204e-02 -1.86341e-02        00000 
 3.01157e-02 -2.20315e-02        00000 
 2.46059e-02 -2.47935e-02        00000 
 1.90948e-02 -2.69608e-02        00000 
 1.35846e-02 -2.85666e-02        00000 
 8.07608e-03 -2.96366e-02        00000 
 2.56912e-03 -3.01897e-02        00000 
-2.93752e-03 -3.02384e-02        00000 
-8.44600e-03 -2.97888e-02        00000 
-1.39594e-02 -2.88409e-02        00000 
-1.94819e-02 -2.73877e-02        00000 
-2.50186e-02 -2.54152e-02        00000 
-3.05757e-02 -2.29012e-02        00000 
-3.61612e-02 -1.98145e-02        00000 
-4.17846e-02 -1.61132e-02        00000 
-4.74584e-02 -1.17434e-02        00000 
-5.31997e-02 -6.63764e-03        00000 
-5.90339e-02 -7.13662e-04        00000 
-6.50019e-02  6.12344e-03        00000 
-7.11748e-02  1.39705e-02        00000 
-7.76812e-02  2.28852e-02        00000 
-8.47238e-02  3.27248e-02        00000 
-9.09353e-02  4.24742e-02        00000 
 1.10880e-01  3.31467e-02        00000 
 1.05164e-01  2.43189e-02        00000 
 9.80829e-02  1.61144e-02        00000 
 9.01617e-02  8.45717e-03        00000 
 8.18492e-02  1.46802e-03        00000 
 7.33361e-02 -4.78697e-03        00000 
 6.47191e-02 -1.02857e-02        00000 
 5.60512e-02 -1.50308e-02        00000 
 4.73627e-02 -1.90371e-02        00000 
 3.86711e-02 -2.23244e-02        00000 
 2.99857e-02 -2.49136e-02        00000 
 2.13108e-02 -2.68245e-02        00000 
 1.26471e-02 -2.80740e-02        00000 
 3.99307e-03 -2.86756e-02        00000 
-4.65519e-03 -2.86390e-02        00000 
-1.33032e-02 -2.79695e-02        00000 
-2.19583e-02 -2.66677e-02        00000 
-3.06291e-02 -2.47293e-02        00000 
-3.93261e-02 -2.21445e-02        00000 
-4.80608e-02 -1.88982e-02        00000 
-5.68462e-02 -1.49695e-02        00000 
-6.56958e-02 -1.03321e-02        00000 
-7.46228e-02 -4.95548e-03        00000 
-8.36392e-02  1.19255e-03        00000 
-9.27514e-02  8.14074e-03        00000 
-1.01953e-01  1.59039e-02        00000 
-1.11204e-01  2.44633e-02        00000 
-1.20367e-01  3.37313e-02        00000 
-1.28978e-01  4.35184e-02        00000 
-1.36463e-01  5.38602e-02        00000 
 1.52451e-01  4.56553e-02        00000 
 1.43631e-01  3.65403e-02        00000 
 1.33723e-01  2.82039e-02        00000 
 1.23029e-01  2.05739e-02        00000 
 1.11806e-01  1.36170e-02        00000 
 1.00259e-01  7.34838e-03        00000 
 8.85230e-02  1.78822e-03        00000 
 7.66814e-02 -3.04986e-03        00000 
 6.47869e-02 -7.15973e-03        00000 
 5.28719e-02 -1.05411e-02        00000 
 4.09558e-02 -1.31976e-02        00000 
 2.90493e-02 -1.51349e-02        00000 
 1.71569e-02 -1.63599e-02        00000 
 5.27862e-03 -1.68792e-02        00000 
-6.58873e-03 -1.66986e-02        00000 
-1.84513e-02 -1.58227e-02        00000 
-3.03177e-02 -1.42543e-02        00000 
-4.21985e-02 -1.19940e-02        00000 
-5.41058e-02 -9.04030e-03        00000 
-6.60526e-02 -5.38966e-03        00000 
-7.80519e-02 -1.03659e-03        00000 
-9.01144e-02  4.02522e-03        00000 
-1.02246e-01  9.80149e-03        00000 
-1.14444e-01  1.62947e-02        00000 
-1.26685e-01  2.35004e-02        00000 
-1.38916e-01  3.14026e-02        00000 
-1.51026e-01  3.99707e-02        00000 
-1.62807e-01  4.91685e-02        00000 
-1.73985e-01  5.90078e-02        00000 
-1.84204e-01  6.95302e-02        00000 
 1.95284e-01  6.55073e-02        00000 
 1.82728e-01  5.63121e-02        00000 
 1.69441e-01  4.80213e-02        00000 
 1.55566e-01  4.05271e-02        00000 
 1.41248e-01  3.37705e-02        00000 
 1.26614e-01  2.77218e-02        00000 
 1.11770e-01  2.23737e-02        00000 
 9.67928e-02  1.77290e-02        00000 
 8.17395e-02  1.37932e-02        00000 
 6.66483e-02  1.05716e-02        00000 
 5.15449e-02  8.06745e-03        00000 
 3.64457e-02  6.28218e-03        00000 
 2.13602e-02  5.21504e-03        00000 
 6.29259e-03  4.86350e-03        00000 
-8.75737e-03  5.22357e-03        00000 
-2.37934e-02  6.29007e-03        00000 
-3.88222e-02  8.05699e-03        00000 
-5.38531e-02  1.05177e-02        00000 
-6.88972e-02  1.36652e-02        00000 
-8.39661e-02  1.74924e-02        00000 
-9.90711e-02  2.19916e-02        00000 
-1.14220e-01  2.71550e-02        00000 
-1.29413e-01  3.29738e-02        00000 
-1.44641e-01  3.94385e-02        00000 
-1.59873e-01  4.65387e-02        00000 
-1.75051e-01  5.42662e-02        00000 
-1.90080e-01  6.26210e-02        00000 
-2.04830e-01  7.16253e-02        00000 
-2.19135e-01  8.13313e-02        00000 
-2.32812e-01  9.18444e-02        00000 
 2.38087e-01  9.34883e-02        00000 
 2.21522e-01  8.44645e-02        00000 
 2.04583e-01  7.63890e-02        00000 
 1.87306e-01  6.91590e-02        00000 
 1.69746e-01  6.27025e-02        00000 
 1.51963e-01  5.69749e-02        00000 
 1.34014e-01  5.19519e-02        00000 
 1.15952e-01  4.76231e-02        00000 
 9.78161e-02  4.39866e-02        00000 
 7.96406e-02  4.10447e-02        00000 
 6.14502e-02  3.88009e-02        00000 
 4.32633e-02  3.72578e-02        00000 
 2.50931e-02  3.64165e-02        00000 
 6.94795e-03  3.62755e-02        00000 
-1.11676e-02  3.68302e-02        00000 
-2.92530e-02  3.80736e-02        00000 
-4.73112e-02  3.99955e-02        00000 
-6.53482e-02  4.25834e-02        00000 
-8.33729e-02  4.58230e-02        00000 
-1.01396e-01  4.96982e-02        00000 
-1.19428e-01  5.41927e-02        00000 
-1.37480e-01  5.92901e-02        00000 
-1.55556e-01  6.49759e-02        00000 
-1.73654e-01  7.12388e-02        00000 
-1.91761e-01  7.80742e-02        00000 
-2.09847e-01  8.54882e-02        00000 
-2.27871e-01  9.35039e-02        00000 
-2.45774e-01  1.02168e-01        00000 
-2.63492e-01  1.11560e-01        00000 
-2.80959e-01  1.21794e-01        00000 
 2.79608e-01  1.29801e-01        00000 
 2.59022e-01  1.21188e-01        00000 
 2.38386e-01  1.13509e-01        00000 
 2.17664e-01  1.06672e-01        00000 
 1.96843e-01  1.00606e-01        00000 
 1.75927e-01  9.52647e-02        00000 
 1.54928e-01  9.06180e-02        00000 
 1.33864e-01  8.66498e-02        00000 
 1.12756e-01  8.33536e-02        00000 
 9.16236e-02  8.07290e-02        00000 
 7.04849e-02  7.87783e-02        00000 
 4.93573e-02  7.75044e-02        00000 
 2.82560e-02  7.69083e-02        00000 
 7.19353e-03  7.69882e-02        00000 
-1.38203e-02  7.77382e-02        00000 
-3.47792e-02  7.91484e-02        00000 
-5.56808e-02  8.12042e-02        00000 
-7.65270e-02  8.38875e-02        00000 
-9.73243e-02  8.71765e-02        00000 
-1.18084e-01  9.10478e-02        00000 
-1.38820e-01  9.54774e-02        00000 
-1.59550e-01  1.00443e-01        00000 
-1.80294e-01  1.05925e-01        00000 
-2.01070e-01  1.11914e-01        00000 
-2.21895e-01  1.18407e-01        00000 
-2.42784e-01  1.25419e-01        00000 
-2.63750e-01  1.32984e-01        00000 
-2.84807e-01  1.41160e-01        00000 
-3.05972e-01  1.50031e-01        00000 
-3.27274e-01  1.59717e-01        00000 
 3.18650e-01  1.74193e-01        00000 
 2.94227e-01  1.66226e-01        00000 
 2.70043e-01  1.59123e-01        00000 
 2.46003e-01  1.52807e-01        00000 
 2.22044e-01  1.47218e-01        00000 
 1.98121e-01  1.42313e-01        00000 
 1.74208e-01  1.38068e-01        00000 
 1.50292e-01  1.34466e-01        00000 
 1.26371e-01  1.31505e-01        00000 
 1.02448e-01  1.29186e-01        00000 
 7.85345e-02  1.27513e-01        00000 
 5.46443e-02  1.26491e-01        00000 
 3.07944e-02  1.26125e-01        00000 
 7.00225e-03  1.26412e-01        00000 
-1.67152e-02  1.27347e-01        00000 
-4.03438e-02  1.28917e-01        00000 
-6.38738e-02  1.31102e-01        00000 
-8.73014e-02  1.33879e-01        00000 
-1.10630e-01  1.37218e-01        00000 
-1.33872e-01  1.41085e-01        00000 
-1.57047e-01  1.45449e-01        00000 
-1.80187e-01  1.50277e-01        00000 
-2.03330e-01  1.55545e-01        00000 
-2.26522e-01  1.61235e-01        00000 
-2.49819e-01  1.67343e-01        00000 
-2.73284e-01  1.73884e-01        00000 
-2.96987e-01  1.80891e-01        00000 
-3.21008e-01  1.88422e-01        00000 
-3.45438e-01  1.96563e-01        00000 
-3.70383e-01  2.05426e-01        00000 
 3.54059e-01  2.26048e-01        00000 
 3.26158e-01  2.18951e-01        00000 
 2.98741e-01  2.12598e-01        00000 
 2.71668e-01  2.06926e-01        00000 
 2.44833e-01  2.01890e-01        00000 
 2.18152e-01  1.97460e-01        00000 
 1.91563e-01  1.93618e-01        00000 
 1.65026e-01  1.90362e-01        00000 
 1.38513e-01  1.87696e-01        00000 
 1.12016e-01  1.85632e-01        00000 
 8.55366e-02  1.84183e-01        00000 
 5.90872e-02  1.83362e-01        00000 
 3.26887e-02  1.83180e-01        00000 
 6.36705e-03  1.83639e-01        00000 
-1.98499e-02  1.84737e-01        00000 
-4.59357e-02  1.86457e-01        00000 
-7.18686e-02  1.88779e-01        00000 
-9.76350e-02  1.91668e-01        00000 
-1.23233e-01  1.95086e-01        00000 
-1.48673e-01  1.98987e-01        00000 
-1.73983e-01  2.03323e-01        00000 
-1.99206e-01  2.08050e-01        00000 
-2.24406e-01  2.13128e-01        00000 
-2.49661e-01  2.18527e-01        00000 
-2.75068e-01  2.24231e-01        00000 
-3.00741e-01  2.30244e-01        00000 
-3.26808e-01  2.36592e-01        00000 
-3.53415e-01  2.43325e-01        00000 
-3.80722e-01  2.50521e-01        00000 
-4.08907e-01  2.58287e-01        00000 
 3.84715e-01  2.84417e-01        00000 
 3.53855e-01  2.78409e-01        00000 
 3.23681e-01  2.72970e-01        00000 
 2.94015e-01  2.68054e-01        00000 
 2.64712e-01  2.63632e-01        00000 
 2.35650e-01  2.59690e-01        00000 
 2.06736e-01  2.56229e-01        00000 
 1.77899e-01  2.53262e-01        00000 
 1.49091e-01  2.50813e-01        00000 
 1.20288e-01  2.48912e-01        00000 
 9.14860e-02  2.47591e-01        00000 
 6.27005e-02  2.46880e-01        00000 
 3.39608e-02  2.46802e-01        00000 
 5.30753e-03  2.47373e-01        00000 
-2.32127e-02  2.48593e-01        00000 
-5.15526e-02  2.50450e-01        00000 
-7.96700e-02  2.52917e-01        00000 
-1.07534e-01  2.55952e-01        00000 
-1.35128e-01  2.59501e-01        00000 
-1.62460e-01  2.63501e-01        00000 
-1.89558e-01  2.67883e-01        00000 
-2.16480e-01  2.72580e-01        00000 
-2.43313e-01  2.77527e-01        00000 
-2.70169e-01  2.82670e-01        00000 
-2.97193e-01  2.87974e-01        00000 
-3.24552e-01  2.93422e-01        00000 
-3.52437e-01  2.99022e-01        00000 
-3.81061e-01  3.04812e-01        00000 
-4.10656e-01  3.10856e-01        00000 
-4.41469e-01  3.17252e-01        00000 
 4.09531e-01  3.48048e-01        00000 
 3.76386e-01  3.43339e-01        00000 
 3.44090e-01  3.38967e-01        00000 
 3.12430e-01  3.34901e-01        00000 
 2.81220e-01  3.31129e-01        00000 
 2.50299e-01  3.27657e-01        00000 
 2.19533e-01  3.24510e-01        00000 
 1.88821e-01  3.21729e-01        00000 
 1.58092e-01  3.19365e-01        00000 
 1.27308e-01  3.17481e-01        00000 
 9.64608e-02  3.16138e-01        00000 
 6.55738e-02  3.15394e-01        00000 
 3.46936e-02  3.15298e-01        00000 
 3.88655e-03  3.15881e-01        00000 
-2.67693e-02  3.17159e-01        00000 
-5.71920e-02  3.19123e-01        00000 
-8.73049e-02  3.21742e-01        00000 
-1.17045e-01  3.24965e-01        00000 
-1.46372e-01  3.28717e-01        00000 
-1.75276e-01  3.32910e-01        00000 
-2.03782e-01  3.37446e-01        00000 
-2.31957e-01  3.42220e-01        00000 
-2.59909e-01  3.47133e-01        00000 
-2.87791e-01  3.52096e-01        00000 
-3.15794e-01  3.57036e-01        00000 
-3.44150e-01  3.61908e-01        00000 
-3.73121e-01  3.66694e-01        00000 
-4.02994e-01  3.71409e-01        00000 
-4.34079e-01  3.76102e-01        00000 
-4.66701e-01  3.80858e-01        00000 
 4.27428e-01  4.15383e-01        00000 
 3.92834e-01  4.12180e-01        00000 
 3.59228e-01  4.09016e-01        00000 
 3.26353e-01  4.05870e-01        00000 
 2.93972e-01  4.02748e-01        00000 
 2.61871e-01  3.99682e-01        00000 
 2.29869e-01  3.96727e-01        00000 
 1.97824e-01  3.93962e-01        00000 
 1.65636e-01  3.91484e-01        00000 
 1.33251e-01  3.89398e-01        00000 
 1.00662e-01  3.87812e-01        00000 
 6.79062e-02  3.86826e-01        00000 
 3.50613e-02  3.86526e-01        00000 
 2.23475e-03  3.86975e-01        00000 
-3.04448e-02  3.88207e-01        00000 
-6.28398e-02  3.90224e-01        00000 
-9.48171e-02  3.92994e-01        00000 
-1.26261e-01  3.96450e-01        00000 
-1.57087e-01  4.00495e-01        00000 
-1.87251e-01  4.05004e-01        00000 
-2.16764e-01  4.09837e-01        00000 
-2.45691e-01  4.14840e-01        00000 
-2.74163e-01  4.19863e-01        00000 
-3.02370e-01  4.24763e-01        00000 
-3.30564e-01  4.29421e-01        00000 
-3.59046e-01  4.33745e-01        00000 
-3.88165e-01  4.37679e-01        00000 
-4.18301e-01  4.41210e-01        00000 
-4.49854e-01  4.44367e-01        00000 
-4.83239e-01  4.47222e-01        00000 
 4.37312e-01  4.84542e-01        00000 
 4.02292e-01  4.83053e-01        00000 
 3.68391e-01  4.81224e-01        00000 
 3.35290e-01  4.79042e-01        00000 
 3.02678e-01  4.76528e-01        00000 
 2.70268e-01  4.73744e-01        00000 
 2.37810e-01  4.70789e-01        00000 
 2.05105e-01  4.67794e-01        00000 
 1.72014e-01  4.64915e-01        00000 
 1.38466e-01  4.62322e-01        00000 
 1.04456e-01  4.60185e-01        00000 
 7.00475e-02  4.58666e-01        00000 
 3.53647e-02  4.57905e-01        00000 
 5.79479e-04  4.58008e-01        00000 
-3.41019e-02  4.59042e-01        00000 
-6.84561e-02  4.61025e-01        00000 
-1.02262e-01  4.63924e-01        00000 
-1.35321e-01  4.67657e-01        00000 
-1.67474e-01  4.72094e-01        00000 
-1.98623e-01  4.77068e-01        00000 
-2.28739e-01  4.82377e-01        00000 
-2.57879e-01  4.87806e-01        00000 
-2.86187e-01  4.93132e-01        00000 
-3.13896e-01  4.98143e-01        00000 
-3.41324e-01  5.02650e-01        00000 
-3.68863e-01  5.06499e-01        00000 
-3.96966e-01  5.09584e-01        00000 
-4.26131e-01  5.11851e-01        00000 
-4.56879e-01  5.13304e-01        00000 
-4.89736e-01  5.14002e-01        00000 
 4.38033e-01  5.53276e-01        00000 
 4.03837e-01  5.53716e-01        00000 
 3.70910e-01  5.53340e-01        00000 
 3.38831e-01  5.52133e-01        00000 
 3.07178e-01  5.50136e-01        00000 
 2.75554e-01  5.47450e-01        00000 
 2.43611e-01  5.44229e-01        00000 
 2.11070e-01  5.40674e-01        00000 
 1.77738e-01  5.37019e-01        00000 
 1.43518e-01  5.33520e-01        00000 
 1.08416e-01  5.30434e-01        00000 
 7.25337e-02  5.28003e-01        00000 
 3.60638e-02  5.26443e-01        00000 
-7.26721e-04  5.25919e-01        00000 
-3.75169e-02  5.26543e-01        00000 
-7.39569e-02  5.28357e-01        00000 
-1.09695e-01  5.31333e-01        00000 
-1.44406e-01  5.35369e-01        00000 
-1.77819e-01  5.40299e-01        00000 
-2.09744e-01  5.45896e-01        00000 
-2.40090e-01  5.51888e-01        00000 
-2.68882e-01  5.57974e-01        00000 
-2.96272e-01  5.63840e-01        00000 
-3.22535e-01  5.69181e-01        00000 
-3.48068e-01  5.73717e-01        00000 
-3.73374e-01  5.77214e-01        00000 
-3.99044e-01  5.79494e-01        00000 
-4.25727e-01  5.80452e-01        00000 
-4.54103e-01  5.80057e-01        00000 
-4.84851e-01  5.78354e-01        00000 
 4.28340e-01  6.18862e-01        00000 
 3.96520e-01  6.21461e-01        00000 
 3.66155e-01  6.22645e-01        00000 
 3.36663e-01  6.22398e-01        00000 
 3.07455e-01  6.20788e-01        00000 
 2.77975e-01  6.17964e-01        00000 
 2.47735e-01  6.14154e-01        00000 
 2.16348e-01  6.09646e-01        00000 
 1.83546e-01  6.04775e-01        00000 
 1.49203e-01  5.99904e-01        00000 
 1.13336e-01  5.95397e-01        00000 
 7.61032e-02  5.91604e-01        00000 
 3.77957e-02  5.88833e-01        00000 
-1.18582e-03  5.87332e-01        00000 
-4.03586e-02  5.87270e-01        00000 
-7.91922e-02  5.88725e-01        00000 
-1.17148e-01  5.91677e-01        00000 
-1.53718e-01  5.96006e-01        00000 
-1.88467e-01  6.01499e-01        00000 
-2.21067e-01  6.07861e-01        00000 
-2.51329e-01  6.14730e-01        00000 
-2.79221e-01  6.21703e-01        00000 
-3.04887e-01  6.28353e-01        00000 
-3.28646e-01  6.34260e-01        00000 
-3.50986e-01  6.39033e-01        00000 
-3.72545e-01  6.42332e-01        00000 
-3.94086e-01  6.43889e-01        00000 
-4.16458e-01  6.43527e-01        00000 
-4.40556e-01  6.41168e-01        00000 
-4.67272e-01  6.36835e-01        00000 
 4.06861e-01  6.77932e-01        00000 
 3.79371e-01  6.82931e-01        00000 
 3.53555e-01  6.85777e-01        00000 
 3.28586e-01  6.86462e-01        00000 
 3.03638e-01  6.85094e-01        00000 
 2.77939e-01  6.81894e-01        00000 
 2.50818e-01  6.77174e-01        00000 
 2.21746e-01  6.71328e-01        00000 
 1.90362e-01  6.64806e-01        00000 
 1.56500e-01  6.58093e-01        00000 
 1.20192e-01  6.51683e-01        00000 
 8.16726e-02  6.46052e-01        00000 
 4.13638e-02  6.41624e-01        00000 
-1.53109e-04  6.38746e-01        00000 
-4.21741e-02  6.37667e-01        00000 
-8.39202e-02  6.38510e-01        00000 
-1.24593e-01  6.41271e-01        00000 