<?xml version="1.0" encoding="utf-8"?>
<VTKFile byte_order="LittleEndian" type="UnstructuredGrid" version="0.1">
   <UnstructuredGrid>
      <Piece NumberOfCells="13440" NumberOfPoints="7658">
         <Points>
            <DataArray Name="Points" NumberOfComponents="3" format="ascii" type="Float32">
0.0000 0.0909 0.0000
0.0000 0.1818 0.0000
0.0000 0.2727 0.0000
0.0000 0.3636 0.0000
0.0000 0.4545 0.0000
0.0000 0.5455 0.0000
0.0000 0.6364 0.0000
0.0000 0.7273 0.0000
0.0000 0.8182 0.0000
0.0000 0.9091 0.0000
0.0000 1.0000 0.0000
0.0909 0.0909 0.0000
0.0909 0.1818 0.0000
0.0909 0.2727 0.0000
0.0909 0.3636 0.0000
0.0909 0.4545 0.0000
0.0909 0.5455 0.0000
0.0909 0.6364 0.0000
0.0909 0.7273 0.0000
0.0909 0.8182 0.0000
0.0909 0.9091 0.0000
0.0909 1.0000 0.0000
0.1818 0.0909 0.0000
0.1818 0.1818 0.0000
0.1818 0.2727 0.0000
0.1818 0.3636 0.0000
0.1818 0.4545 0.0000
0.1818 0.5455 0.0000
0.1818 0.6364 0.0000
0.1818 0.7273 0.0000
0.1818 0.8182 0.0000
0.1818 0.9091 0.0000
0.1818 1.0000 0.0000
0.2727 0.0909 0.0000
0.2727 0.1818 0.0000
0.2727 0.2727 0.0000
0.2727 0.3636 0.0000
0.2727 0.7273 0.0000
0.2727 0.8182 0.0000
0.2727 0.9091 0.0000
0.2727 1.0000 0.0000
0.3636 0.0909 0.0000
0.3636 0.1818 0.0000
0.3636 0.2727 0.0000
0.3636 0.8182 0.0000
0.3636 0.9091 0.0000
0.3636 1.0000 0.0000
0.4545 0.0909 0.0000
0.4545 0.1818 0.0000
0.4545 0.9091 0.0000
0.4545 1.0000 0.0000
0.5455 0.0909 0.0000
0.5455 0.1818 0.0000
0.5455 0.9091 0.0000
0.5455 1.0000 0.0000
0.6364 0.0909 0.0000
0.6364 0.1818 0.0000
0.6364 0.2727 0.0000
0.6364 0.8182 0.0000
0.6364 0.9091 0.0000
0.6364 1.0000 0.0000
0.7273 0.0909 0.0000
0.7273 0.1818 0.0000
0.7273 0.2727 0.0000
0.7273 0.3636 0.0000
0.7273 0.7273 0.0000
0.7273 0.8182 0.0000
0.7273 0.9091 0.0000
0.7273 1.0000 0.0000
0.8182 0.0909 0.0000
0.8182 0.1818 0.0000
0.8182 0.2727 0.0000
0.8182 0.3636 0.0000
0.8182 0.4545 0.0000
0.8182 0.5455 0.0000
0.8182 0.6364 0.0000
0.8182 0.7273 0.0000
0.8182 0.8182 0.0000
0.8182 0.9091 0.0000
0.8182 1.0000 0.0000
0.9091 0.0909 0.0000
0.9091 0.1818 0.0000
0.9091 0.2727 0.0000
0.9091 0.3636 0.0000
0.9091 0.4545 0.0000
0.9091 0.5455 0.0000
0.9091 0.6364 0.0000
0.9091 0.7273 0.0000
0.9091 0.8182 0.0000
0.9091 0.9091 0.0000
0.9091 1.0000 0.0000
0.2727 0.6364 0.0000
0.3636 0.7273 0.0000
0.4545 0.8182 0.0000
0.5455 0.8182 0.0000
1.0000 0.0909 0.0000
1.0000 0.1818 0.0000
1.0000 0.2727 0.0000
1.0000 0.3636 0.0000
1.0000 0.4545 0.0000
1.0000 0.5455 0.0000
1.0000 0.6364 0.0000
1.0000 0.7273 0.0000
1.0000 0.8182 0.0000
1.0000 0.9091 0.0000
1.0000 1.0000 0.0000
0.0909 0.0000 0.0000
0.1818 0.0000 0.0000
0.2727 0.0000 0.0000
0.3636 0.0000 0.0000
0.4545 0.0000 0.0000
0.5455 0.0000 0.0000
0.6364 0.0000 0.0000
0.6364 0.7273 0.0000
0.7273 0.0000 0.0000
0.7273 0.6364 0.0000
0.8182 0.0000 0.0000
0.9091 0.0000 0.0000
1.0000 0.0000 0.0000
0.0000 0.0000 0.0000
0.0455 0.0455 0.0000
0.0455 0.1364 0.0000
0.0455 0.2273 0.0000
0.0455 0.3182 0.0000
0.0455 0.4091 0.0000
0.0455 0.5000 0.0000
0.0455 0.5909 0.0000
0.0455 0.6818 0.0000
0.0455 0.7727 0.0000
0.0455 0.8636 0.0000
0.0455 0.9545 0.0000
0.1364 0.0455 0.0000
0.1364 0.1364 0.0000
0.1364 0.2273 0.0000
0.1364 0.3182 0.0000
0.1364 0.4091 0.0000
0.1364 0.5000 0.0000
0.1364 0.5909 0.0000
0.1364 0.6818 0.0000
0.1364 0.7727 0.0000
0.1364 0.8636 0.0000
0.1364 0.9545 0.0000
0.2273 0.0455 0.0000
0.2273 0.1364 0.0000
0.2273 0.2273 0.0000
0.2273 0.3182 0.0000
0.2273 0.4091 0.0000
0.2273 0.5000 0.0000
0.2273 0.5909 0.0000
0.2273 0.6818 0.0000
0.2273 0.7727 0.0000
0.2273 0.8636 0.0000
0.2273 0.9545 0.0000
0.3182 0.0455 0.0000
0.3182 0.1364 0.0000
0.3182 0.2273 0.0000
0.3182 0.3182 0.0000
0.3182 0.6818 0.0000
0.3182 0.7727 0.0000
0.3182 0.8636 0.0000
0.3182 0.9545 0.0000
0.4091 0.0455 0.0000
0.4091 0.1364 0.0000
0.4091 0.2273 0.0000
0.4091 0.7727 0.0000
0.4091 0.8636 0.0000
0.4091 0.9545 0.0000
0.5000 0.0455 0.0000
0.5000 0.1364 0.0000
0.5000 0.8636 0.0000
0.5000 0.9545 0.0000
0.5909 0.0455 0.0000
0.5909 0.1364 0.0000
0.5909 0.8636 0.0000
0.5909 0.9545 0.0000
0.6818 0.0455 0.0000
0.6818 0.1364 0.0000
0.6818 0.2273 0.0000
0.6818 0.7727 0.0000
0.6818 0.8636 0.0000
0.6818 0.9545 0.0000
0.7727 0.0455 0.0000
0.7727 0.1364 0.0000
0.7727 0.2273 0.0000
0.7727 0.3182 0.0000
0.7727 0.6818 0.0000
0.7727 0.7727 0.0000
0.7727 0.8636 0.0000
0.7727 0.9545 0.0000
0.8636 0.0455 0.0000
0.8636 0.1364 0.0000
0.8636 0.2273 0.0000
0.8636 0.3182 0.0000
0.8636 0.4091 0.0000
0.8636 0.5000 0.0000
0.8636 0.5909 0.0000
0.8636 0.6818 0.0000
0.8636 0.7727 0.0000
0.8636 0.8636 0.0000
0.8636 0.9545 0.0000
0.9545 0.0455 0.0000
0.9545 0.1364 0.0000
0.9545 0.2273 0.0000
0.9545 0.3182 0.0000
0.9545 0.4091 0.0000
0.9545 0.5000 0.0000
0.9545 0.5909 0.0000
0.9545 0.6818 0.0000
0.9545 0.7727 0.0000
0.9545 0.8636 0.0000
0.9545 0.9545 0.0000
0.5000 0.7727 0.0000
0.5909 0.7727 0.0000
0.6818 0.6818 0.0000
0.7727 0.5909 0.0000
0.5909 0.2273 0.0000
0.6818 0.3182 0.0000
0.7727 0.4091 0.0000
0.7727 0.5000 0.0000
0.5000 0.2273 0.0000
0.2536 0.4545 0.0000
0.2536 0.5455 0.0000
0.2727 0.3972 0.0000
0.2895 0.3636 0.0000
0.2826 0.3735 0.0000
0.2568 0.4386 0.0000
0.2507 0.4766 0.0000
0.2727 0.6028 0.0000
0.2507 0.5234 0.0000
0.2568 0.5614 0.0000
0.2895 0.6364 0.0000
0.2826 0.6265 0.0000
0.3636 0.2895 0.0000
0.3972 0.2727 0.0000
0.3735 0.2826 0.0000
0.3224 0.3224 0.0000
0.3636 0.7105 0.0000
0.3224 0.6776 0.0000
0.3972 0.7273 0.0000
0.3735 0.7174 0.0000
0.4545 0.2536 0.0000
0.4386 0.2568 0.0000
0.4766 0.2507 0.0000
0.4545 0.7464 0.0000
0.4386 0.7432 0.0000
0.4766 0.7493 0.0000
0.5455 0.2536 0.0000
0.6028 0.2727 0.0000
0.5234 0.2507 0.0000
0.5614 0.2568 0.0000
0.5455 0.7464 0.0000
0.6028 0.7273 0.0000
0.5234 0.7493 0.0000
0.5614 0.7432 0.0000
0.6364 0.2895 0.0000
0.6265 0.2826 0.0000
0.7105 0.3636 0.0000
0.6776 0.3224 0.0000
0.6364 0.7105 0.0000
0.7105 0.6364 0.0000
0.6776 0.6776 0.0000
0.6265 0.7174 0.0000
0.7273 0.3972 0.0000
0.7174 0.3735 0.0000
0.7464 0.4545 0.0000
0.7432 0.4386 0.0000
0.7493 0.4766 0.0000
0.7273 0.6028 0.0000
0.7464 0.5455 0.0000
0.7493 0.5234 0.0000
0.7432 0.5614 0.0000
0.7174 0.6265 0.0000
1.0909 0.0909 0.0000
1.0909 0.1818 0.0000
1.0909 0.2727 0.0000
1.0909 0.3636 0.0000
1.0909 0.4545 0.0000
1.0909 0.5455 0.0000
1.0909 0.6364 0.0000
1.0909 0.7273 0.0000
1.0909 0.8182 0.0000
1.0909 0.9091 0.0000
1.0909 1.0000 0.0000
1.1818 0.0909 0.0000
1.1818 0.1818 0.0000
1.1818 0.2727 0.0000
1.1818 0.3636 0.0000
1.1818 0.4545 0.0000
1.1818 0.5455 0.0000
1.1818 0.6364 0.0000
1.1818 0.7273 0.0000
1.1818 0.8182 0.0000
1.1818 0.9091 0.0000
1.1818 1.0000 0.0000
1.2727 0.0909 0.0000
1.2727 0.1818 0.0000
1.2727 0.2727 0.0000
1.2727 0.3636 0.0000
1.2727 0.7273 0.0000
1.2727 0.8182 0.0000
1.2727 0.9091 0.0000
1.2727 1.0000 0.0000
1.3636 0.0909 0.0000
1.3636 0.1818 0.0000
1.3636 0.2727 0.0000
1.3636 0.8182 0.0000
1.3636 0.9091 0.0000
1.3636 1.0000 0.0000
1.4545 0.0909 0.0000
1.4545 0.1818 0.0000
1.4545 0.9091 0.0000
1.4545 1.0000 0.0000
1.5455 0.0909 0.0000
1.5455 0.1818 0.0000
1.5455 0.9091 0.0000
1.5455 1.0000 0.0000
1.6364 0.0909 0.0000
1.6364 0.1818 0.0000
1.6364 0.2727 0.0000
1.6364 0.8182 0.0000
1.6364 0.9091 0.0000
1.6364 1.0000 0.0000
1.7273 0.0909 0.0000
1.7273 0.1818 0.0000
1.7273 0.2727 0.0000
1.7273 0.3636 0.0000
1.7273 0.7273 0.0000
1.7273 0.8182 0.0000
1.7273 0.9091 0.0000
1.7273 1.0000 0.0000
1.8182 0.0909 0.0000
1.8182 0.1818 0.0000
1.8182 0.2727 0.0000
1.8182 0.3636 0.0000
1.8182 0.4545 0.0000
1.8182 0.5455 0.0000
1.8182 0.6364 0.0000
1.8182 0.7273 0.0000
1.8182 0.8182 0.0000
1.8182 0.9091 0.0000
1.8182 1.0000 0.0000
1.9091 0.0909 0.0000
1.9091 0.1818 0.0000
1.9091 0.2727 0.0000
1.9091 0.3636 0.0000
1.9091 0.4545 0.0000
1.9091 0.5455 0.0000
1.9091 0.6364 0.0000
1.9091 0.7273 0.0000
1.9091 0.8182 0.0000
1.9091 0.9091 0.0000
1.9091 1.0000 0.0000
1.2727 0.6364 0.0000
1.3636 0.7273 0.0000
1.4545 0.8182 0.0000
1.5455 0.8182 0.0000
2.0000 0.0909 0.0000
2.0000 0.1818 0.0000
2.0000 0.2727 0.0000
2.0000 0.3636 0.0000
2.0000 0.4545 0.0000
2.0000 0.5455 0.0000
2.0000 0.6364 0.0000
2.0000 0.7273 0.0000
2.0000 0.8182 0.0000
2.0000 0.9091 0.0000
2.0000 1.0000 0.0000
1.0909 0.0000 0.0000
1.1818 0.0000 0.0000
1.2727 0.0000 0.0000
1.3636 0.0000 0.0000
1.4545 0.0000 0.0000
1.5455 0.0000 0.0000
1.6364 0.0000 0.0000
1.6364 0.7273 0.0000
1.7273 0.0000 0.0000
1.7273 0.6364 0.0000
1.8182 0.0000 0.0000
1.9091 0.0000 0.0000
2.0000 0.0000 0.0000
1.0455 0.0455 0.0000
1.0455 0.1364 0.0000
1.0455 0.2273 0.0000
1.0455 0.3182 0.0000
1.0455 0.4091 0.0000
1.0455 0.5000 0.0000
1.0455 0.5909 0.0000
1.0455 0.6818 0.0000
1.0455 0.7727 0.0000
1.0455 0.8636 0.0000
1.0455 0.9545 0.0000
1.1364 0.0455 0.0000
1.1364 0.1364 0.0000
1.1364 0.2273 0.0000
1.1364 0.3182 0.0000
1.1364 0.4091 0.0000
1.1364 0.5000 0.0000
1.1364 0.5909 0.0000
1.1364 0.6818 0.0000
1.1364 0.7727 0.0000
1.1364 0.8636 0.0000
1.1364 0.9545 0.0000
1.2273 0.0455 0.0000
1.2273 0.1364 0.0000
1.2273 0.2273 0.0000
1.2273 0.3182 0.0000
1.2273 0.4091 0.0000
1.2273 0.5000 0.0000
1.2273 0.5909 0.0000
1.2273 0.6818 0.0000
1.2273 0.7727 0.0000
1.2273 0.8636 0.0000
1.2273 0.9545 0.0000
1.3182 0.0455 0.0000
1.3182 0.1364 0.0000
1.3182 0.2273 0.0000
1.3182 0.3182 0.0000
1.3182 0.6818 0.0000
1.3182 0.7727 0.0000
1.3182 0.8636 0.0000
1.3182 0.9545 0.0000
1.4091 0.0455 0.0000
1.4091 0.1364 0.0000
1.4091 0.2273 0.0000
1.4091 0.7727 0.0000
1.4091 0.8636 0.0000
1.4091 0.9545 0.0000
1.5000 0.0455 0.0000
1.5000 0.1364 0.0000
1.5000 0.8636 0.0000
1.5000 0.9545 0.0000
1.5909 0.0455 0.0000
1.5909 0.1364 0.0000
1.5909 0.8636 0.0000
1.5909 0.9545 0.0000
1.6818 0.0455 0.0000
1.6818 0.1364 0.0000
1.6818 0.2273 0.0000
1.6818 0.7727 0.0000
1.6818 0.8636 0.0000
1.6818 0.9545 0.0000
1.7727 0.0455 0.0000
1.7727 0.1364 0.0000
1.7727 0.2273 0.0000
1.7727 0.3182 0.0000
1.7727 0.6818 0.0000
1.7727 0.7727 0.0000
1.7727 0.8636 0.0000
1.7727 0.9545 0.0000
1.8636 0.0455 0.0000
1.8636 0.1364 0.0000
1.8636 0.2273 0.0000
1.8636 0.3182 0.0000
1.8636 0.4091 0.0000
1.8636 0.5000 0.0000
1.8636 0.5909 0.0000
1.8636 0.6818 0.0000
1.8636 0.7727 0.0000
1.8636 0.8636 0.0000
1.8636 0.9545 0.0000
1.9545 0.0455 0.0000
[...]
         <PointData>
            <DataArray Name="fValues" NumberOfComponents="3" format="ascii" type="Float64">
-6.06472e-04  8.91710e-04        00000 
-1.94206e-03 -2.08055e-04        00000 
-2.64960e-03 -9.27137e-04        00000 
-2.43814e-03 -1.17508e-03        00000 
-1.30557e-03 -9.64824e-04        00000 
 2.96286e-04 -4.42819e-04        00000 
 1.66094e-03  2.04937e-04        00000 
 2.27455e-03  8.58183e-04        00000 
 2.05248e-03  1.49445e-03        00000 
 1.21203e-03  2.15486e-03        00000 
 4.21185e-17  1.44834e-03        00000 
 2.32121e-03  2.58721e-03        00000 
 5.02263e-04  1.43020e-03        00000 
-9.27143e-04  6.54730e-04        00000 
-1.52119e-03  4.23167e-04        00000 
-9.70098e-04  6.84838e-04        00000 
 4.12848e-04  1.18055e-03        00000 
 1.74433e-03  1.69413e-03        00000 
 2.32180e-03  2.21674e-03        00000 
 2.02472e-03  2.79352e-03        00000 
 1.08263e-03  3.43656e-03        00000 
 3.56419e-16  2.07487e-03        00000 
 5.24273e-03  4.49154e-03        00000 
 2.88434e-03  3.29632e-03        00000 
 5.91393e-04  2.37407e-03        00000 
-1.00806e-03  1.95485e-03        00000 
-9.55821e-04  2.11586e-03        00000 
 6.07528e-04  2.55472e-03        00000 
 2.16940e-03  3.08953e-03        00000 
 2.70948e-03  3.64469e-03        00000 
 2.22865e-03  4.21996e-03        00000 
 1.08258e-03  4.83325e-03        00000 
 6.87993e-16  2.73360e-03        00000 
 8.18138e-03  7.00816e-03        00000 
 5.33739e-03  5.84458e-03        00000 
 2.04940e-03  4.75056e-03        00000 
-7.75318e-04  3.92417e-03        00000 
 3.39674e-03  5.39645e-03        00000 
 2.65054e-03  6.05556e-03        00000 
 1.22050e-03  6.63695e-03        00000 
 1.01979e-15  3.57756e-03        00000 
 1.11028e-02  1.04865e-02        00000 
 7.96930e-03  9.57387e-03        00000 
 3.49322e-03  8.67039e-03        00000 
 3.32352e-03  8.71264e-03        00000 
 1.48977e-03  9.17181e-03        00000 
 1.35897e-15  4.76518e-03        00000 
 1.39492e-02  1.49392e-02        00000 
 1.08129e-02  1.44267e-02        00000 
 1.89491e-03  1.26142e-02        00000 
 1.72567e-15  6.38955e-03        00000 
 1.67064e-02  1.98860e-02        00000 
 1.39350e-02  1.96435e-02        00000 
 2.40856e-03  1.67927e-02        00000 
 2.05353e-15  8.39277e-03        00000 
 1.95415e-02  2.47225e-02        00000 
 1.69718e-02  2.42869e-02        00000 
 1.57306e-02  2.40048e-02        00000 
 6.07311e-03  2.15582e-02        00000 
 2.96147e-03  2.12472e-02        00000 
 2.41118e-15  1.05806e-02        00000 
 2.25821e-02  2.91881e-02        00000 
 1.99883e-02  2.82028e-02        00000 
 1.84348e-02  2.75154e-02        00000 
 1.83674e-02  2.75218e-02        00000 
 1.01808e-02  2.61849e-02        00000 
 6.66738e-03  2.58269e-02        00000 
 3.44072e-03  2.55515e-02        00000 
 2.79083e-15  1.27445e-02        00000 
 2.58343e-02  3.33401e-02        00000 
 2.29734e-02  3.19032e-02        00000 
 2.08190e-02  3.07866e-02        00000 
 1.94269e-02  3.01481e-02        00000 
 1.81381e-02  3.00282e-02        00000 
 1.61945e-02  3.00348e-02        00000 
 1.35321e-02  2.99956e-02        00000 
 1.03706e-02  2.98683e-02        00000 
 7.05774e-03  2.96856e-02        00000 
 3.80355e-03  2.95367e-02        00000 
 3.19920e-15  1.47670e-02        00000 
 2.91899e-02  3.72828e-02        00000 
 2.59344e-02  3.55880e-02        00000 
 2.31077e-02  3.42712e-02        00000 
 2.07177e-02  3.34576e-02        00000 
 1.85239e-02  3.31536e-02        00000 
 1.61743e-02  3.31875e-02        00000 
 1.34875e-02  3.32944e-02        00000 
 1.04934e-02  3.33258e-02        00000 
 7.32009e-03  3.32726e-02        00000 
 4.07759e-03  3.32178e-02        00000 
 3.62353e-15  1.66277e-02        00000 
 2.71192e-03  4.38218e-03        00000 
 4.60401e-03  8.30854e-03        00000 
 4.23716e-03  1.24528e-02        00000 
 5.25918e-03  1.69477e-02        00000 
 9.17004e-03  1.24495e-02        00000 
 1.34318e-02  1.94238e-02        00000 
 1.17887e-02  1.88597e-02        00000 
 1.04400e-02  1.85024e-02        00000 
 9.38404e-03  1.83506e-02        00000 
 8.47470e-03  1.83418e-02        00000 
 7.48557e-03  1.83961e-02        00000 
 6.25265e-03  1.84632e-02        00000 
 4.74942e-03  1.85379e-02        00000 
 3.04592e-03  1.86392e-02        00000 
 7.89139e-15  3.75772e-02        00000 
 4.17017e-03  3.94823e-03        00000 
 7.37122e-03  5.75730e-03        00000 
 1.05559e-02  8.03108e-03        00000 
 1.36341e-02  1.11260e-02        00000 
 1.65615e-02  1.52225e-02        00000 
 1.94471e-02  2.01308e-02        00000 
 2.24654e-02  2.53537e-02        00000 
 9.93303e-03  2.19369e-02        00000 
 2.57305e-02  3.04005e-02        00000 
 1.35670e-02  2.65577e-02        00000 
 2.91957e-02  3.50305e-02        00000 
 3.27605e-02  3.92426e-02        00000 
 1.72154e-02  2.09921e-02        00000 
 1.00497e-03  2.24747e-03        00000 
 1.72181e-03  2.38897e-03        00000 
 6.15802e-05  1.11485e-03        00000 
-1.26118e-03  1.47201e-04        00000 
-1.88197e-03 -3.56769e-04        00000 
-1.55232e-03 -3.30660e-04        00000 
-3.94922e-04  8.70714e-05        00000 
 1.01183e-03  6.55052e-04        00000 
 1.98408e-03  1.23898e-03        00000 
 2.16095e-03  1.83135e-03        00000 
 1.59079e-03  2.45714e-03        00000 
 5.35653e-04  3.14521e-03        00000 
 4.78824e-03  4.16113e-03        00000 
 2.73286e-03  2.88389e-03        00000 
 7.44365e-04  1.83089e-03        00000 
-7.39707e-04  1.22603e-03        00000 
-1.12637e-03  1.23232e-03        00000 
-2.33492e-04  1.65654e-03        00000 
 1.23618e-03  2.15853e-03        00000 
 2.24032e-03  2.65660e-03        00000 
 2.32098e-03  3.19576e-03        00000 
 1.60093e-03  3.79532e-03        00000 
 3.90246e-04  4.44875e-03        00000 
 7.86816e-03  6.29127e-03        00000 
 5.41542e-03  5.09945e-03        00000 
 2.69416e-03  3.94200e-03        00000 
 1.63460e-04  3.09776e-03        00000 
-1.13564e-03  2.64820e-03        00000 
-2.33835e-04  2.46059e-03        00000 
 1.62750e-03  3.24883e-03        00000 
 2.80427e-03  4.14631e-03        00000 
 2.75683e-03  4.79600e-03        00000 
 1.79158e-03  5.40093e-03        00000 
 3.52865e-04  5.99519e-03        00000 
 1.09165e-02  9.14335e-03        00000 
 8.17908e-03  8.19210e-03        00000 
 4.73615e-03  7.06134e-03        00000 
 8.40336e-04  6.22157e-03        00000 
 3.58019e-03  6.38521e-03        00000 
 3.46183e-03  7.05151e-03        00000 
 2.15581e-03  7.59378e-03        00000 
 4.37626e-04  8.09482e-03        00000 
 1.38564e-02  1.29335e-02        00000 
 1.10086e-02  1.23562e-02        00000 
 7.03479e-03  1.15084e-02        00000 
 4.71408e-03  1.03995e-02        00000 
 2.69911e-03  1.06743e-02        00000 
 6.51562e-04  1.09931e-02        00000 
 1.66709e-02  1.75286e-02        00000 
 1.38846e-02  1.72695e-02        00000 
 3.41040e-03  1.46383e-02        00000 
 9.81986e-04  1.47078e-02        00000 
 1.94918e-02  2.25004e-02        00000 
 1.67645e-02  2.21599e-02        00000 
 4.15609e-03  1.91038e-02        00000 
 1.38048e-03  1.89585e-02        00000 
 2.25072e-02  2.73881e-02        00000 
 1.97022e-02  2.65970e-02        00000 
 1.77307e-02  2.59634e-02        00000 
 8.21619e-03  2.39200e-02        00000 
 4.79011e-03  2.35316e-02        00000 
 1.76896e-03  2.33301e-02        00000 
 2.57759e-02  3.19632e-02        00000 
 2.27881e-02  3.06252e-02        00000 
 2.05002e-02  2.95269e-02        00000 
 1.91814e-02  2.88274e-02        00000 
 1.19433e-02  2.81797e-02        00000 
 8.59104e-03  2.79165e-02        00000 
 5.25816e-03  2.76467e-02        00000 
 2.08748e-03  2.75063e-02        00000 
 2.92114e-02  3.61979e-02        00000 
 2.59507e-02  3.44792e-02        00000 
 2.31836e-02  3.30532e-02        00000 
 2.09959e-02  3.20411e-02        00000 
 1.91786e-02  3.15838e-02        00000 
 1.72611e-02  3.15503e-02        00000 
 1.48653e-02  3.16250e-02        00000 
 1.19907e-02  3.16420e-02        00000 
 8.82663e-03  3.15555e-02        00000 
 5.57651e-03  3.14297e-02        00000 
 2.33620e-03  3.13738e-02        00000 
 3.27090e-02  4.01596e-02        00000 
 2.91258e-02  3.82516e-02        00000 
 2.57905e-02  3.66698e-02        00000 
 2.27797e-02  3.55505e-02        00000 
 2.00673e-02  3.49761e-02        00000 
 1.74902e-02  3.48581e-02        00000 
 1.48515e-02  3.49519e-02        00000 
 1.20258e-02  3.50344e-02        00000 
 8.99950e-03  3.50248e-02        00000 
 5.82254e-03  3.49670e-02        00000 
 2.55331e-03  3.49525e-02        00000 
 6.47264e-03  1.47671e-02        00000 
 7.63780e-03  1.94447e-02        00000 
 1.18945e-02  2.42705e-02        00000 
 1.49412e-02  2.84488e-02        00000 
 1.45284e-02  2.18544e-02        00000 
 1.75114e-02  2.58271e-02        00000 
 1.84970e-02  2.87888e-02        00000 
 1.71752e-02  2.87896e-02        00000 
 1.04196e-02  1.67216e-02        00000 
-9.14451e-04  2.61386e-03        00000 
 6.15387e-04  2.75658e-03        00000 
-9.94446e-04  3.55857e-03        00000 
-7.36908e-04  4.62229e-03        00000 
-8.55275e-04  4.14882e-03        00000 
-9.93832e-04  2.76983e-03        00000 
-5.51912e-04  2.44813e-03        00000 
 1.87635e-03  3.72142e-03        00000 
 1.43735e-04  2.49333e-03        00000 
 9.68472e-04  2.93689e-03        00000 
 2.77081e-03  4.79900e-03        00000 
 2.48572e-03  4.36018e-03        00000 
 2.55763e-03  8.65730e-03        00000 
 4.09199e-03  1.05499e-02        00000 
 3.01388e-03  9.17142e-03        00000 
 6.54998e-04  6.42501e-03        00000 
 4.56359e-03  8.25302e-03        00000 
 3.57964e-03  6.48394e-03        00000 
 5.39652e-03  9.94910e-03        00000 
 4.86946e-03  8.78066e-03        00000 
 7.10274e-03  1.37179e-02        00000 
 6.20796e-03  1.27599e-02        00000 
 8.16388e-03  1.50481e-02        00000 
 6.44277e-03  1.26876e-02        00000 
 6.10830e-03  1.19532e-02        00000 
 6.89779e-03  1.37888e-02        00000 
 1.16757e-02  1.89537e-02        00000 
 1.43230e-02  2.21609e-02        00000 
 1.05693e-02  1.76750e-02        00000 
 1.25181e-02  1.97921e-02        00000 
 8.34952e-03  1.72286e-02        00000 
 9.83663e-03  2.01727e-02        00000 
 7.91012e-03  1.60713e-02        00000 
 8.75436e-03  1.80804e-02        00000 
 1.59392e-02  2.40443e-02        00000 
 1.54264e-02  2.34425e-02        00000 
 1.82665e-02  2.71169e-02        00000 
 1.75209e-02  2.57362e-02        00000 
 1.06907e-02  2.19507e-02        00000 
 1.35675e-02  2.58003e-02        00000 
 1.20736e-02  2.40718e-02        00000 
 1.03950e-02  2.14378e-02        00000 
 1.84201e-02  2.77936e-02        00000 
 1.83610e-02  2.74052e-02        00000 
 1.79733e-02  2.82487e-02        00000 
 1.81307e-02  2.82148e-02        00000 
 1.75938e-02  2.83090e-02        00000 
 1.45509e-02  2.67644e-02        00000 
 1.61283e-02  2.78426e-02        00000 
 1.66160e-02  2.80675e-02        00000 
 1.56967e-02  2.76276e-02        00000 
 1.38614e-02  2.61989e-02        00000 
 3.05602e-02  4.36123e-02        00000 
 2.65416e-02  4.24665e-02        00000 
 2.30036e-02  4.15869e-02        00000 
 2.03278e-02  4.10858e-02        00000 
 1.86940e-02  4.09158e-02        00000 
 1.76650e-02  4.08971e-02        00000 
 1.63374e-02  4.09328e-02        00000 
 1.40968e-02  4.10910e-02        00000 
 1.09400e-02  4.14216e-02        00000 
 7.17362e-03  4.18917e-02        00000 
-2.35795e-03  5.30657e-02        00000 
 3.25283e-02  4.79127e-02        00000 
 2.80861e-02  4.67618e-02        00000 
 2.39030e-02  4.57857e-02        00000 
 2.05319e-02  4.51305e-02        00000 
 1.86505e-02  4.48488e-02        00000 
 1.78474e-02  4.47685e-02        00000 
 1.66032e-02  4.48514e-02        00000 
 1.41084e-02  4.51130e-02        00000 
 1.06093e-02  4.55294e-02        00000 
 6.56624e-03  4.60421e-02        00000 
 4.57716e-15  2.32852e-02        00000 
 3.44503e-02  5.28006e-02        00000 
 2.95993e-02  5.17053e-02        00000 
 2.46549e-02  5.06083e-02        00000 
 2.05137e-02  4.95338e-02        00000 
 1.43356e-02  4.94933e-02        00000 
 1.03827e-02  5.01121e-02        00000 
 6.01203e-03  5.06817e-02        00000 
 4.93552e-15  2.55701e-02        00000 
 3.63000e-02  5.86095e-02        00000 
 3.11351e-02  5.77692e-02        00000 
 2.51862e-02  5.69569e-02        00000 
 1.02314e-02  5.56464e-02        00000 
 5.49735e-03  5.61637e-02        00000 
 5.28963e-15  2.82464e-02        00000 
 3.80342e-02  6.53716e-02        00000 
 3.27161e-02  6.49529e-02        00000 
 5.04665e-03  6.26320e-02        00000 
 5.67555e-15  3.13927e-02        00000 
 3.96554e-02  7.26514e-02        00000 
 3.44516e-02  7.25550e-02        00000 
 4.67640e-03  6.97941e-02        00000 
 6.00856e-15  3.49101e-02        00000 
 4.13117e-02  7.98458e-02        00000 
 3.62027e-02  7.96764e-02        00000 
 3.17751e-02  7.96324e-02        00000 
 9.74844e-03  7.72677e-02        00000 
 4.32458e-03  7.70692e-02        00000 
 6.37671e-15  3.85566e-02        00000 
 4.31361e-02  8.66359e-02        00000 
 3.80193e-02  8.60640e-02        00000 
 3.35635e-02  8.57117e-02        00000 
 3.02841e-02  8.58287e-02        00000 
 1.47214e-02  8.42940e-02        00000 
 9.36308e-03  8.40746e-02        00000 
 3.88556e-03  8.40170e-02        00000 
 6.77189e-15  4.20995e-02        00000 
 4.51486e-02  9.30369e-02        00000 
 3.98841e-02  9.20985e-02        00000 
 3.51396e-02  9.13628e-02        00000 
 3.10656e-02  9.08959e-02        00000 
 2.73409e-02  9.07117e-02        00000 
 2.34247e-02  9.05652e-02        00000 
 1.90836e-02  9.04198e-02        00000 
 1.41900e-02  9.03548e-02        00000 
 8.86150e-03  9.03850e-02        00000 
 3.32330e-03  9.05315e-02        00000 
 7.22215e-15  4.54304e-02        00000 
 4.72599e-02  9.91649e-02        00000 
 4.17668e-02  9.80135e-02        00000 
 3.66531e-02  9.70934e-02        00000 
 3.19867e-02  9.64597e-02        00000 
 2.76354e-02  9.61268e-02        00000 
 2.32931e-02  9.60374e-02        00000 
 1.86796e-02  9.60871e-02        00000 
 1.36649e-02  9.62136e-02        00000 
 8.29023e-03  9.64052e-02        00000 
 2.68123e-03  9.66918e-02        00000 
 7.69307e-15  4.85562e-02        00000 
 1.70173e-02  4.86852e-02        00000 
 1.49057e-02  5.51406e-02        00000 
 1.01321e-02  6.23868e-02        00000 
 1.00035e-02  6.98784e-02        00000 
 5.03306e-02  1.28792e-01        00000 
 1.12179e-02  3.20436e-02        00000 
 1.00120e-02  3.19321e-02        00000 
 1.51933e-02  5.10419e-02        00000 
 1.35201e-02  5.09575e-02        00000 
 1.19790e-02  5.09683e-02        00000 
 1.03428e-02  5.10681e-02        00000 
 8.45102e-03  5.12584e-02        00000 
 6.28265e-03  5.15368e-02        00000 
 3.91278e-03  5.18950e-02        00000 
 1.62064e-14  1.04644e-01        00000 
 3.47145e-02  4.49012e-02        00000 
 3.69172e-02  4.90945e-02        00000 
 3.90566e-02  5.37540e-02        00000 
 4.10595e-02  5.92170e-02        00000 
 4.28996e-02  6.56396e-02        00000 
 4.46736e-02  7.28125e-02        00000 
 4.65287e-02  8.02350e-02        00000 
 1.53622e-02  7.75549e-02        00000 
 4.85618e-02  8.74308e-02        00000 
 1.94310e-02  8.47623e-02        00000 
 5.07460e-02  9.41821e-02        00000 
 5.30061e-02  1.00509e-01        00000 
 2.43866e-02  5.23654e-02        00000 
 3.15803e-02  4.21945e-02        00000 
 2.76245e-02  4.09593e-02        00000 
 2.40659e-02  3.99366e-02        00000 
 2.12379e-02  3.92298e-02        00000 
 1.93255e-02  3.88818e-02        00000 
 1.81247e-02  3.87978e-02        00000 
 1.70079e-02  3.88402e-02        00000 
 1.53048e-02  3.89763e-02        00000 
 1.27160e-02  3.92412e-02        00000 
 9.35597e-03  3.96407e-02        00000 
 5.53273e-03  4.01550e-02        00000 
 3.36934e-02  4.63509e-02        00000 
 2.94284e-02  4.51354e-02        00000 
 2.53715e-02  4.40696e-02        00000 
 2.19223e-02  4.33103e-02        00000 
 1.95371e-02  4.29642e-02        00000 
 1.82065e-02  4.28857e-02        00000 
 1.71191e-02  4.28729e-02        00000 
 1.52994e-02  4.29653e-02        00000 
 1.24493e-02  4.32460e-02        00000 
 8.82763e-03  4.36866e-02        00000 
 4.80253e-03  4.42150e-02        00000 
 3.57666e-02  5.08633e-02        00000 
 3.11730e-02  4.97440e-02        00000 
 2.65457e-02  4.86201e-02        00000 
 2.23485e-02  4.76683e-02        00000 
 1.94139e-02  4.68462e-02        00000 
 1.82499e-02  4.61472e-02        00000 
 1.74813e-02  4.64620e-02        00000 
 1.55844e-02  4.70124e-02        00000 
 1.23843e-02  4.75052e-02        00000 
 8.39968e-03  4.80504e-02        00000 
 4.11636e-03  4.85825e-02        00000 
 3.77598e-02  5.60761e-02        00000 
 3.29030e-02  5.51819e-02        00000 
 2.76795e-02  5.41344e-02        00000 
 2.25298e-02  5.32385e-02        00000 
 1.60464e-02  5.18742e-02        00000 
 1.24497e-02  5.25079e-02        00000 
 8.02431e-03  5.31056e-02        00000 
 3.47737e-03  5.35971e-02        00000 
 3.96158e-02  6.21962e-02        00000 
 3.45990e-02  6.16566e-02        00000 
 2.87733e-02  6.09508e-02        00000 
 1.27914e-02  5.87428e-02        00000 
 7.69286e-03  5.91633e-02        00000 
 2.90240e-03  5.94977e-02        00000 
 4.13291e-02  6.90997e-02        00000 
 3.62546e-02  6.88970e-02        00000 
 7.42346e-03  6.61426e-02        00000 
 2.40382e-03  6.62317e-02        00000 
 4.30139e-02  7.63613e-02        00000 
 3.78962e-02  7.61940e-02        00000 
 7.17395e-03  7.34903e-02        00000 
 1.94518e-03  7.34176e-02        00000 
 4.48339e-02  8.35108e-02        00000 
 3.96171e-02  8.30546e-02        00000 
 3.48516e-02  8.27676e-02        00000 
 1.23072e-02  8.08298e-02        00000 
 6.84803e-03  8.06004e-02        00000 
 1.44441e-03  8.05709e-02        00000 
 4.68544e-02  9.02999e-02        00000 
 4.15012e-02  8.94404e-02        00000 
 3.66037e-02  8.87731e-02        00000 
 3.24402e-02  8.83505e-02        00000 
 1.69069e-02  8.74347e-02        00000 
 1.18152e-02  8.72808e-02        00000 
 6.38389e-03  8.72445e-02        00000 
 8.47651e-04  8.73820e-02        00000 
 4.90153e-02  9.67045e-02        00000 
 4.34882e-02  9.55499e-02        00000 
 3.83379e-02  9.45959e-02        00000 
 3.36904e-02  9.38789e-02        00000 
 2.94885e-02  9.34702e-02        00000 
 2.54306e-02  9.33070e-02        00000 
 2.11446e-02  9.32433e-02        00000 
 1.64284e-02  9.32537e-02        00000 
 1.12718e-02  9.33339e-02        00000 
 5.80656e-03  9.34945e-02        00000 
 1.71978e-04  9.37859e-02        00000 
 5.12274e-02  1.02811e-01        00000 
 4.54977e-02  1.01512e-01        00000 
 4.00176e-02  1.00428e-01        00000 
 3.48864e-02  9.96211e-02        00000 
 3.01070e-02  9.91337e-02        00000 
 2.55228e-02  9.89380e-02        00000 
 2.08834e-02  9.89374e-02        00000 
 1.59756e-02  9.90441e-02        00000 
 1.07251e-02  9.92233e-02        00000 
 5.18595e-03  9.94848e-02        00000 
-5.35616e-04  9.98587e-02        00000 
 1.31693e-02  6.60955e-02        00000 
 1.28249e-02  7.37192e-02        00000 
 1.73807e-02  8.11763e-02        00000 
 2.14090e-02  8.78192e-02        00000 
 3.28633e-02  7.61263e-02        00000 
 3.12822e-02  8.28039e-02        00000 
 2.89508e-02  8.83474e-02        00000 
 2.53740e-02  8.83087e-02        00000 
 3.04471e-02  6.85721e-02        00000 
 1.87294e-02  4.72404e-02        00000 
 1.79038e-02  4.69140e-02        00000 
 1.97647e-02  4.89681e-02        00000 
 2.05157e-02  5.06601e-02        00000 
 2.02780e-02  4.99527e-02        00000 
 1.89832e-02  4.75659e-02        00000 
 1.85519e-02  4.68692e-02        00000 
 1.73407e-02  4.81713e-02        00000 
 1.80327e-02  4.66853e-02        00000 
 1.77706e-02  4.71032e-02        00000 
 1.70511e-02  4.95959e-02        00000 
 1.71350e-02  4.89882e-02        00000 
 2.41027e-02  5.69222e-02        00000 
 2.52911e-02  5.97898e-02        00000 
 2.44869e-02  5.77504e-02        00000 
 2.22849e-02  5.35366e-02        00000 
 1.55708e-02  5.51008e-02        00000 