<?xml version="1.0" encoding="utf-8"?>
<VTKFile byte_order="LittleEndian" type="UnstructuredGrid" version="0.1">
   <UnstructuredGrid>
      <Piece NumberOfCells="3364" NumberOfPoints="1741">
         <Points>
            <DataArray Name="Points" NumberOfComponents="3" format="ascii" type="Float32">
0.0000 1.0000 0.0000
0.0000 1.0345 0.0000
0.0000 1.0690 0.0000
0.0000 1.1034 0.0000
0.0000 1.1379 0.0000
0.0000 1.1724 0.0000
0.0000 1.2069 0.0000
0.0000 1.2414 0.0000
0.0000 1.2759 0.0000
0.0000 1.3103 0.0000
0.0000 1.3448 0.0000
0.0000 1.3793 0.0000
0.0000 1.4138 0.0000
0.0000 1.4483 0.0000
0.0000 1.4828 0.0000
0.0000 1.5172 0.0000
0.0000 1.5517 0.0000
0.0000 1.5862 0.0000
0.0000 1.6207 0.0000
0.0000 1.6552 0.0000
0.0000 1.6897 0.0000
0.0000 1.7241 0.0000
0.0000 1.7586 0.0000
0.0000 1.7931 0.0000
0.0000 1.8276 0.0000
0.0000 1.8621 0.0000
0.0000 1.8966 0.0000
0.0000 1.9310 0.0000
0.0000 1.9655 0.0000
0.0000 2.0000 0.0000
0.0690 1.0000 0.0000
0.0690 1.0345 0.0000
0.0690 1.0690 0.0000
0.0690 1.1034 0.0000
0.0690 1.1379 0.0000
0.0690 1.1724 0.0000
0.0690 1.2069 0.0000
0.0690 1.2414 0.0000
0.0690 1.2759 0.0000
0.0690 1.3103 0.0000
0.0690 1.3448 0.0000
0.0690 1.3793 0.0000
0.0690 1.4138 0.0000
0.0690 1.4483 0.0000
0.0690 1.4828 0.0000
0.0690 1.5172 0.0000
0.0690 1.5517 0.0000
0.0690 1.5862 0.0000
0.0690 1.6207 0.0000
0.0690 1.6552 0.0000
0.0690 1.6897 0.0000
0.0690 1.7241 0.0000
0.0690 1.7586 0.0000
0.0690 1.7931 0.0000
0.0690 1.8276 0.0000
0.0690 1.8621 0.0000
0.0690 1.8966 0.0000
0.0690 1.9310 0.0000
0.0690 1.9655 0.0000
0.0690 2.0000 0.0000
0.1379 1.0000 0.0000
0.1379 1.0345 0.0000
0.1379 1.0690 0.0000
0.1379 1.1034 0.0000
0.1379 1.1379 0.0000
0.1379 1.1724 0.0000
0.1379 1.2069 0.0000
0.1379 1.2414 0.0000
0.1379 1.2759 0.0000
0.1379 1.3103 0.0000
0.1379 1.3448 0.0000
0.1379 1.3793 0.0000
0.1379 1.4138 0.0000
0.1379 1.4483 0.0000
0.1379 1.4828 0.0000
0.1379 1.5172 0.0000
0.1379 1.5517 0.0000
0.1379 1.5862 0.0000
0.1379 1.6207 0.0000
0.1379 1.6552 0.0000
0.1379 1.6897 0.0000
0.1379 1.7241 0.0000
0.1379 1.7586 0.0000
0.1379 1.7931 0.0000
0.1379 1.8276 0.0000
0.1379 1.8621 0.0000
0.1379 1.8966 0.0000
0.1379 1.9310 0.0000
0.1379 1.9655 0.0000
0.1379 2.0000 0.0000
0.2069 1.0000 0.0000
0.2069 1.0345 0.0000
0.2069 1.0690 0.0000
0.2069 1.1034 0.0000
0.2069 1.1379 0.0000
0.2069 1.1724 0.0000
0.2069 1.2069 0.0000
0.2069 1.2414 0.0000
0.2069 1.2759 0.0000
0.2069 1.3103 0.0000
0.2069 1.3448 0.0000
0.2069 1.3793 0.0000
0.2069 1.4138 0.0000
0.2069 1.4483 0.0000
0.2069 1.4828 0.0000
0.2069 1.5172 0.0000
0.2069 1.5517 0.0000
0.2069 1.5862 0.0000
0.2069 1.6207 0.0000
0.2069 1.6552 0.0000
0.2069 1.6897 0.0000
0.2069 1.7241 0.0000
0.2069 1.7586 0.0000
0.2069 1.7931 0.0000
0.2069 1.8276 0.0000
0.2069 1.8621 0.0000
0.2069 1.8966 0.0000
0.2069 1.9310 0.0000
0.2069 1.9655 0.0000
0.2069 2.0000 0.0000
0.2759 1.0000 0.0000
0.2759 1.0345 0.0000
0.2759 1.0690 0.0000
0.2759 1.1034 0.0000
0.2759 1.1379 0.0000
0.2759 1.1724 0.0000
0.2759 1.2069 0.0000
0.2759 1.2414 0.0000
0.2759 1.2759 0.0000
0.2759 1.3103 0.0000
0.2759 1.3448 0.0000
0.2759 1.3793 0.0000
0.2759 1.4138 0.0000
0.2759 1.4483 0.0000
0.2759 1.4828 0.0000
0.2759 1.5172 0.0000
0.2759 1.5517 0.0000
0.2759 1.5862 0.0000
0.2759 1.6207 0.0000
0.2759 1.6552 0.0000
0.2759 1.6897 0.0000
0.2759 1.7241 0.0000
0.2759 1.7586 0.0000
0.2759 1.7931 0.0000
0.2759 1.8276 0.0000
0.2759 1.8621 0.0000
0.2759 1.8966 0.0000
0.2759 1.9310 0.0000
0.2759 1.9655 0.0000
0.2759 2.0000 0.0000
0.3448 1.0000 0.0000
0.3448 1.0345 0.0000
0.3448 1.0690 0.0000
0.3448 1.1034 0.0000
0.3448 1.1379 0.0000
0.3448 1.1724 0.0000
0.3448 1.2069 0.0000
0.3448 1.2414 0.0000
0.3448 1.2759 0.0000
0.3448 1.3103 0.0000
0.3448 1.3448 0.0000
0.3448 1.3793 0.0000
0.3448 1.4138 0.0000
0.3448 1.4483 0.0000
0.3448 1.4828 0.0000
0.3448 1.5172 0.0000
0.3448 1.5517 0.0000
0.3448 1.5862 0.0000
0.3448 1.6207 0.0000
0.3448 1.6552 0.0000
0.3448 1.6897 0.0000
0.3448 1.7241 0.0000
0.3448 1.7586 0.0000
0.3448 1.7931 0.0000
0.3448 1.8276 0.0000
0.3448 1.8621 0.0000
0.3448 1.8966 0.0000
0.3448 1.9310 0.0000
0.3448 1.9655 0.0000
0.3448 2.0000 0.0000
0.4138 1.0000 0.0000
0.4138 1.0345 0.0000
0.4138 1.0690 0.0000
0.4138 1.1034 0.0000
0.4138 1.1379 0.0000
0.4138 1.1724 0.0000
0.4138 1.2069 0.0000
0.4138 1.2414 0.0000
0.4138 1.2759 0.0000
0.4138 1.3103 0.0000
0.4138 1.3448 0.0000
0.4138 1.3793 0.0000
0.4138 1.4138 0.0000
0.4138 1.4483 0.0000
0.4138 1.4828 0.0000
0.4138 1.5172 0.0000
0.4138 1.5517 0.0000
0.4138 1.5862 0.0000
0.4138 1.6207 0.0000
0.4138 1.6552 0.0000
0.4138 1.6897 0.0000
0.4138 1.7241 0.0000
0.4138 1.7586 0.0000
0.4138 1.7931 0.0000
0.4138 1.8276 0.0000
0.4138 1.8621 0.0000
0.4138 1.8966 0.0000
0.4138 1.9310 0.0000
0.4138 1.9655 0.0000
0.4138 2.0000 0.0000
0.4828 1.0000 0.0000
0.4828 1.0345 0.0000
0.4828 1.0690 0.0000
0.4828 1.1034 0.0000
0.4828 1.1379 0.0000
0.4828 1.1724 0.0000
0.4828 1.2069 0.0000
0.4828 1.2414 0.0000
0.4828 1.2759 0.0000
0.4828 1.3103 0.0000
0.4828 1.3448 0.0000
0.4828 1.3793 0.0000
0.4828 1.4138 0.0000
0.4828 1.4483 0.0000
0.4828 1.4828 0.0000
0.4828 1.5172 0.0000
0.4828 1.5517 0.0000
0.4828 1.5862 0.0000
0.4828 1.6207 0.0000
0.4828 1.6552 0.0000
0.4828 1.6897 0.0000
0.4828 1.7241 0.0000
0.4828 1.7586 0.0000
0.4828 1.7931 0.0000
0.4828 1.8276 0.0000
0.4828 1.8621 0.0000
0.4828 1.8966 0.0000
0.4828 1.9310 0.0000
0.4828 1.9655 0.0000
0.4828 2.0000 0.0000
0.5517 1.0000 0.0000
0.5517 1.0345 0.0000
0.5517 1.0690 0.0000
0.5517 1.1034 0.0000
0.5517 1.1379 0.0000
0.5517 1.1724 0.0000
0.5517 1.2069 0.0000
0.5517 1.2414 0.0000
0.5517 1.2759 0.0000
0.5517 1.3103 0.0000
0.5517 1.3448 0.0000
0.5517 1.3793 0.0000
0.5517 1.4138 0.0000
0.5517 1.4483 0.0000
0.5517 1.4828 0.0000
0.5517 1.5172 0.0000
0.5517 1.5517 0.0000
0.5517 1.5862 0.0000
0.5517 1.6207 0.0000
0.5517 1.6552 0.0000
0.5517 1.6897 0.0000
0.5517 1.7241 0.0000
0.5517 1.7586 0.0000
0.5517 1.7931 0.0000
0.5517 1.8276 0.0000
0.5517 1.8621 0.0000
0.5517 1.8966 0.0000
0.5517 1.9310 0.0000
0.5517 1.9655 0.0000
0.5517 2.0000 0.0000
0.6207 1.0000 0.0000
0.6207 1.0345 0.0000
0.6207 1.0690 0.0000
0.6207 1.1034 0.0000
0.6207 1.1379 0.0000
0.6207 1.1724 0.0000
0.6207 1.2069 0.0000
0.6207 1.2414 0.0000
0.6207 1.2759 0.0000
0.6207 1.3103 0.0000
0.6207 1.3448 0.0000
0.6207 1.3793 0.0000
0.6207 1.4138 0.0000
0.6207 1.4483 0.0000
0.6207 1.4828 0.0000
0.6207 1.5172 0.0000
0.6207 1.5517 0.0000
0.6207 1.5862 0.0000
0.6207 1.6207 0.0000
0.6207 1.6552 0.0000
0.6207 1.6897 0.0000
0.6207 1.7241 0.0000
0.6207 1.7586 0.0000
0.6207 1.7931 0.0000
0.6207 1.8276 0.0000
0.6207 1.8621 0.0000
0.6207 1.8966 0.0000
0.6207 1.9310 0.0000
0.6207 1.9655 0.0000
0.6207 2.0000 0.0000
0.6897 1.0000 0.0000
0.6897 1.0345 0.0000
0.6897 1.0690 0.0000
0.6897 1.1034 0.0000
0.6897 1.1379 0.0000
0.6897 1.1724 0.0000
0.6897 1.2069 0.0000
0.6897 1.2414 0.0000
0.6897 1.2759 0.0000
0.6897 1.3103 0.0000
0.6897 1.3448 0.0000
0.6897 1.3793 0.0000
0.6897 1.4138 0.0000
0.6897 1.4483 0.0000
0.6897 1.4828 0.0000
0.6897 1.5172 0.0000
0.6897 1.5517 0.0000
0.6897 1.5862 0.0000
0.6897 1.6207 0.0000
0.6897 1.6552 0.0000
0.6897 1.6897 0.0000
0.6897 1.7241 0.0000
0.6897 1.7586 0.0000
0.6897 1.7931 0.0000
0.6897 1.8276 0.0000
0.6897 1.8621 0.0000
0.6897 1.8966 0.0000
0.6897 1.9310 0.0000
0.6897 1.9655 0.0000
0.6897 2.0000 0.0000
0.7586 1.0000 0.0000
0.7586 1.0345 0.0000
0.7586 1.0690 0.0000
0.7586 1.1034 0.0000
0.7586 1.1379 0.0000
0.7586 1.1724 0.0000
0.7586 1.2069 0.0000
0.7586 1.2414 0.0000
0.7586 1.2759 0.0000
0.7586 1.3103 0.0000
0.7586 1.3448 0.0000
0.7586 1.3793 0.0000
0.7586 1.4138 0.0000
0.7586 1.4483 0.0000
0.7586 1.4828 0.0000
0.7586 1.5172 0.0000
0.7586 1.5517 0.0000
0.7586 1.5862 0.0000
0.7586 1.6207 0.0000
0.7586 1.6552 0.0000
0.7586 1.6897 0.0000
0.7586 1.7241 0.0000
0.7586 1.7586 0.0000
0.7586 1.7931 0.0000
0.7586 1.8276 0.0000
0.7586 1.8621 0.0000
0.7586 1.8966 0.0000
0.7586 1.9310 0.0000
0.7586 1.9655 0.0000
0.7586 2.0000 0.0000
0.8276 1.0000 0.0000
0.8276 1.0345 0.0000
0.8276 1.0690 0.0000
0.8276 1.1034 0.0000
0.8276 1.1379 0.0000
0.8276 1.1724 0.0000
0.8276 1.2069 0.0000
0.8276 1.2414 0.0000
0.8276 1.2759 0.0000
0.8276 1.3103 0.0000
0.8276 1.3448 0.0000
0.8276 1.3793 0.0000
0.8276 1.4138 0.0000
0.8276 1.4483 0.0000
0.8276 1.4828 0.0000
0.8276 1.5172 0.0000
0.8276 1.5517 0.0000
0.8276 1.5862 0.0000
0.8276 1.6207 0.0000
0.8276 1.6552 0.0000
0.8276 1.6897 0.0000
0.8276 1.7241 0.0000
0.8276 1.7586 0.0000
0.8276 1.7931 0.0000
0.8276 1.8276 0.0000
0.8276 1.8621 0.0000
0.8276 1.8966 0.0000
0.8276 1.9310 0.0000
0.8276 1.9655 0.0000
0.8276 2.0000 0.0000
0.8966 1.0000 0.0000
0.8966 1.0345 0.0000
0.8966 1.0690 0.0000
0.8966 1.1034 0.0000
0.8966 1.1379 0.0000
0.8966 1.1724 0.0000
0.8966 1.2069 0.0000
0.8966 1.2414 0.0000
0.8966 1.2759 0.0000
0.8966 1.3103 0.0000
0.8966 1.3448 0.0000
0.8966 1.3793 0.0000
0.8966 1.4138 0.0000
0.8966 1.4483 0.0000
0.8966 1.4828 0.0000
0.8966 1.5172 0.0000
0.8966 1.5517 0.0000
0.8966 1.5862 0.0000
0.8966 1.6207 0.0000
0.8966 1.6552 0.0000
0.8966 1.6897 0.0000
0.8966 1.7241 0.0000
0.8966 1.7586 0.0000
0.8966 1.7931 0.0000
0.8966 1.8276 0.0000
0.8966 1.8621 0.0000
0.8966 1.8966 0.0000
0.8966 1.9310 0.0000
0.8966 1.9655 0.0000
0.8966 2.0000 0.0000
0.9655 1.0000 0.0000
0.9655 1.0345 0.0000
0.9655 1.0690 0.0000
0.9655 1.1034 0.0000
0.9655 1.1379 0.0000
0.9655 1.1724 0.0000
0.9655 1.2069 0.0000
0.9655 1.2414 0.0000
0.9655 1.2759 0.0000
0.9655 1.3103 0.0000
0.9655 1.3448 0.0000
0.9655 1.3793 0.0000
0.9655 1.4138 0.0000
0.9655 1.4483 0.0000
0.9655 1.4828 0.0000
0.9655 1.5172 0.0000
0.9655 1.5517 0.0000
0.9655 1.5862 0.0000
0.9655 1.6207 0.0000
0.9655 1.6552 0.0000
0.9655 1.6897 0.0000
0.9655 1.7241 0.0000
0.9655 1.7586 0.0000
0.9655 1.7931 0.0000
0.9655 1.8276 0.0000
0.9655 1.8621 0.0000
0.9655 1.8966 0.0000
0.9655 1.9310 0.0000
0.9655 1.9655 0.0000
0.9655 2.0000 0.0000
1.0345 1.0000 0.0000
1.0345 1.0345 0.0000
1.0345 1.0690 0.0000
1.0345 1.1034 0.0000
1.0345 1.1379 0.0000
1.0345 1.1724 0.0000
1.0345 1.2069 0.0000
1.0345 1.2414 0.0000
1.0345 1.2759 0.0000
1.0345 1.3103 0.0000
1.0345 1.3448 0.0000
[...]
         <PointData>
            <DataArray Name="fValues" NumberOfComponents="3" format="ascii" type="Float64">
-6.61644e-41 -2.26408e-39        00000 
 1.45457e-40  5.19348e-39        00000 
-5.59416e-40 -2.10867e-38        00000 
 2.19075e-39  8.71430e-38        00000 
-8.31743e-39 -3.50255e-37        00000 
 3.04210e-38  1.36177e-36        00000 
-1.06741e-37 -5.10330e-36        00000 
 3.57736e-37  1.83680e-35        00000 
-1.13980e-36 -6.32636e-35        00000 
 3.43542e-36  2.07770e-34        00000 
-9.74444e-36 -6.48384e-34        00000 
 2.58714e-35  1.91541e-33        00000 
-6.39339e-35 -5.33240e-33        00000 
 1.46186e-34  1.39163e-32        00000 
-3.07243e-34 -3.38494e-32        00000 
 5.88895e-34  7.62802e-32        00000 
-1.01865e-33 -1.58435e-31        00000 
 1.56487e-33  3.02547e-31        00000 
-2.07346e-33 -5.32919e-31        00000 
 2.21409e-33  8.75684e-31        00000 
-1.48522e-33 -1.37187e-30        00000 
-6.76275e-34  1.89756e-30        00000 
 4.68301e-33 -2.62121e-30        00000 
-1.05617e-32  3.18069e-30        00000 
 1.78264e-32 -3.56383e-30        00000 
-2.55620e-32  3.68465e-30        00000 
 3.26969e-32 -3.56923e-30        00000 
-3.83188e-32  3.32452e-30        00000 
 4.18558e-32 -3.09458e-30        00000 
-4.30551e-32  3.00194e-30        00000 
 9.76884e-41  3.18394e-39        00000 
-2.20005e-40 -7.47113e-39        00000 
 8.73121e-40  3.12317e-38        00000 
-3.52937e-39 -1.32942e-37        00000 
 1.38617e-38  5.51543e-37        00000 
-5.25794e-38 -2.21863e-36        00000 
 1.91815e-37  8.62241e-36        00000 
-6.70011e-37 -3.22529e-35        00000 
 2.22992e-36  1.15657e-34        00000 
-7.03424e-36 -3.95986e-34        00000 
 2.09132e-35  1.28950e-33        00000 
-5.82547e-35 -3.97920e-33        00000 
 1.51099e-34  1.15871e-32        00000 
-3.62565e-34 -3.16685e-32        00000 
 7.99200e-34  8.07220e-32        00000 
-1.60535e-33 -1.90583e-31        00000 
 2.90874e-33  4.13751e-31        00000 
-4.68452e-33 -8.21173e-31        00000 
 6.53823e-33  1.48820e-30        00000 
-7.48848e-33 -2.48505e-30        00000 
 5.92333e-33  3.89648e-30        00000 
 7.98689e-35 -6.15489e-30        00000 
-1.20337e-32  7.85475e-30        00000 
 3.01770e-32 -9.75431e-30        00000 
-5.29661e-32  1.09812e-29        00000 
 7.73370e-32 -1.13116e-29        00000 
-9.97045e-32  1.08476e-29        00000 
 1.17130e-31 -9.95315e-30        00000 
-1.27948e-31  9.12555e-30        00000 
 1.31583e-31 -8.79344e-30        00000 
-2.14600e-40 -6.45955e-39        00000 
 5.01405e-40  1.57158e-38        00000 
-2.08462e-39 -6.87315e-38        00000 
 8.82297e-39  3.05974e-37        00000 
-3.63636e-38 -1.33052e-36        00000 
 1.45114e-37  5.62363e-36        00000 
-5.58376e-37 -2.30190e-35        00000 
 2.06214e-36  9.08865e-35        00000 
-7.27213e-36 -3.44628e-34        00000 
 2.43502e-35  1.24911e-33        00000 
-7.69449e-35 -4.30727e-33        00000 
 2.27957e-34  1.40721e-32        00000 
-6.28828e-34 -4.34012e-32        00000 
 1.60359e-33  1.25772e-31        00000 
-3.75169e-33 -3.40140e-31        00000 
 7.98526e-33  8.51766e-31        00000 
-1.53080e-32 -1.95886e-30        00000 
 2.60727e-32  4.09635e-30        00000 
-3.85974e-32 -7.74092e-30        00000 
 4.75311e-32  1.32350e-29        00000 
-4.31079e-32 -2.09451e-29        00000 
 1.27808e-32  3.11794e-29        00000 
 5.41349e-32 -4.48682e-29        00000 
-1.60336e-31  5.68782e-29        00000 
 2.96518e-31 -6.42777e-29        00000 
-4.42874e-31  6.59146e-29        00000 
 5.76181e-31 -6.24585e-29        00000 
-6.78282e-31  5.62246e-29        00000 
 7.40389e-31 -5.05213e-29        00000 
-7.60961e-31  4.82393e-29        00000 
 4.93295e-40  1.37645e-38        00000 
-1.19061e-39 -3.45826e-38        00000 
 5.15557e-39  1.57372e-37        00000 
-2.27233e-38 -7.28899e-37        00000 
 9.77510e-38  3.30494e-36        00000 
-4.08250e-37 -1.46019e-35        00000 
 1.64864e-36  6.26425e-35        00000 
-6.40827e-36 -2.59908e-34        00000 
 2.38521e-35  1.03828e-33        00000 
-8.45185e-35 -3.97357e-33        00000 
 2.83271e-34  1.44886e-32        00000 
-8.91667e-34 -5.00563e-32        00000 
 2.61612e-33  1.63166e-31        00000 
-7.09718e-33 -5.00333e-31        00000 
 1.76535e-32  1.43506e-30        00000 
-3.98991e-32 -3.81468e-30        00000 
 8.10977e-32  9.31140e-30        00000 
-1.46306e-31 -2.06750e-29        00000 
 2.29700e-31  4.10924e-29        00000 
-3.02566e-31 -7.29406e-29        00000 
 3.05190e-31  1.15880e-28        00000 
-1.54196e-31 -1.76500e-28        00000 
-2.27394e-31  2.65026e-28        00000 
 8.65750e-31 -3.42022e-28        00000 
-1.70385e-30  3.86884e-28        00000 
 2.60920e-30 -3.95372e-28        00000 
-3.42550e-30  3.70058e-28        00000 
 4.03667e-30 -3.26110e-28        00000 
-4.39798e-30  2.86171e-28        00000 
 4.51517e-30 -2.70218e-28        00000 
-1.09235e-39 -2.82560e-38        00000 
 2.71656e-39  7.31065e-38        00000 
-1.22117e-38 -3.44948e-37        00000 
 5.58947e-38  1.65729e-36        00000 
-2.50343e-37 -7.81383e-36        00000 
 1.09183e-36  3.60010e-35        00000 
-4.61924e-36 -1.61547e-34        00000 
 1.88744e-35  7.03329e-34        00000 
-7.41071e-35 -2.95794e-33        00000 
 2.77960e-34  1.19565e-32        00000 
-9.89327e-34 -4.61852e-32        00000 
 3.31640e-33  1.69358e-31        00000 
-1.03841e-32 -5.85512e-31        00000 
 3.00999e-32  1.90085e-30        00000 
-8.00105e-32 -5.79056e-30        00000 
 1.93091e-31  1.64120e-29        00000 
-4.18448e-31 -4.27011e-29        00000 
 8.03664e-31  1.01060e-28        00000 
-1.34314e-30 -2.15381e-28        00000 
 1.89311e-30  3.98721e-28        00000 
-2.09594e-30 -6.60415e-28        00000 
 1.40030e-30  9.39897e-28        00000 
 7.49195e-31 -1.60583e-27        00000 
-4.59002e-30  2.05436e-27        00000 
 9.77795e-30 -2.33537e-27        00000 
-1.54156e-29  2.38152e-27        00000 
 2.04312e-29 -2.19956e-27        00000 
-2.40709e-29  1.89097e-27        00000 
 2.61339e-29 -1.61170e-27        00000 
-2.67812e-29  1.50025e-27        00000 
 2.29769e-39  5.49297e-38        00000 
-5.87813e-39 -1.46095e-37        00000 
 2.73715e-38  7.13152e-37        00000 
-1.29860e-37 -3.54714e-36        00000 
 6.04498e-37  1.73590e-35        00000 
-2.74881e-36 -8.32649e-35        00000 
 1.21672e-35  3.90267e-34        00000 
-5.22093e-35 -1.78105e-33        00000 
 2.16129e-34  7.88113e-33        00000 
-8.58231e-34 -3.36493e-32        00000 
 3.24727e-33  1.37843e-31        00000 
-1.16169e-32 -5.38213e-31        00000 
 3.89486e-32  1.98659e-30        00000 
-1.21186e-31 -6.86582e-30        00000 
 3.46221e-31  2.21545e-29        00000 
-8.97980e-31 -6.71499e-29        00000 
 2.08891e-30  1.87722e-28        00000 
-4.29883e-30 -4.74979e-28        00000 
 7.68942e-30  1.08407e-27        00000 
-1.16285e-29 -2.21217e-27        00000 
 1.40424e-29  3.60133e-27        00000 
-1.13189e-29 -6.55672e-27        00000 
-5.51431e-31  9.52566e-27        00000 
 2.36478e-29 -1.23180e-26        00000 
-5.59566e-29  1.41419e-26        00000 
 9.13277e-29 -1.44055e-26        00000 
-1.22259e-28  1.31120e-26        00000 
 1.43757e-28 -1.09516e-26        00000 
-1.55183e-28  9.00107e-27        00000 
 1.58573e-28 -8.22270e-27        00000 
-4.57679e-39 -1.00671e-37        00000 
 1.20257e-38  2.74794e-37        00000 
-5.78837e-38 -1.38481e-36        00000 
 2.84100e-37  7.11709e-36        00000 
-1.37190e-36 -3.60833e-35        00000 
 6.49229e-36  1.79858e-34        00000 
-3.00137e-35 -8.79005e-34        00000 
 1.35041e-34  4.19854e-33        00000 
-5.88698e-34 -1.95244e-32        00000 
 2.47324e-33  8.79880e-32        00000 
-9.94913e-33 -3.82174e-31        00000 
 3.80287e-32  1.58986e-30        00000 
-1.36870e-31 -6.28880e-30        00000 
 4.59001e-31  2.34077e-29        00000 
-1.41742e-30 -8.06787e-29        00000 
 3.97882e-30  2.57637e-28        00000 
-1.00135e-29 -7.83175e-28        00000 
 2.22566e-29  2.14510e-27        00000 
-4.29150e-29 -5.22224e-27        00000 
 6.99797e-29  1.14597e-26        00000 
-9.20338e-29 -2.27551e-26        00000 
 8.57602e-29  3.73254e-26        00000 
-2.22464e-29 -5.57824e-26        00000 
-1.16347e-28  7.38729e-26        00000 
 3.18966e-28 -8.59908e-26        00000 
-5.42994e-28  8.75663e-26        00000 
 7.34748e-28 -7.84234e-26        00000 
-8.60250e-28  6.33384e-26        00000 
 9.20363e-28 -4.97245e-26        00000 
-9.36373e-28  4.42792e-26        00000 
 8.62131e-39  1.73521e-37        00000 
-2.32265e-38 -4.85256e-37        00000 
 1.15300e-37  2.51895e-36        00000 
-5.84184e-37 -1.33483e-35        00000 
 2.91998e-36  6.99602e-35        00000 
-1.43486e-35 -3.61583e-34        00000 
 6.91263e-35  1.83856e-33        00000 
-3.25422e-34 -9.17179e-33        00000 
 1.49104e-33  4.47367e-32        00000 
-6.61679e-33 -2.12472e-31        00000 
 2.82705e-32  9.77562e-31        00000 
-1.15444e-31 -4.33002e-30        00000 
 4.46578e-31  1.83358e-29        00000 
-1.61899e-30 -7.37123e-29        00000 
 5.43134e-30  2.77848e-28        00000 
-1.66187e-29 -9.49183e-28        00000 
 4.56452e-29  2.96573e-27        00000 
-1.10623e-28 -9.32521e-27        00000 
 2.32061e-28  2.42142e-26        00000 
-4.11097e-28 -5.64043e-26        00000 
 5.90292e-28  1.18783e-25        00000 
-6.22754e-28 -2.09183e-25        00000 
 3.00796e-28  3.24645e-25        00000 
 5.26841e-28 -4.43111e-25        00000 
-1.80759e-27  5.25726e-25        00000 
 3.24345e-27 -5.35296e-25        00000 
-4.44104e-27  4.70645e-25        00000 
 5.16132e-27 -3.65879e-25        00000 
-5.44814e-27  2.70760e-25        00000 
 5.50660e-27 -2.32476e-25        00000 
-1.53422e-38 -2.80692e-37        00000 
 4.23006e-38  8.02625e-37        00000 
-2.16043e-37 -4.28120e-36        00000 
 1.12730e-36  2.33370e-35        00000 
-5.81799e-36 -1.26136e-34        00000 
 2.96102e-35  6.74273e-34        00000 
-1.48261e-34 -3.55780e-33        00000 
 7.28302e-34  1.84868e-32        00000 
-3.49785e-33 -9.43278e-32        00000 
 1.63549e-32  4.70961e-31        00000 
-7.40551e-32 -2.29071e-30        00000 
 3.22586e-31  1.07922e-29        00000 
-1.34064e-30 -4.88880e-29        00000 
 5.26068e-30  2.11175e-28        00000 
-1.92415e-29 -8.66557e-28        00000 
 6.45858e-29  3.34726e-27        00000 
-1.95370e-28 -1.11498e-26        00000 
 5.21997e-28  3.28756e-26        00000 
-1.20521e-27 -1.19550e-25        00000 
 2.34377e-27  2.50514e-25        00000 
-3.69834e-27 -6.21852e-25        00000 
 4.38024e-27  1.15596e-24        00000 
-2.91033e-27 -1.88332e-24        00000 
-1.98435e-27  2.64011e-24        00000 
 1.01502e-26 -3.25331e-24        00000 
-1.94900e-26  3.28337e-24        00000 
 2.70494e-26 -2.83595e-24        00000 
-3.10781e-26  2.11268e-24        00000 
 3.21575e-26 -1.44568e-24        00000 
-3.21819e-26  1.17347e-24        00000 
 2.57710e-38  4.25205e-37        00000 
-7.25713e-38 -1.24046e-36        00000 
 3.80358e-37  6.78061e-36        00000 
-2.03872e-36 -3.79213e-35        00000 
 1.08348e-35  2.10802e-34        00000 
-5.69477e-35 -1.16222e-33        00000 
 2.95454e-34  6.34486e-33        00000 
-1.50960e-33 -3.42337e-32        00000 
 7.57456e-33  1.82128e-31        00000 
-3.71903e-32 -9.52675e-31        00000 
 1.77881e-31  4.88212e-30        00000 
-8.24106e-31 -2.43989e-29        00000 
 3.67118e-30  1.18171e-28        00000 
-1.55774e-29 -5.49475e-28        00000 
 6.21928e-29  2.42127e-27        00000 
-2.30007e-28 -1.01761e-26        00000 
 7.72659e-28  4.17751e-26        00000 
-2.30333e-27 -1.41367e-25        00000 
 5.93647e-27  4.49249e-25        00000 
-1.28524e-26 -1.25577e-24        00000 
 2.25327e-26  3.03695e-24        00000 
-2.99733e-26 -6.26877e-24        00000 
 2.48134e-26  1.09206e-23        00000 
 3.60016e-27 -1.57323e-23        00000 
-5.61346e-26  1.95427e-23        00000 
 1.18002e-25 -2.07596e-23        00000 
-1.66446e-25  1.66268e-23        00000 
 1.88067e-25 -1.27590e-23        00000 
-1.88981e-25  6.97392e-24        00000 
 1.86295e-25 -6.06001e-24        00000 
-4.08291e-38 -6.01834e-37        00000 
 1.17180e-37  1.78679e-36        00000 
-6.28563e-37 -9.97876e-36        00000 
 3.45146e-36  5.70871e-35        00000 
-1.88337e-35 -3.25388e-34        00000 
 1.01910e-34  1.84443e-33        00000 
-5.46004e-34 -1.03840e-32        00000 
 2.89126e-33  5.79751e-32        00000 
-1.50976e-32 -3.20406e-31        00000 
 7.75226e-32  1.74887e-30        00000 
-3.90010e-31 -9.40132e-30        00000 
 1.91350e-30  4.96000e-29        00000 
-9.09997e-30 -2.55701e-28        00000 
 4.16122e-29  1.28028e-27        00000 
-1.81010e-28 -6.15236e-27        00000 
 7.38268e-28  2.74678e-26        00000 
-2.76916e-27 -1.16740e-25        00000 
 9.31387e-27  4.77703e-25        00000 
-2.72335e-26 -1.70763e-24        00000 
 6.68526e-26  5.36927e-24        00000 
-1.32398e-25 -1.45004e-23        00000 
 1.99495e-25  3.29651e-23        00000 
-1.97802e-25 -6.23627e-23        00000 
 3.87116e-26  9.65202e-23        00000 
 3.02179e-25 -1.13759e-22        00000 
-7.21142e-25  1.16955e-22        00000 
 1.03825e-24 -8.96317e-23        00000 
-1.14606e-24  5.20679e-23        00000 
 1.10328e-24 -3.11133e-23        00000 
-1.06255e-24  3.71598e-23        00000 
 6.09681e-38  7.94064e-37        00000 
-1.77937e-37 -2.39236e-36        00000 
 9.74139e-37  1.36036e-35        00000 
-5.46425e-36 -7.93350e-35        00000 
 3.05211e-35  4.62007e-34        00000 
-1.69458e-34 -2.68272e-33        00000 
 9.34183e-34  1.55179e-32        00000 
-5.10651e-33 -8.93081e-32        00000 
 2.76315e-32  5.10649e-31        00000 
-1.47687e-31 -2.89591e-30        00000 
 7.77574e-31  1.62528e-29        00000 
-4.01836e-30 -9.00219e-29        00000 
 2.02863e-29  4.90448e-28        00000 
-9.94128e-29 -2.61873e-27        00000 
 4.68790e-28  1.36655e-26        00000 
-2.10157e-27 -6.92521e-26        00000 
 8.80438e-27  3.06596e-25        00000 
-3.36432e-26 -1.43063e-24        00000 
 1.13376e-25  5.78535e-24        00000 
-3.22781e-25 -2.08226e-23        00000 
 7.39499e-25  6.44952e-23        00000 
-1.28477e-24 -1.65932e-22        00000 
 1.50914e-24  3.46444e-22        00000 
-6.83006e-25 -5.84522e-22        00000 
-1.54395e-24  7.72906e-22        00000 
 4.45739e-24 -7.38511e-22        00000 
-6.59380e-24  5.40350e-22        00000 
 7.05257e-24 -2.85658e-22        00000 
-6.37602e-24  1.33430e-22        00000 
 5.91782e-24 -9.61493e-23        00000 
-8.57538e-38 -9.74306e-37        00000 
 2.53916e-37  2.96925e-36        00000 
-1.41468e-36 -1.71238e-35        00000 
 8.08247e-36  1.01397e-34        00000 
-4.60638e-35 -6.00701e-34        00000 
 2.61507e-34  3.55698e-33        00000 
-1.47768e-33 -2.10436e-32        00000 
 8.30316e-33  1.24288e-31        00000 
-4.63408e-32 -7.31934e-31        00000 
 2.56501e-31  4.29192e-30        00000 
-1.40532e-30 -2.50232e-29        00000 
 7.60180e-30  1.44753e-28        00000 
-4.04602e-29 -8.28381e-28        00000 
 2.10908e-28  4.67224e-27        00000 
-1.06979e-27 -2.58710e-26        00000 
 5.23176e-27  1.41425e-25        00000 
-2.43376e-26 -8.11986e-25        00000 
 1.05536e-25  3.66992e-24        00000 
-4.13610e-25 -1.69420e-23        00000 
 1.39830e-24  7.06672e-23        00000 
-3.82859e-24 -2.57250e-22        00000 
 7.90426e-24  7.79854e-22        00000 
-1.11100e-23 -1.86446e-21        00000 
 7.56236e-24  3.43655e-21        00000 
 7.01395e-24 -5.02121e-21        00000 
-2.79295e-23  4.55655e-21        00000 
 4.28758e-23 -3.48020e-21        00000 
-4.39818e-23  1.21622e-21        00000 
 3.62594e-23 -5.93789e-22        00000 
-3.16722e-23  4.17168e-22        00000 
 1.13543e-37  1.10893e-36        00000 
-3.40274e-37 -3.40645e-36        00000 
 1.92370e-36  1.98385e-35        00000 
-1.11603e-35 -1.18718e-34        00000 
 6.46842e-35  7.11903e-34        00000 
-3.74115e-34 -4.27428e-33        00000 
 2.15818e-33  2.57009e-32        00000 
-1.24108e-32 -1.54828e-31        00000 
 7.10928e-32  9.33963e-31        00000 
-4.05282e-31 -5.63246e-30        00000 
 2.29647e-30  3.39093e-29        00000 
-1.29131e-29 -2.03685e-28        00000 
 7.18962e-29  1.21826e-27        00000 
-3.95157e-28 -7.23083e-27        00000 
 2.13479e-27  4.23507e-26        00000 
-1.12656e-26 -2.41060e-25        00000 
 5.75322e-26  1.30094e-24        00000 
-2.80233e-25 -7.83549e-24        00000 
 1.27164e-24  4.13248e-23        00000 
-5.16672e-24 -2.01393e-22        00000 
 1.75644e-23  8.74261e-22        00000 
-4.52133e-23 -3.23630e-21        00000 
 7.86329e-23  9.50284e-21        00000 
-7.26809e-23 -2.00866e-20        00000 
-2.17719e-23  3.04876e-20        00000 
 1.77931e-22 -2.54028e-20        00000 
-2.87560e-22  2.64972e-20        00000 
 2.78951e-22 -5.39795e-21        00000 
-2.00683e-22  2.88950e-21        00000 
 1.57915e-22 -1.53370e-21        00000 
-1.41437e-37 -1.16712e-36        00000 
 4.27948e-37  3.60139e-36        00000 
-2.44757e-36 -2.10791e-35        00000 
 1.43737e-35  1.26855e-34        00000 
-8.44335e-35 -7.65206e-34        00000 
 4.95649e-34  4.63026e-33        00000 
-2.90699e-33 -2.80702e-32        00000 
 1.70296e-32  1.70718e-31        00000 
-9.96100e-32 -1.04481e-30        00000 
 5.81479e-31  6.43597e-30        00000 
-3.38552e-30 -3.97668e-29        00000 
 1.96430e-29  2.45763e-28        00000 
-1.13440e-28 -1.52465e-27        00000 
 6.51001e-28  9.47339e-27        00000 
-3.70352e-27 -5.88102e-26        00000 
 2.08123e-26  3.64304e-25        00000 
-1.14904e-25 -2.15497e-24        00000 
 6.17843e-25  1.33917e-23        00000 
-3.18857e-24 -8.01101e-23        00000 
 1.53860e-23  4.56805e-22        00000 
-6.59970e-23 -2.39858e-21        00000 
 2.26703e-22  1.09849e-20        00000 
-5.23428e-22 -4.18124e-20        00000 
 6.54689e-22  1.16879e-19        00000 
-6.93155e-23 -1.93117e-19        00000 
-1.15804e-21  1.61652e-19        00000 
 2.01090e-21 -9.89844e-20        00000 
-1.80042e-21  3.77589e-20        00000 
 1.05530e-21 -1.17809e-20        00000 
-6.86213e-22  2.90089e-21        00000 
 1.65653e-37  1.12981e-36        00000 
-5.04758e-37 -3.49179e-36        00000 
 2.91157e-36  2.04726e-35        00000 
-1.72529e-35 -1.23064e-34        00000 
 1.02355e-34  7.43605e-34        00000 
-6.07489e-34 -4.48446e-33        00000 
 3.60689e-33  2.73025e-32        00000 
-2.14226e-32 -1.65677e-31        00000 
 1.27270e-31  1.00636e-30        00000 
-7.56220e-31 -6.20770e-30        00000 
 4.49332e-30  3.90541e-29        00000 
-2.66916e-29 -2.47620e-28        00000 
 1.58457e-28  1.55868e-27        00000 
-9.39562e-28 -1.00159e-26        00000 
 5.55953e-27  6.49642e-26        00000 
-3.27828e-26 -4.26195e-25        00000 
 1.92207e-25  3.03019e-24        00000 
-1.11625e-24 -1.77015e-23        00000 
 6.37831e-24  1.13709e-22        00000 
-3.54093e-23 -7.65694e-22        00000 
 1.86070e-22  4.86969e-21        00000 
-8.70680e-22 -2.85854e-20        00000 
 3.05478e-21  1.40266e-19        00000 
-5.63780e-21 -5.63574e-19        00000 
 2.61322e-21  1.45516e-18        00000 
 7.76791e-21 -8.89992e-19        00000 
-1.49541e-20  5.99112e-19        00000 
 1.16801e-20 -2.00731e-19        00000 
-4.91892e-21  2.24774e-20        00000 
 2.21887e-21  9.84998e-21        00000 
-1.82298e-37 -9.95811e-37        00000 
 5.57944e-37  3.06944e-36        00000 
-3.23569e-36 -1.79815e-35        00000 
 1.92827e-35  1.08474e-34        00000 
-1.15118e-34 -6.42715e-34        00000 
 6.88038e-34  3.92446e-33        00000 
-4.11728e-33 -2.28851e-32        00000 
 2.46709e-32  1.42963e-31        00000 
-1.48044e-31 -8.48507e-31        00000 
 8.89791e-31  4.89491e-30        00000 
-5.35728e-30 -2.93729e-29        00000 
 3.23173e-29  1.90488e-28        00000 
-1.95362e-28 -1.27159e-27        00000 
 1.18371e-27  7.61402e-27        00000 
-7.19001e-27 -5.16177e-26        00000 
 4.37881e-26  3.44328e-25        00000 
-2.67387e-25 -2.06049e-24        00000 