<?xml version="1.0" encoding="utf-8"?>
<VTKFile byte_order="LittleEndian" type="UnstructuredGrid" version="0.1">
   <UnstructuredGrid>
      <Piece NumberOfCells="3364" NumberOfPoints="1741">
         <Points>
            <DataArray Name="Points" NumberOfComponents="3" format="ascii" type="Float32">
0.0000 1.0000 0.0000
0.0000 1.0345 0.0000
0.0000 1.0690 0.0000
0.0000 1.1034 0.0000
0.0000 1.1379 0.0000
0.0000 1.1724 0.0000
0.0000 1.2069 0.0000
0.0000 1.2414 0.0000
0.0000 1.2759 0.0000
0.0000 1.3103 0.0000
0.0000 1.3448 0.0000
0.0000 1.3793 0.0000
0.0000 1.4138 0.0000
0.0000 1.4483 0.0000
0.0000 1.4828 0.0000
0.0000 1.5172 0.0000
0.0000 1.5517 0.0000
0.0000 1.5862 0.0000
0.0000 1.6207 0.0000
0.0000 1.6552 0.0000
0.0000 1.6897 0.0000
0.0000 1.7241 0.0000
0.0000 1.7586 0.0000
0.0000 1.7931 0.0000
0.0000 1.8276 0.0000
0.0000 1.8621 0.0000
0.0000 1.8966 0.0000
0.0000 1.9310 0.0000
0.0000 1.9655 0.0000
0.0000 2.0000 0.0000
0.0690 1.0000 0.0000
0.0690 1.0345 0.0000
0.0690 1.0690 0.0000
0.0690 1.1034 0.0000
0.0690 1.1379 0.0000
0.0690 1.1724 0.0000
0.0690 1.2069 0.0000
0.0690 1.2414 0.0000
0.0690 1.2759 0.0000
0.0690 1.3103 0.0000
0.0690 1.3448 0.0000
0.0690 1.3793 0.0000
0.0690 1.4138 0.0000
0.0690 1.4483 0.0000
0.0690 1.4828 0.0000
0.0690 1.5172 0.0000
0.0690 1.5517 0.0000
0.0690 1.5862 0.0000
0.0690 1.6207 0.0000
0.0690 1.6552 0.0000
0.0690 1.6897 0.0000
0.0690 1.7241 0.0000
0.0690 1.7586 0.0000
0.0690 1.7931 0.0000
0.0690 1.8276 0.0000
0.0690 1.8621 0.0000
0.0690 1.8966 0.0000
0.0690 1.9310 0.0000
0.0690 1.9655 0.0000
0.0690 2.0000 0.0000
0.1379 1.0000 0.0000
0.1379 1.0345 0.0000
0.1379 1.0690 0.0000
0.1379 1.1034 0.0000
0.1379 1.1379 0.0000
0.1379 1.1724 0.0000
0.1379 1.2069 0.0000
0.1379 1.2414 0.0000
0.1379 1.2759 0.0000
0.1379 1.3103 0.0000
0.1379 1.3448 0.0000
0.1379 1.3793 0.0000
0.1379 1.4138 0.0000
0.1379 1.4483 0.0000
0.1379 1.4828 0.0000
0.1379 1.5172 0.0000
0.1379 1.5517 0.0000
0.1379 1.5862 0.0000
0.1379 1.6207 0.0000
0.1379 1.6552 0.0000
0.1379 1.6897 0.0000
0.1379 1.7241 0.0000
0.1379 1.7586 0.0000
0.1379 1.7931 0.0000
0.1379 1.8276 0.0000
0.1379 1.8621 0.0000
0.1379 1.8966 0.0000
0.1379 1.9310 0.0000
0.1379 1.9655 0.0000
0.1379 2.0000 0.0000
0.2069 1.0000 0.0000
0.2069 1.0345 0.0000
0.2069 1.0690 0.0000
0.2069 1.1034 0.0000
0.2069 1.1379 0.0000
0.2069 1.1724 0.0000
0.2069 1.2069 0.0000
0.2069 1.2414 0.0000
0.2069 1.2759 0.0000
0.2069 1.3103 0.0000
0.2069 1.3448 0.0000
0.2069 1.3793 0.0000
0.2069 1.4138 0.0000
0.2069 1.4483 0.0000
0.2069 1.4828 0.0000
0.2069 1.5172 0.0000
0.2069 1.5517 0.0000
0.2069 1.5862 0.0000
0.2069 1.6207 0.0000
0.2069 1.6552 0.0000
0.2069 1.6897 0.0000
0.2069 1.7241 0.0000
0.2069 1.7586 0.0000
0.2069 1.7931 0.0000
0.2069 1.8276 0.0000
0.2069 1.8621 0.0000
0.2069 1.8966 0.0000
0.2069 1.9310 0.0000
0.2069 1.9655 0.0000
0.2069 2.0000 0.0000
0.2759 1.0000 0.0000
0.2759 1.0345 0.0000
0.2759 1.0690 0.0000
0.2759 1.1034 0.0000
0.2759 1.1379 0.0000
0.2759 1.1724 0.0000
0.2759 1.2069 0.0000
0.2759 1.2414 0.0000
0.2759 1.2759 0.0000
0.2759 1.3103 0.0000
0.2759 1.3448 0.0000
0.2759 1.3793 0.0000
0.2759 1.4138 0.0000
0.2759 1.4483 0.0000
0.2759 1.4828 0.0000
0.2759 1.5172 0.0000
0.2759 1.5517 0.0000
0.2759 1.5862 0.0000
0.2759 1.6207 0.0000
0.2759 1.6552 0.0000
0.2759 1.6897 0.0000
0.2759 1.7241 0.0000
0.2759 1.7586 0.0000
0.2759 1.7931 0.0000
0.2759 1.8276 0.0000
0.2759 1.8621 0.0000
0.2759 1.8966 0.0000
0.2759 1.9310 0.0000
0.2759 1.9655 0.0000
0.2759 2.0000 0.0000
0.3448 1.0000 0.0000
0.3448 1.0345 0.0000
0.3448 1.0690 0.0000
0.3448 1.1034 0.0000
0.3448 1.1379 0.0000
0.3448 1.1724 0.0000
0.3448 1.2069 0.0000
0.3448 1.2414 0.0000
0.3448 1.2759 0.0000
0.3448 1.3103 0.0000
0.3448 1.3448 0.0000
0.3448 1.3793 0.0000
0.3448 1.4138 0.0000
0.3448 1.4483 0.0000
0.3448 1.4828 0.0000
0.3448 1.5172 0.0000
0.3448 1.5517 0.0000
0.3448 1.5862 0.0000
0.3448 1.6207 0.0000
0.3448 1.6552 0.0000
0.3448 1.6897 0.0000
0.3448 1.7241 0.0000
0.3448 1.7586 0.0000
0.3448 1.7931 0.0000
0.3448 1.8276 0.0000
0.3448 1.8621 0.0000
0.3448 1.8966 0.0000
0.3448 1.9310 0.0000
0.3448 1.9655 0.0000
0.3448 2.0000 0.0000
0.4138 1.0000 0.0000
0.4138 1.0345 0.0000
0.4138 1.0690 0.0000
0.4138 1.1034 0.0000
0.4138 1.1379 0.0000
0.4138 1.1724 0.0000
0.4138 1.2069 0.0000
0.4138 1.2414 0.0000
0.4138 1.2759 0.0000
0.4138 1.3103 0.0000
0.4138 1.3448 0.0000
0.4138 1.3793 0.0000
0.4138 1.4138 0.0000
0.4138 1.4483 0.0000
0.4138 1.4828 0.0000
0.4138 1.5172 0.0000
0.4138 1.5517 0.0000
0.4138 1.5862 0.0000
0.4138 1.6207 0.0000
0.4138 1.6552 0.0000
0.4138 1.6897 0.0000
0.4138 1.7241 0.0000
0.4138 1.7586 0.0000
0.4138 1.7931 0.0000
0.4138 1.8276 0.0000
0.4138 1.8621 0.0000
0.4138 1.8966 0.0000
0.4138 1.9310 0.0000
0.4138 1.9655 0.0000
0.4138 2.0000 0.0000
0.4828 1.0000 0.0000
0.4828 1.0345 0.0000
0.4828 1.0690 0.0000
0.4828 1.1034 0.0000
0.4828 1.1379 0.0000
0.4828 1.1724 0.0000
0.4828 1.2069 0.0000
0.4828 1.2414 0.0000
0.4828 1.2759 0.0000
0.4828 1.3103 0.0000
0.4828 1.3448 0.0000
0.4828 1.3793 0.0000
0.4828 1.4138 0.0000
0.4828 1.4483 0.0000
0.4828 1.4828 0.0000
0.4828 1.5172 0.0000
0.4828 1.5517 0.0000
0.4828 1.5862 0.0000
0.4828 1.6207 0.0000
0.4828 1.6552 0.0000
0.4828 1.6897 0.0000
0.4828 1.7241 0.0000
0.4828 1.7586 0.0000
0.4828 1.7931 0.0000
0.4828 1.8276 0.0000
0.4828 1.8621 0.0000
0.4828 1.8966 0.0000
0.4828 1.9310 0.0000
0.4828 1.9655 0.0000
0.4828 2.0000 0.0000
0.5517 1.0000 0.0000
0.5517 1.0345 0.0000
0.5517 1.0690 0.0000
0.5517 1.1034 0.0000
0.5517 1.1379 0.0000
0.5517 1.1724 0.0000
0.5517 1.2069 0.0000
0.5517 1.2414 0.0000
0.5517 1.2759 0.0000
0.5517 1.3103 0.0000
0.5517 1.3448 0.0000
0.5517 1.3793 0.0000
0.5517 1.4138 0.0000
0.5517 1.4483 0.0000
0.5517 1.4828 0.0000
0.5517 1.5172 0.0000
0.5517 1.5517 0.0000
0.5517 1.5862 0.0000
0.5517 1.6207 0.0000
0.5517 1.6552 0.0000
0.5517 1.6897 0.0000
0.5517 1.7241 0.0000
0.5517 1.7586 0.0000
0.5517 1.7931 0.0000
0.5517 1.8276 0.0000
0.5517 1.8621 0.0000
0.5517 1.8966 0.0000
0.5517 1.9310 0.0000
0.5517 1.9655 0.0000
0.5517 2.0000 0.0000
0.6207 1.0000 0.0000
0.6207 1.0345 0.0000
0.6207 1.0690 0.0000
0.6207 1.1034 0.0000
0.6207 1.1379 0.0000
0.6207 1.1724 0.0000
0.6207 1.2069 0.0000
0.6207 1.2414 0.0000
0.6207 1.2759 0.0000
0.6207 1.3103 0.0000
0.6207 1.3448 0.0000
0.6207 1.3793 0.0000
0.6207 1.4138 0.0000
0.6207 1.4483 0.0000
0.6207 1.4828 0.0000
0.6207 1.5172 0.0000
0.6207 1.5517 0.0000
0.6207 1.5862 0.0000
0.6207 1.6207 0.0000
0.6207 1.6552 0.0000
0.6207 1.6897 0.0000
0.6207 1.7241 0.0000
0.6207 1.7586 0.0000
0.6207 1.7931 0.0000
0.6207 1.8276 0.0000
0.6207 1.8621 0.0000
0.6207 1.8966 0.0000
0.6207 1.9310 0.0000
0.6207 1.9655 0.0000
0.6207 2.0000 0.0000
0.6897 1.0000 0.0000
0.6897 1.0345 0.0000
0.6897 1.0690 0.0000
0.6897 1.1034 0.0000
0.6897 1.1379 0.0000
0.6897 1.1724 0.0000
0.6897 1.2069 0.0000
0.6897 1.2414 0.0000
0.6897 1.2759 0.0000
0.6897 1.3103 0.0000
0.6897 1.3448 0.0000
0.6897 1.3793 0.0000
0.6897 1.4138 0.0000
0.6897 1.4483 0.0000
0.6897 1.4828 0.0000
0.6897 1.5172 0.0000
0.6897 1.5517 0.0000
0.6897 1.5862 0.0000
0.6897 1.6207 0.0000
0.6897 1.6552 0.0000
0.6897 1.6897 0.0000
0.6897 1.7241 0.0000
0.6897 1.7586 0.0000
0.6897 1.7931 0.0000
0.6897 1.8276 0.0000
0.6897 1.8621 0.0000
0.6897 1.8966 0.0000
0.6897 1.9310 0.0000
0.6897 1.9655 0.0000
0.6897 2.0000 0.0000
0.7586 1.0000 0.0000
0.7586 1.0345 0.0000
0.7586 1.0690 0.0000
0.7586 1.1034 0.0000
0.7586 1.1379 0.0000
0.7586 1.1724 0.0000
0.7586 1.2069 0.0000
0.7586 1.2414 0.0000
0.7586 1.2759 0.0000
0.7586 1.3103 0.0000
0.7586 1.3448 0.0000
0.7586 1.3793 0.0000
0.7586 1.4138 0.0000
0.7586 1.4483 0.0000
0.7586 1.4828 0.0000
0.7586 1.5172 0.0000
0.7586 1.5517 0.0000
0.7586 1.5862 0.0000
0.7586 1.6207 0.0000
0.7586 1.6552 0.0000
0.7586 1.6897 0.0000
0.7586 1.7241 0.0000
0.7586 1.7586 0.0000
0.7586 1.7931 0.0000
0.7586 1.8276 0.0000
0.7586 1.8621 0.0000
0.7586 1.8966 0.0000
0.7586 1.9310 0.0000
0.7586 1.9655 0.0000
0.7586 2.0000 0.0000
0.8276 1.0000 0.0000
0.8276 1.0345 0.0000
0.8276 1.0690 0.0000
0.8276 1.1034 0.0000
0.8276 1.1379 0.0000
0.8276 1.1724 0.0000
0.8276 1.2069 0.0000
0.8276 1.2414 0.0000
0.8276 1.2759 0.0000
0.8276 1.3103 0.0000
0.8276 1.3448 0.0000
0.8276 1.3793 0.0000
0.8276 1.4138 0.0000
0.8276 1.4483 0.0000
0.8276 1.4828 0.0000
0.8276 1.5172 0.0000
0.8276 1.5517 0.0000
0.8276 1.5862 0.0000
0.8276 1.6207 0.0000
0.8276 1.6552 0.0000
0.8276 1.6897 0.0000
0.8276 1.7241 0.0000
0.8276 1.7586 0.0000
0.8276 1.7931 0.0000
0.8276 1.8276 0.0000
0.8276 1.8621 0.0000
0.8276 1.8966 0.0000
0.8276 1.9310 0.0000
0.8276 1.9655 0.0000
0.8276 2.0000 0.0000
0.8966 1.0000 0.0000
0.8966 1.0345 0.0000
0.8966 1.0690 0.0000
0.8966 1.1034 0.0000
0.8966 1.1379 0.0000
0.8966 1.1724 0.0000
0.8966 1.2069 0.0000
0.8966 1.2414 0.0000
0.8966 1.2759 0.0000
0.8966 1.3103 0.0000
0.8966 1.3448 0.0000
0.8966 1.3793 0.0000
0.8966 1.4138 0.0000
0.8966 1.4483 0.0000
0.8966 1.4828 0.0000
0.8966 1.5172 0.0000
0.8966 1.5517 0.0000
0.8966 1.5862 0.0000
0.8966 1.6207 0.0000
0.8966 1.6552 0.0000
0.8966 1.6897 0.0000
0.8966 1.7241 0.0000
0.8966 1.7586 0.0000
0.8966 1.7931 0.0000
0.8966 1.8276 0.0000
0.8966 1.8621 0.0000
0.8966 1.8966 0.0000
0.8966 1.9310 0.0000
0.8966 1.9655 0.0000
0.8966 2.0000 0.0000
0.9655 1.0000 0.0000
0.9655 1.0345 0.0000
0.9655 1.0690 0.0000
0.9655 1.1034 0.0000
0.9655 1.1379 0.0000
0.9655 1.1724 0.0000
0.9655 1.2069 0.0000
0.9655 1.2414 0.0000
0.9655 1.2759 0.0000
0.9655 1.3103 0.0000
0.9655 1.3448 0.0000
0.9655 1.3793 0.0000
0.9655 1.4138 0.0000
0.9655 1.4483 0.0000
0.9655 1.4828 0.0000
0.9655 1.5172 0.0000
0.9655 1.5517 0.0000
0.9655 1.5862 0.0000
0.9655 1.6207 0.0000
0.9655 1.6552 0.0000
0.9655 1.6897 0.0000
0.9655 1.7241 0.0000
0.9655 1.7586 0.0000
0.9655 1.7931 0.0000
0.9655 1.8276 0.0000
0.9655 1.8621 0.0000
0.9655 1.8966 0.0000
0.9655 1.9310 0.0000
0.9655 1.9655 0.0000
0.9655 2.0000 0.0000
1.0345 1.0000 0.0000
1.0345 1.0345 0.0000
1.0345 1.0690 0.0000
1.0345 1.1034 0.0000
1.0345 1.1379 0.0000
1.0345 1.1724 0.0000
1.0345 1.2069 0.0000
1.0345 1.2414 0.0000
1.0345 1.2759 0.0000
1.0345 1.3103 0.0000
1.0345 1.3448 0.0000
[...]
         <PointData>
            <DataArray Name="fValues" NumberOfComponents="3" format="ascii" type="Float64">
-2.15303e-32 -8.17901e-33        00000 
 2.08093e-32  7.91052e-33        00000 
-1.88714e-32 -7.15628e-33        00000 
 1.61127e-32  6.05423e-33        00000 
-1.25749e-32 -4.78834e-33        00000 
 1.28968e-32  3.53918e-33        00000 
-5.56752e-33 -2.44369e-33        00000 
 3.13546e-33  1.57569e-33        00000 
-1.49267e-33 -9.48607e-34        00000 
 7.06349e-34  5.33185e-34        00000 
-3.88682e-34 -2.79863e-34        00000 
 2.32748e-34  1.37253e-34        00000 
-1.32729e-34 -6.29508e-35        00000 
 6.83736e-35  2.70367e-35        00000 
-3.17063e-35 -1.08928e-35        00000 
 1.33725e-35  4.12583e-36        00000 
-5.18683e-36 -1.47297e-36        00000 
 1.87072e-36  4.97135e-37        00000 
-6.33977e-37 -1.59134e-37        00000 
 2.03661e-37  4.84790e-38        00000 
-6.24365e-38 -1.41051e-38        00000 
 1.83591e-38  3.93334e-39        00000 
-5.19803e-39 -1.05487e-39        00000 
 1.42168e-39  2.72972e-40        00000 
-3.76668e-40 -6.83686e-41        00000 
 9.69236e-41  1.66212e-41        00000 
-2.42827e-41 -3.93296e-42        00000 
 5.95084e-42  9.09778e-43        00000 
-1.49393e-42 -2.14655e-43        00000 
 6.63596e-43  9.05616e-44        00000 
 6.61810e-32  2.51018e-32        00000 
-6.37218e-32 -2.42407e-32        00000 
 5.73034e-32  2.18287e-32        00000 
-4.89494e-32 -1.83250e-32        00000 
 3.89289e-32  1.43359e-32        00000 
-2.02324e-32 -1.04466e-32        00000 
 1.66759e-32  7.08749e-33        00000 
-8.32870e-33 -4.47526e-33        00000 
 3.50296e-33  2.62940e-33        00000 
-1.72093e-33 -1.43756e-33        00000 
 1.06272e-33  7.31612e-34        00000 
-6.56071e-34 -3.46864e-34        00000 
 3.62190e-34  1.53389e-34        00000 
-1.76631e-34 -6.33788e-35        00000 
 7.73431e-35  2.45237e-35        00000 
-3.08251e-35 -8.91088e-36        00000 
 1.13288e-35  3.05028e-36        00000 
-3.88961e-36 -9.87160e-37        00000 
 1.26119e-36  3.03191e-37        00000 
-3.89301e-37 -8.87213e-38        00000 
 1.15050e-37  2.48323e-38        00000 
-3.26906e-38 -6.67322e-39        00000 
 8.96182e-39  1.72803e-39        00000 
-2.37746e-39 -4.32643e-40        00000 
 6.12016e-40  1.05056e-40        00000 
-1.53266e-40 -2.48119e-41        00000 
 3.74310e-41  5.71477e-42        00000 
-8.95478e-42 -1.28895e-42        00000 
 2.19456e-42  2.96599e-43        00000 
-9.56676e-43 -1.22678e-43        00000 
-3.86406e-31 -1.46063e-31        00000 
 3.70345e-31  1.40792e-31        00000 
-3.28126e-31 -1.26077e-31        00000 
 2.77891e-31  1.04850e-31        00000 
-2.30539e-31 -8.09395e-32        00000 
 1.58517e-31  5.79623e-32        00000 
-9.40463e-32 -3.84828e-32        00000 
 3.60268e-32  2.36761e-32        00000 
-1.34149e-32 -1.34947e-32        00000 
 8.29976e-33  7.12602e-33        00000 
-5.74608e-33 -3.48800e-33        00000 
 3.49389e-33  1.58412e-33        00000 
-1.79939e-33 -6.68622e-34        00000 
 8.16667e-34  2.62857e-34        00000 
-3.32697e-34 -9.65272e-35        00000 
 1.23476e-34  3.32252e-35        00000 
-4.24736e-35 -1.07617e-35        00000 
 1.37372e-35  3.29415e-36        00000 
-4.21894e-36 -9.57181e-37        00000 
 1.23822e-36  2.65201e-37        00000 
-3.48819e-37 -7.03685e-38        00000 
 9.46594e-38  1.79556e-38        00000 
-2.48243e-38 -4.42296e-39        00000 
 6.30997e-39  1.05546e-39        00000 
-1.55890e-39 -2.44775e-40        00000 
 3.75295e-40  5.53267e-41        00000 
-8.82634e-41 -1.22202e-41        00000 
 2.03652e-41  2.64779e-42        00000 
-4.81053e-42 -5.84993e-43        00000 
 2.03628e-42  2.34080e-43        00000 
 2.32263e-30  8.73563e-31        00000 
-2.21646e-30 -8.40391e-31        00000 
 1.93410e-30  7.48126e-31        00000 
-1.57912e-30 -6.16003e-31        00000 
 1.37715e-30  4.68833e-31        00000 
-1.10182e-30 -3.29568e-31        00000 
 4.87693e-31  2.13814e-31        00000 
-1.05091e-31 -1.27948e-31        00000 
 5.91152e-32  7.06002e-32        00000 
-4.65880e-32 -3.59270e-32        00000 
 3.37726e-32  1.68728e-32        00000 
-1.86673e-32 -7.32338e-33        00000 
 8.89383e-33  2.94390e-33        00000 
-3.74977e-33 -1.09924e-33        00000 
 1.41633e-33  3.82653e-34        00000 
-4.90660e-34 -1.24719e-34        00000 
 1.59001e-34  3.82421e-35        00000 
-4.88001e-35 -1.10871e-35        00000 
 1.42857e-35  3.05464e-36        00000 
-4.00673e-36 -8.03746e-37        00000 
 1.08059e-36  2.02917e-37        00000 
-2.81185e-37 -4.93664e-38        00000 
 7.08227e-38  1.16187e-38        00000 
-1.73191e-38 -2.65475e-39        00000 
 4.12333e-39  5.90725e-40        00000 
-9.58312e-40 -1.28364e-40        00000 
 2.17973e-40  2.73075e-41        00000 
-4.87144e-41 -5.70756e-42        00000 
 1.11410e-41  1.21581e-42        00000 
-4.59468e-42 -4.72058e-43        00000 
-1.40147e-29 -5.23597e-30        00000 
 1.33125e-29  5.02628e-30        00000 
-1.14525e-29 -4.44532e-30        00000 
 9.04169e-30  3.62004e-30        00000 
-6.94237e-30 -2.71205e-30        00000 
 9.37446e-30  1.86734e-30        00000 
-5.19584e-31 -1.18053e-30        00000 
 4.45331e-31  6.84762e-31        00000 
-2.59171e-31 -3.64325e-31        00000 
 3.17038e-31  1.77852e-31        00000 
-1.89681e-31 -7.97464e-32        00000 
 9.54380e-32  3.29079e-32        00000 
-4.22607e-32 -1.25341e-32        00000 
 1.63243e-32  4.42356e-33        00000 
-5.69835e-33 -1.45337e-33        00000 
 1.84987e-33  4.46926e-34        00000 
-5.67608e-34 -1.29370e-34        00000 
 1.65855e-34  3.54568e-35        00000 
-4.63449e-35 -9.25313e-36        00000 
 1.24282e-35  2.31159e-36        00000 
-3.21024e-36 -5.55496e-37        00000 
 8.01504e-37  1.28973e-37        00000 
-1.94093e-37 -2.90434e-38        00000 
 4.57194e-38  6.36520e-39        00000 
-1.05069e-38 -1.36172e-39        00000 
 2.36231e-39  2.85104e-40        00000 
-5.20842e-40 -5.85554e-41        00000 
 1.13018e-40  1.18357e-41        00000 
-2.50929e-41 -2.43770e-42        00000 
 1.01038e-41  9.20423e-43        00000 
 8.48695e-29  3.14342e-29        00000 
-8.01715e-29 -3.01029e-29        00000 
 6.79141e-29  2.64306e-29        00000 
-5.22992e-29 -2.12596e-29        00000 
 3.73955e-29  1.56475e-29        00000 
-2.50285e-29 -1.05248e-29        00000 
 1.53034e-29  6.46147e-30        00000 
-8.32168e-30 -3.61762e-30        00000 
 3.00409e-30  1.84663e-30        00000 
-1.90011e-30 -8.59920e-31        00000 
 9.89003e-31  3.65900e-31        00000 
-4.75196e-31 -1.42662e-31        00000 
 1.88985e-31  5.11730e-32        00000 
-6.64054e-32 -1.69742e-32        00000 
 2.15583e-32  5.23813e-33        00000 
-6.61053e-33 -1.51377e-33        00000 
 1.92836e-33  4.12447e-34        00000 
-5.36849e-34 -1.06647e-34        00000 
 1.43098e-34  2.63308e-35        00000 
-3.66659e-35 -6.24189e-36        00000 
 9.06880e-36  1.42773e-36        00000 
-2.17302e-36 -3.16465e-37        00000 
 5.06037e-37  6.82306e-38        00000 
-1.14901e-37 -1.43552e-38        00000 
 2.55230e-38  2.95544e-39        00000 
-5.55928e-39 -5.96844e-40        00000 
 1.18981e-39  1.18478e-40        00000 
-2.51038e-40 -2.31861e-41        00000 
 5.41984e-41  4.62342e-42        00000 
-2.13332e-41 -1.69924e-42        00000 
-5.16292e-28 -1.89050e-28        00000 
 4.84210e-28  1.80560e-28        00000 
-4.02431e-28 -1.57249e-28        00000 
 3.02320e-28  1.24739e-28        00000 
-2.10207e-28 -8.99880e-29        00000 
 1.37384e-28  5.89365e-29        00000 
-8.42144e-29 -3.49886e-29        00000 
 4.51239e-29  1.88094e-29        00000 
-2.02603e-29 -9.15538e-30        00000 
 9.26762e-30  4.03917e-30        00000 
-5.33832e-30 -1.61921e-30        00000 
 2.20538e-30  5.92196e-31        00000 
-7.77601e-31 -1.98697e-31        00000 
 2.51509e-31  6.15802e-32        00000 
-7.70366e-32 -1.77635e-32        00000 
 2.24463e-32  4.80719e-33        00000 
-6.22668e-33 -1.22989e-33        00000 
 1.64890e-33  2.99604e-34        00000 
-4.18692e-34 -6.99364e-35        00000 
 1.02468e-34  1.57309e-35        00000 
-2.42724e-35 -3.42597e-36        00000 
 5.58228e-36  7.25401e-37        00000 
-1.25063e-36 -1.49850e-37        00000 
 2.74230e-37  3.02905e-38        00000 
-5.89690e-38 -6.00654e-39        00000 
 1.24604e-38  1.17097e-39        00000 
-2.59213e-39 -2.24841e-40        00000 
 5.32485e-40  4.26327e-41        00000 
-1.11950e-40 -8.23662e-42        00000 
 4.31215e-41  2.94774e-42        00000 
 3.16018e-27  1.13923e-27        00000 
-2.93445e-27 -1.08481e-27        00000 
 2.37823e-27  9.36153e-28        00000 
-1.73580e-27 -7.31018e-28        00000 
 1.17996e-27  5.15422e-28        00000 
-7.58563e-28 -3.27373e-28        00000 
 4.58064e-28  1.86942e-28        00000 
-2.54341e-28 -9.58665e-29        00000 
 5.28236e-29  4.41568e-29        00000 
-6.07868e-29 -1.83027e-29        00000 
 2.61056e-29  6.85318e-30        00000 
-9.17589e-30 -2.33179e-30        00000 
 2.93305e-30  7.26522e-31        00000 
-8.97502e-31 -2.09145e-31        00000 
 2.61573e-31  5.61524e-32        00000 
-7.23348e-32 -1.41901e-32        00000 
 1.90192e-32  3.40363e-33        00000 
-4.77923e-33 -7.80634e-34        00000 
 1.15569e-33  1.72288e-34        00000 
-2.70316e-34 -3.67877e-35        00000 
 6.13494e-35  7.63388e-36        00000 
-1.35303e-35 -1.54535e-36        00000 
 2.92678e-36  3.06137e-37        00000 
-6.20832e-37 -5.95064e-38        00000 
 1.29423e-37  1.13745e-38        00000 
-2.65675e-38 -2.14206e-39        00000 
 5.37956e-39  3.98066e-40        00000 
-1.07743e-39 -7.31610e-41        00000 
 2.20908e-40  1.36989e-41        00000 
-8.33627e-41 -4.77360e-42        00000 
-1.95170e-26 -6.88033e-27        00000 
 1.78561e-26  6.52968e-27        00000 
-1.39715e-26 -5.57692e-27        00000 
 9.85949e-27  4.27733e-27        00000 
-6.57826e-27 -2.93707e-27        00000 
 4.17400e-27  1.79991e-27        00000 
-2.46826e-27 -9.81958e-28        00000 
 1.33851e-27  4.76352e-28        00000 
-7.59764e-28 -2.05640e-28        00000 
 3.15236e-28  7.92606e-29        00000 
-1.09801e-28 -2.74410e-29        00000 
 3.40417e-29  8.60762e-30        00000 
-1.04362e-29 -2.47220e-30        00000 
 3.05245e-30  6.57557e-31        00000 
-8.42078e-31 -1.63773e-31        00000 
 2.19719e-31  3.85799e-32        00000 
-5.45188e-32 -8.67055e-33        00000 
 1.30047e-32  1.87265e-33        00000 
-2.99728e-33 -3.91024e-34        00000 
 6.72220e-34  7.93304e-35        00000 
-1.45133e-34 -1.57011e-35        00000 
 3.09979e-35  3.04177e-36        00000 
-6.48021e-36 -5.78388e-37        00000 
 1.33155e-36  1.08192e-37        00000 
-2.69516e-37 -1.99464e-38        00000 
 5.38310e-38  3.62996e-39        00000 
-1.06258e-38 -6.52934e-40        00000 
 2.07800e-39  1.16302e-40        00000 
-4.16155e-40 -2.10963e-41        00000 
 1.54035e-40  7.15196e-42        00000 
 1.22281e-25  4.16567e-26        00000 
-1.09150e-25 -3.93845e-26        00000 
 8.10068e-26  3.32456e-26        00000 
-5.51800e-26 -2.49758e-26        00000 
 3.65697e-26  1.66264e-26        00000 
-2.29505e-26 -9.76560e-27        00000 
 1.31529e-26  5.04483e-27        00000 
-6.90095e-27 -2.28990e-27        00000 
 3.04794e-27  9.15192e-28        00000 
-1.32464e-27 -3.23916e-28        00000 
 3.91960e-28  1.02497e-28        00000 
-1.20911e-28 -2.93623e-29        00000 
 3.56995e-29  7.72230e-30        00000 
-9.83597e-30 -1.89025e-30        00000 
 2.54121e-30  4.35904e-31        00000 
-6.22472e-31 -9.56771e-32        00000 
 1.45995e-31  2.01560e-32        00000 
-3.30395e-32 -4.10312e-33        00000 
 7.25816e-33  8.11496e-34        00000 
-1.55482e-33 -1.56607e-34        00000 
 3.25868e-34  2.95939e-35        00000 
-6.69800e-35 -5.49146e-36        00000 
 1.35502e-35  1.00289e-36        00000 
-2.70196e-36 -1.80591e-37        00000 
 5.31964e-37  3.21114e-38        00000 
-1.03561e-37 -5.64497e-39        00000 
 1.99612e-38  9.82012e-40        00000 
-3.81775e-39 -1.69301e-40        00000 
 7.48007e-40  2.96929e-41        00000 
-2.71903e-40 -9.76941e-42        00000 
-7.87041e-25 -2.52910e-25        00000 
 6.69221e-25  2.38105e-25        00000 
-4.54930e-25 -1.98326e-25        00000 
 3.04791e-25  1.45439e-25        00000 
-2.05109e-25 -9.33057e-26        00000 
 1.25494e-25  5.20555e-26        00000 
-6.96774e-26 -2.51586e-26        00000 
 3.32808e-26  1.05312e-26        00000 
-1.86809e-26 -3.83580e-27        00000 
 4.32103e-27  1.22804e-27        00000 
-1.38712e-27 -3.50787e-28        00000 
 4.19617e-28  9.09915e-29        00000 
-1.15522e-28 -2.18079e-29        00000 
 2.94643e-29  4.90255e-30        00000 
-7.09206e-30 -1.04652e-30        00000 
 1.63217e-30  2.14184e-31        00000 
-3.62393e-31 -4.23472e-32        00000 
 7.81251e-32  8.13605e-33        00000 
-1.64301e-32 -1.52598e-33        00000 
 3.38304e-33  2.80409e-34        00000 
-6.84017e-34 -5.06256e-35        00000 
 1.36130e-34  9.00013e-36        00000 
-2.67197e-35 -1.57827e-36        00000 
 5.18182e-36  2.73369e-37        00000 
-9.94343e-37 -4.68162e-38        00000 
 1.89034e-37  7.93301e-39        00000 
-3.56423e-38 -1.33074e-39        00000 
 6.67796e-39  2.21174e-40        00000 
-1.28216e-39 -3.73024e-41        00000 
 4.58287e-40  1.18352e-41        00000 
 5.39879e-24  1.54022e-24        00000 
-4.04991e-24 -1.44328e-24        00000 
 2.33405e-24  1.18403e-24        00000 
-1.74565e-24 -8.43849e-25        00000 
 1.16078e-24  5.17473e-25        00000 
-6.64000e-25 -2.70781e-25        00000 
 3.79869e-25  1.20389e-25        00000 
-1.53523e-25 -4.55652e-26        00000 
 3.82278e-26  1.48264e-26        00000 
-1.57706e-26 -4.22185e-27        00000 
 4.99457e-27  1.07628e-27        00000 
-1.36873e-27 -2.51290e-28        00000 
 3.42483e-28  5.47685e-29        00000 
-8.06162e-29 -1.13091e-29        00000 
 1.81427e-29  2.23730e-30        00000 
-3.94223e-30 -4.27627e-31        00000 
 8.32516e-31  7.94678e-32        00000 
-1.71662e-31 -1.44268e-32        00000 
 3.46833e-32  2.56782e-33        00000 
-6.88652e-33 -4.49328e-34        00000 
 1.34700e-33  7.74562e-35        00000 
-2.60067e-34 -1.31735e-35        00000 
 4.96474e-35  2.21289e-36        00000 
-9.38517e-36 -3.67393e-37        00000 
 1.75903e-36  6.03051e-38        00000 
-3.27219e-37 -9.78630e-39        00000 
 6.04632e-38  1.56948e-39        00000 
-1.11157e-38 -2.48662e-40        00000 
 2.09468e-39  3.97035e-41        00000 
-7.37119e-40 -1.19226e-41        00000 
-4.56307e-23 -9.41092e-24        00000 
 2.03963e-23  8.77453e-24        00000 
-8.92820e-24 -7.07582e-24        00000 
 1.36257e-23  4.87216e-24        00000 
-4.43923e-24 -2.82214e-24        00000 
 4.33770e-24  1.35944e-24        00000 
-1.87030e-24 -5.42550e-25        00000 
 6.24839e-25  1.80744e-25        00000 
-1.87556e-25 -5.13009e-26        00000 
 6.12215e-26  1.27875e-26        00000 
-1.64232e-26 -2.88788e-27        00000 
 3.98661e-27  6.05707e-28        00000 
-9.12054e-28 -1.20138e-28        00000 
 1.99991e-28  2.28260e-29        00000 
-4.24239e-29 -4.19280e-30        00000 
 8.76035e-30  7.49495e-31        00000 
-1.76853e-30 -1.31006e-31        00000 
 3.50168e-31  2.24682e-32        00000 
-6.82000e-32 -3.79013e-33        00000 
 1.30982e-32  6.29911e-34        00000 
-2.48532e-33 -1.03251e-34        00000 
 4.66703e-34  1.66998e-35        00000 
-8.68626e-35 -2.66505e-36        00000 
 1.60439e-35  4.19377e-37        00000 
-2.94385e-36 -6.49885e-38        00000 
 5.36922e-37  9.89534e-39        00000 
-9.73932e-38 -1.47514e-39        00000 
 1.75956e-38  2.14112e-40        00000 
-3.25931e-39 -3.04310e-41        00000 
 1.13055e-39  7.94095e-42        00000 
 2.03211e-22  5.76916e-23        00000 
-1.90575e-22 -5.35287e-23        00000 
 1.53961e-22  4.23534e-23        00000 
-1.00471e-22 -2.79390e-23        00000 
 4.79647e-23  1.50039e-23        00000 
-2.12427e-23 -6.46027e-24        00000 
 8.44454e-24  2.23107e-24        00000 
-2.75230e-24 -6.31501e-25        00000 
 7.86083e-25  1.52705e-25        00000 
-1.99572e-25 -3.30131e-26        00000 
 4.62541e-26  6.59535e-27        00000 
-1.02240e-26 -1.24478e-27        00000 
 2.17794e-27  2.25218e-28        00000 
-4.50117e-28 -3.94465e-29        00000 
 9.07458e-29  6.73246e-30        00000 
-1.79142e-29 -1.12467e-30        00000 
 3.47126e-30  1.84427e-31        00000 
-6.62332e-31 -2.97396e-32        00000 
 1.24785e-31  4.71957e-33        00000 
-2.32496e-32 -7.37043e-34        00000 
 4.29150e-33  1.13154e-34        00000 
-7.86003e-34 -1.70414e-35        00000 
 1.43014e-34  2.50822e-36        00000 
-2.58824e-35 -3.58523e-37        00000 
 4.65938e-36  4.92297e-38        00000 
-8.34591e-37 -6.36254e-39        00000 
 1.48831e-37  7.40273e-40        00000 
-2.64634e-38 -6.79495e-41        00000 
 4.82558e-39  1.33490e-42        00000 
-1.65170e-39  2.64971e-42        00000 
-1.22476e-21 -3.54549e-22        00000 
 1.17302e-21  3.27890e-22        00000 
-9.55625e-22 -2.54348e-22        00000 
 5.92661e-22  1.58576e-22        00000 
-2.27782e-22 -7.64347e-23        00000 
 1.02748e-22  2.79904e-23        00000 
-3.37141e-23 -7.91859e-24        00000 
 9.57725e-24  1.83351e-24        00000 
-2.42691e-24 -3.73509e-25        00000 
 5.28614e-25  7.00391e-26        00000 
-1.12766e-25 -1.24158e-26        00000 
 2.33220e-26  2.11417e-27        00000 
-4.68981e-27 -3.49191e-28        00000 
 9.21892e-28  5.62743e-29        00000 
-1.77831e-28 -8.87874e-30        00000 
 3.36678e-29  1.37356e-30        00000 
-6.28306e-30 -2.08340e-31        00000 
 1.16047e-30  3.09316e-32        00000 
-2.12114e-31 -4.47834e-33        00000 
 3.84557e-32  6.27996e-34        00000 
-6.92906e-33 -8.42455e-35        00000 
 1.24135e-33  1.05526e-35        00000 
-2.21700e-34 -1.16693e-36        00000 
 3.93986e-35  9.45445e-38        00000 
-6.96733e-36  1.06422e-39        00000 
 1.22710e-36 -3.00241e-39        00000 
-2.15489e-37  9.74242e-40        00000 
 3.77706e-38 -2.42180e-40        00000 
-6.78778e-39  5.58207e-41        00000 
 2.29500e-39 -2.23170e-41        00000 
 7.13334e-21  2.17708e-21        00000 
-7.27342e-21 -2.01961e-21        00000 
 6.06517e-21  1.53973e-21        00000 
-3.22343e-21 -8.83564e-22        00000 
 1.31280e-21  3.58460e-22        00000 
-4.11306e-22 -1.02147e-22        00000 
 1.19659e-22  2.21161e-23        00000 
-2.78351e-23 -4.13932e-24        00000 
 5.81691e-24  7.12739e-25        00000 
-1.21448e-24 -1.16424e-25        00000 
 2.44503e-25  1.83299e-26        00000 
-4.77892e-26 -2.80423e-27        00000 
 9.14175e-27  4.18345e-28        00000 
-1.72443e-27 -6.08706e-29        00000 
 3.18152e-28  8.61274e-30        00000 
-5.78912e-29 -1.17671e-30        00000 
 1.04907e-29  1.53078e-31        00000 
-1.87872e-30 -1.84180e-32        00000 
 3.34094e-31  1.90646e-33        00000 
-5.92820e-32 -1.27611e-34        00000 
 1.04373e-32 -9.76771e-36        00000 
-1.84444e-33  6.69288e-36        00000 
 3.23639e-34 -1.94249e-36        00000 
-5.64676e-35  4.58930e-37        00000 
 9.81349e-36 -9.86164e-38        00000 
-1.70354e-36  2.00644e-38        00000 
 2.95327e-37 -3.94027e-39        00000 
-5.10312e-38  7.55666e-40        00000 
 9.05183e-39 -1.46809e-40        00000 
-3.02534e-39  5.26725e-41        00000 
-3.54035e-20 -1.31858e-20        00000 
 4.75186e-20  1.25717e-20        00000 
-4.22915e-20 -9.52160e-21        00000 
 1.30524e-20  4.69607e-21        00000 
-4.73495e-21 -1.38172e-21        00000 
 1.55617e-21  2.66508e-22        00000 
-3.37384e-22 -4.39029e-23        00000 
 6.14770e-23  6.70198e-24        00000 
-1.27975e-23 -9.77453e-25        00000 
 2.50665e-24  1.37750e-25        00000 
-4.74829e-25 -1.87892e-26        00000 
 8.77846e-26  2.46624e-27        00000 
-1.63090e-26 -3.06743e-28        00000 
 2.91576e-27  3.49001e-29        00000 
-5.12366e-28 -3.29895e-30        00000 
 9.18908e-29  1.58812e-31        00000 
-1.60713e-29  3.44129e-32        00000 