<?xml version="1.0" encoding="utf-8"?>
<VTKFile byte_order="LittleEndian" type="UnstructuredGrid" version="0.1">
   <UnstructuredGrid>
      <Piece NumberOfCells="3364" NumberOfPoints="1741">
         <Points>
            <DataArray Name="Points" NumberOfComponents="3" format="ascii" type="Float32">
0.0000 1.0000 0.0000
0.0000 1.0345 0.0000
0.0000 1.0690 0.0000
0.0000 1.1034 0.0000
0.0000 1.1379 0.0000
0.0000 1.1724 0.0000
0.0000 1.2069 0.0000
0.0000 1.2414 0.0000
0.0000 1.2759 0.0000
0.0000 1.3103 0.0000
0.0000 1.3448 0.0000
0.0000 1.3793 0.0000
0.0000 1.4138 0.0000
0.0000 1.4483 0.0000
0.0000 1.4828 0.0000
0.0000 1.5172 0.0000
0.0000 1.5517 0.0000
0.0000 1.5862 0.0000
0.0000 1.6207 0.0000
0.0000 1.6552 0.0000
0.0000 1.6897 0.0000
0.0000 1.7241 0.0000
0.0000 1.7586 0.0000
0.0000 1.7931 0.0000
0.0000 1.8276 0.0000
0.0000 1.8621 0.0000
0.0000 1.8966 0.0000
0.0000 1.9310 0.0000
0.0000 1.9655 0.0000
0.0000 2.0000 0.0000
0.0690 1.0000 0.0000
0.0690 1.0345 0.0000
0.0690 1.0690 0.0000
0.0690 1.1034 0.0000
0.0690 1.1379 0.0000
0.0690 1.1724 0.0000
0.0690 1.2069 0.0000
0.0690 1.2414 0.0000
0.0690 1.2759 0.0000
0.0690 1.3103 0.0000
0.0690 1.3448 0.0000
0.0690 1.3793 0.0000
0.0690 1.4138 0.0000
0.0690 1.4483 0.0000
0.0690 1.4828 0.0000
0.0690 1.5172 0.0000
0.0690 1.5517 0.0000
0.0690 1.5862 0.0000
0.0690 1.6207 0.0000
0.0690 1.6552 0.0000
0.0690 1.6897 0.0000
0.0690 1.7241 0.0000
0.0690 1.7586 0.0000
0.0690 1.7931 0.0000
0.0690 1.8276 0.0000
0.0690 1.8621 0.0000
0.0690 1.8966 0.0000
0.0690 1.9310 0.0000
0.0690 1.9655 0.0000
0.0690 2.0000 0.0000
0.1379 1.0000 0.0000
0.1379 1.0345 0.0000
0.1379 1.0690 0.0000
0.1379 1.1034 0.0000
0.1379 1.1379 0.0000
0.1379 1.1724 0.0000
0.1379 1.2069 0.0000
0.1379 1.2414 0.0000
0.1379 1.2759 0.0000
0.1379 1.3103 0.0000
0.1379 1.3448 0.0000
0.1379 1.3793 0.0000
0.1379 1.4138 0.0000
0.1379 1.4483 0.0000
0.1379 1.4828 0.0000
0.1379 1.5172 0.0000
0.1379 1.5517 0.0000
0.1379 1.5862 0.0000
0.1379 1.6207 0.0000
0.1379 1.6552 0.0000
0.1379 1.6897 0.0000
0.1379 1.7241 0.0000
0.1379 1.7586 0.0000
0.1379 1.7931 0.0000
0.1379 1.8276 0.0000
0.1379 1.8621 0.0000
0.1379 1.8966 0.0000
0.1379 1.9310 0.0000
0.1379 1.9655 0.0000
0.1379 2.0000 0.0000
0.2069 1.0000 0.0000
0.2069 1.0345 0.0000
0.2069 1.0690 0.0000
0.2069 1.1034 0.0000
0.2069 1.1379 0.0000
0.2069 1.1724 0.0000
0.2069 1.2069 0.0000
0.2069 1.2414 0.0000
0.2069 1.2759 0.0000
0.2069 1.3103 0.0000
0.2069 1.3448 0.0000
0.2069 1.3793 0.0000
0.2069 1.4138 0.0000
0.2069 1.4483 0.0000
0.2069 1.4828 0.0000
0.2069 1.5172 0.0000
0.2069 1.5517 0.0000
0.2069 1.5862 0.0000
0.2069 1.6207 0.0000
0.2069 1.6552 0.0000
0.2069 1.6897 0.0000
0.2069 1.7241 0.0000
0.2069 1.7586 0.0000
0.2069 1.7931 0.0000
0.2069 1.8276 0.0000
0.2069 1.8621 0.0000
0.2069 1.8966 0.0000
0.2069 1.9310 0.0000
0.2069 1.9655 0.0000
0.2069 2.0000 0.0000
0.2759 1.0000 0.0000
0.2759 1.0345 0.0000
0.2759 1.0690 0.0000
0.2759 1.1034 0.0000
0.2759 1.1379 0.0000
0.2759 1.1724 0.0000
0.2759 1.2069 0.0000
0.2759 1.2414 0.0000
0.2759 1.2759 0.0000
0.2759 1.3103 0.0000
0.2759 1.3448 0.0000
0.2759 1.3793 0.0000
0.2759 1.4138 0.0000
0.2759 1.4483 0.0000
0.2759 1.4828 0.0000
0.2759 1.5172 0.0000
0.2759 1.5517 0.0000
0.2759 1.5862 0.0000
0.2759 1.6207 0.0000
0.2759 1.6552 0.0000
0.2759 1.6897 0.0000
0.2759 1.7241 0.0000
0.2759 1.7586 0.0000
0.2759 1.7931 0.0000
0.2759 1.8276 0.0000
0.2759 1.8621 0.0000
0.2759 1.8966 0.0000
0.2759 1.9310 0.0000
0.2759 1.9655 0.0000
0.2759 2.0000 0.0000
0.3448 1.0000 0.0000
0.3448 1.0345 0.0000
0.3448 1.0690 0.0000
0.3448 1.1034 0.0000
0.3448 1.1379 0.0000
0.3448 1.1724 0.0000
0.3448 1.2069 0.0000
0.3448 1.2414 0.0000
0.3448 1.2759 0.0000
0.3448 1.3103 0.0000
0.3448 1.3448 0.0000
0.3448 1.3793 0.0000
0.3448 1.4138 0.0000
0.3448 1.4483 0.0000
0.3448 1.4828 0.0000
0.3448 1.5172 0.0000
0.3448 1.5517 0.0000
0.3448 1.5862 0.0000
0.3448 1.6207 0.0000
0.3448 1.6552 0.0000
0.3448 1.6897 0.0000
0.3448 1.7241 0.0000
0.3448 1.7586 0.0000
0.3448 1.7931 0.0000
0.3448 1.8276 0.0000
0.3448 1.8621 0.0000
0.3448 1.8966 0.0000
0.3448 1.9310 0.0000
0.3448 1.9655 0.0000
0.3448 2.0000 0.0000
0.4138 1.0000 0.0000
0.4138 1.0345 0.0000
0.4138 1.0690 0.0000
0.4138 1.1034 0.0000
0.4138 1.1379 0.0000
0.4138 1.1724 0.0000
0.4138 1.2069 0.0000
0.4138 1.2414 0.0000
0.4138 1.2759 0.0000
0.4138 1.3103 0.0000
0.4138 1.3448 0.0000
0.4138 1.3793 0.0000
0.4138 1.4138 0.0000
0.4138 1.4483 0.0000
0.4138 1.4828 0.0000
0.4138 1.5172 0.0000
0.4138 1.5517 0.0000
0.4138 1.5862 0.0000
0.4138 1.6207 0.0000
0.4138 1.6552 0.0000
0.4138 1.6897 0.0000
0.4138 1.7241 0.0000
0.4138 1.7586 0.0000
0.4138 1.7931 0.0000
0.4138 1.8276 0.0000
0.4138 1.8621 0.0000
0.4138 1.8966 0.0000
0.4138 1.9310 0.0000
0.4138 1.9655 0.0000
0.4138 2.0000 0.0000
0.4828 1.0000 0.0000
0.4828 1.0345 0.0000
0.4828 1.0690 0.0000
0.4828 1.1034 0.0000
0.4828 1.1379 0.0000
0.4828 1.1724 0.0000
0.4828 1.2069 0.0000
0.4828 1.2414 0.0000
0.4828 1.2759 0.0000
0.4828 1.3103 0.0000
0.4828 1.3448 0.0000
0.4828 1.3793 0.0000
0.4828 1.4138 0.0000
0.4828 1.4483 0.0000
0.4828 1.4828 0.0000
0.4828 1.5172 0.0000
0.4828 1.5517 0.0000
0.4828 1.5862 0.0000
0.4828 1.6207 0.0000
0.4828 1.6552 0.0000
0.4828 1.6897 0.0000
0.4828 1.7241 0.0000
0.4828 1.7586 0.0000
0.4828 1.7931 0.0000
0.4828 1.8276 0.0000
0.4828 1.8621 0.0000
0.4828 1.8966 0.0000
0.4828 1.9310 0.0000
0.4828 1.9655 0.0000
0.4828 2.0000 0.0000
0.5517 1.0000 0.0000
0.5517 1.0345 0.0000
0.5517 1.0690 0.0000
0.5517 1.1034 0.0000
0.5517 1.1379 0.0000
0.5517 1.1724 0.0000
0.5517 1.2069 0.0000
0.5517 1.2414 0.0000
0.5517 1.2759 0.0000
0.5517 1.3103 0.0000
0.5517 1.3448 0.0000
0.5517 1.3793 0.0000
0.5517 1.4138 0.0000
0.5517 1.4483 0.0000
0.5517 1.4828 0.0000
0.5517 1.5172 0.0000
0.5517 1.5517 0.0000
0.5517 1.5862 0.0000
0.5517 1.6207 0.0000
0.5517 1.6552 0.0000
0.5517 1.6897 0.0000
0.5517 1.7241 0.0000
0.5517 1.7586 0.0000
0.5517 1.7931 0.0000
0.5517 1.8276 0.0000
0.5517 1.8621 0.0000
0.5517 1.8966 0.0000
0.5517 1.9310 0.0000
0.5517 1.9655 0.0000
0.5517 2.0000 0.0000
0.6207 1.0000 0.0000
0.6207 1.0345 0.0000
0.6207 1.0690 0.0000
0.6207 1.1034 0.0000
0.6207 1.1379 0.0000
0.6207 1.1724 0.0000
0.6207 1.2069 0.0000
0.6207 1.2414 0.0000
0.6207 1.2759 0.0000
0.6207 1.3103 0.0000
0.6207 1.3448 0.0000
0.6207 1.3793 0.0000
0.6207 1.4138 0.0000
0.6207 1.4483 0.0000
0.6207 1.4828 0.0000
0.6207 1.5172 0.0000
0.6207 1.5517 0.0000
0.6207 1.5862 0.0000
0.6207 1.6207 0.0000
0.6207 1.6552 0.0000
0.6207 1.6897 0.0000
0.6207 1.7241 0.0000
0.6207 1.7586 0.0000
0.6207 1.7931 0.0000
0.6207 1.8276 0.0000
0.6207 1.8621 0.0000
0.6207 1.8966 0.0000
0.6207 1.9310 0.0000
0.6207 1.9655 0.0000
0.6207 2.0000 0.0000
0.6897 1.0000 0.0000
0.6897 1.0345 0.0000
0.6897 1.0690 0.0000
0.6897 1.1034 0.0000
0.6897 1.1379 0.0000
0.6897 1.1724 0.0000
0.6897 1.2069 0.0000
0.6897 1.2414 0.0000
0.6897 1.2759 0.0000
0.6897 1.3103 0.0000
0.6897 1.3448 0.0000
0.6897 1.3793 0.0000
0.6897 1.4138 0.0000
0.6897 1.4483 0.0000
0.6897 1.4828 0.0000
0.6897 1.5172 0.0000
0.6897 1.5517 0.0000
0.6897 1.5862 0.0000
0.6897 1.6207 0.0000
0.6897 1.6552 0.0000
0.6897 1.6897 0.0000
0.6897 1.7241 0.0000
0.6897 1.7586 0.0000
0.6897 1.7931 0.0000
0.6897 1.8276 0.0000
0.6897 1.8621 0.0000
0.6897 1.8966 0.0000
0.6897 1.9310 0.0000
0.6897 1.9655 0.0000
0.6897 2.0000 0.0000
0.7586 1.0000 0.0000
0.7586 1.0345 0.0000
0.7586 1.0690 0.0000
0.7586 1.1034 0.0000
0.7586 1.1379 0.0000
0.7586 1.1724 0.0000
0.7586 1.2069 0.0000
0.7586 1.2414 0.0000
0.7586 1.2759 0.0000
0.7586 1.3103 0.0000
0.7586 1.3448 0.0000
0.7586 1.3793 0.0000
0.7586 1.4138 0.0000
0.7586 1.4483 0.0000
0.7586 1.4828 0.0000
0.7586 1.5172 0.0000
0.7586 1.5517 0.0000
0.7586 1.5862 0.0000
0.7586 1.6207 0.0000
0.7586 1.6552 0.0000
0.7586 1.6897 0.0000
0.7586 1.7241 0.0000
0.7586 1.7586 0.0000
0.7586 1.7931 0.0000
0.7586 1.8276 0.0000
0.7586 1.8621 0.0000
0.7586 1.8966 0.0000
0.7586 1.9310 0.0000
0.7586 1.9655 0.0000
0.7586 2.0000 0.0000
0.8276 1.0000 0.0000
0.8276 1.0345 0.0000
0.8276 1.0690 0.0000
0.8276 1.1034 0.0000
0.8276 1.1379 0.0000
0.8276 1.1724 0.0000
0.8276 1.2069 0.0000
0.8276 1.2414 0.0000
0.8276 1.2759 0.0000
0.8276 1.3103 0.0000
0.8276 1.3448 0.0000
0.8276 1.3793 0.0000
0.8276 1.4138 0.0000
0.8276 1.4483 0.0000
0.8276 1.4828 0.0000
0.8276 1.5172 0.0000
0.8276 1.5517 0.0000
0.8276 1.5862 0.0000
0.8276 1.6207 0.0000
0.8276 1.6552 0.0000
0.8276 1.6897 0.0000
0.8276 1.7241 0.0000
0.8276 1.7586 0.0000
0.8276 1.7931 0.0000
0.8276 1.8276 0.0000
0.8276 1.8621 0.0000
0.8276 1.8966 0.0000
0.8276 1.9310 0.0000
0.8276 1.9655 0.0000
0.8276 2.0000 0.0000
0.8966 1.0000 0.0000
0.8966 1.0345 0.0000
0.8966 1.0690 0.0000
0.8966 1.1034 0.0000
0.8966 1.1379 0.0000
0.8966 1.1724 0.0000
0.8966 1.2069 0.0000
0.8966 1.2414 0.0000
0.8966 1.2759 0.0000
0.8966 1.3103 0.0000
0.8966 1.3448 0.0000
0.8966 1.3793 0.0000
0.8966 1.4138 0.0000
0.8966 1.4483 0.0000
0.8966 1.4828 0.0000
0.8966 1.5172 0.0000
0.8966 1.5517 0.0000
0.8966 1.5862 0.0000
0.8966 1.6207 0.0000
0.8966 1.6552 0.0000
0.8966 1.6897 0.0000
0.8966 1.7241 0.0000
0.8966 1.7586 0.0000
0.8966 1.7931 0.0000
0.8966 1.8276 0.0000
0.8966 1.8621 0.0000
0.8966 1.8966 0.0000
0.8966 1.9310 0.0000
0.8966 1.9655 0.0000
0.8966 2.0000 0.0000
0.9655 1.0000 0.0000
0.9655 1.0345 0.0000
0.9655 1.0690 0.0000
0.9655 1.1034 0.0000
0.9655 1.1379 0.0000
0.9655 1.1724 0.0000
0.9655 1.2069 0.0000
0.9655 1.2414 0.0000
0.9655 1.2759 0.0000
0.9655 1.3103 0.0000
0.9655 1.3448 0.0000
0.9655 1.3793 0.0000
0.9655 1.4138 0.0000
0.9655 1.4483 0.0000
0.9655 1.4828 0.0000
0.9655 1.5172 0.0000
0.9655 1.5517 0.0000
0.9655 1.5862 0.0000
0.9655 1.6207 0.0000
0.9655 1.6552 0.0000
0.9655 1.6897 0.0000
0.9655 1.7241 0.0000
0.9655 1.7586 0.0000
0.9655 1.7931 0.0000
0.9655 1.8276 0.0000
0.9655 1.8621 0.0000
0.9655 1.8966 0.0000
0.9655 1.9310 0.0000
0.9655 1.9655 0.0000
0.9655 2.0000 0.0000
1.0345 1.0000 0.0000
1.0345 1.0345 0.0000
1.0345 1.0690 0.0000
1.0345 1.1034 0.0000
1.0345 1.1379 0.0000
1.0345 1.1724 0.0000
1.0345 1.2069 0.0000
1.0345 1.2414 0.0000
1.0345 1.2759 0.0000
1.0345 1.3103 0.0000
1.0345 1.3448 0.0000
[...]
         <PointData>
            <DataArray Name="fValues" NumberOfComponents="3" format="ascii" type="Float64">
-6.50705e-34  4.59091e-35        00000 
 6.69858e-34 -4.63426e-35        00000 
-7.20953e-34  4.74093e-35        00000 
 7.86816e-34 -4.84925e-35        00000 
-8.44637e-34  4.88147e-35        00000 
 8.72769e-34 -4.77048e-35        00000 
-8.56968e-34  4.48119e-35        00000 
 7.94031e-34 -4.01972e-35        00000 
-6.91789e-34  3.42898e-35        00000 
 5.65752e-34 -2.77421e-35        00000 
-4.33982e-34  2.12486e-35        00000 
 3.12190e-34 -1.53868e-35        00000 
-2.10629e-34  1.05226e-35        00000 
 1.33326e-34 -6.78997e-36        00000 
-7.92199e-35  4.13123e-36        00000 
 4.42164e-35 -2.36891e-36        00000 
-2.32033e-35  1.27992e-36        00000 
 1.14606e-35 -6.51650e-37        00000 
-5.33493e-36  3.12768e-37        00000 
 2.34411e-36 -1.41624e-37        00000 
-9.73924e-37  6.05690e-38        00000 
 3.83386e-37 -2.45022e-38        00000 
-1.43307e-37  9.39283e-39        00000 
 5.09869e-38 -3.41937e-39        00000 
-1.73104e-38  1.18493e-39        00000 
 5.62298e-39 -3.91890e-40        00000 
-1.75289e-39  1.24080e-40        00000 
 5.28202e-40 -3.78898e-41        00000 
-1.63318e-40  1.18546e-41        00000 
 8.48743e-41 -6.20827e-42        00000 
 1.91037e-33 -1.36731e-34        00000 
-1.97471e-33  1.38290e-34        00000 
 2.14657e-33 -1.42168e-34        00000 
-2.36882e-33  1.46269e-34        00000 
 2.56563e-33 -1.47965e-34        00000 
-2.66526e-33  1.45010e-34        00000 
 2.62102e-33 -1.36256e-34        00000 
-2.42344e-33  1.21943e-34        00000 
 2.09978e-33 -1.03518e-34        00000 
-1.70227e-33  8.31384e-35        00000 
 1.29044e-33 -6.30560e-35        00000 
-9.14657e-34  4.51009e-35        00000 
 6.06301e-34 -3.03863e-35        00000 
-3.76031e-34  1.92661e-35        00000 
 2.18349e-34 -1.14872e-35        00000 
-1.18808e-34  6.43781e-36        00000 
 6.06429e-35 -3.39082e-36        00000 
-2.90760e-35  1.67886e-36        00000 
 1.31159e-35 -7.81873e-37        00000 
-5.57661e-36  3.42871e-37        00000 
 2.23962e-36 -1.41787e-37        00000 
-8.51592e-37  5.53948e-38        00000 
 3.07370e-37 -2.04930e-38        00000 
-1.05599e-37  7.19709e-39        00000 
 3.46314e-38 -2.40624e-39        00000 
-1.08738e-38  7.68149e-40        00000 
 3.27941e-39 -2.34927e-40        00000 
-9.56641e-40  6.93331e-41        00000 
 2.85926e-40 -2.09303e-41        00000 
-1.44877e-40  1.06729e-41        00000 
-1.05312e-32  7.67361e-34        00000 
 1.09439e-32 -7.78043e-34        00000 
-1.20476e-32  8.04865e-34        00000 
 1.34793e-32 -8.34154e-34        00000 
-1.47572e-32  8.48886e-34        00000 
 1.54268e-32 -8.34705e-34        00000 
-1.51958e-32  7.84493e-34        00000 
 1.40120e-32 -7.00050e-34        00000 
-1.20580e-32  5.90762e-34        00000 
 9.67099e-33 -4.70252e-34        00000 
-7.22589e-33  3.52440e-34        00000 
 5.02971e-33 -2.48332e-34        00000 
-3.26261e-33  1.64292e-34        00000 
 1.97334e-33 -1.01946e-34        00000 
-1.11377e-33  5.92854e-35        00000 
 5.87214e-34 -3.22951e-35        00000 
-2.89578e-34  1.64781e-35        00000 
 1.33781e-34 -7.87809e-36        00000 
-5.80104e-35  3.53234e-36        00000 
 2.36624e-35 -1.48741e-36        00000 
-9.10209e-36  5.89311e-37        00000 
 3.31103e-36 -2.20202e-37        00000 
-1.14244e-36  7.78135e-38        00000 
 3.75084e-37 -2.60841e-38        00000 
-1.17563e-37  8.32172e-39        00000 
 3.52939e-38 -2.53544e-39        00000 
-1.01842e-38  7.40446e-40        00000 
 2.84353e-39 -2.08718e-40        00000 
-8.11421e-40  6.00140e-41        00000 
 3.96811e-40 -2.94837e-41        00000 
 5.94810e-32 -4.41892e-33        00000 
-6.21833e-32  4.49303e-33        00000 
 6.94183e-32 -4.68030e-33        00000 
-7.88292e-32  4.88931e-33        00000 
 8.72834e-32 -5.00721e-33        00000 
-9.18287e-32  4.94015e-33        00000 
 9.05876e-32 -4.64323e-33        00000 
-8.32714e-32  4.13023e-33        00000 
 7.11310e-32 -3.46354e-33        00000 
-5.63992e-32  2.73131e-33        00000 
 4.14959e-32 -2.02164e-33        00000 
-2.83346e-32  1.40222e-33        00000 
 1.79638e-32 -9.10093e-34        00000 
-1.05817e-32  5.52065e-34        00000 
 5.79701e-33 -3.12715e-34        00000 
-2.95730e-33  1.65336e-34        00000 
 1.40706e-33 -8.15963e-35        00000 
-6.25599e-34  3.76125e-35        00000 
 2.60519e-34 -1.62140e-35        00000 
-1.01882e-34  6.54847e-36        00000 
 3.75291e-35 -2.48388e-36        00000 
-1.30640e-35  8.87420e-37        00000 
 4.31258e-36 -2.99627e-37        00000 
-1.35496e-36  9.59538e-38        00000 
 4.06658e-37 -2.92561e-38        00000 
-1.17010e-37  8.52535e-39        00000 
 3.23975e-38 -2.38379e-39        00000 
-8.68737e-39  6.43899e-40        00000 
 2.37667e-39 -1.77082e-40        00000 
-1.12504e-39  8.40588e-41        00000 
-3.34604e-31  2.54107e-32        00000 
 3.52287e-31 -2.59227e-32        00000 
-3.99688e-31  2.72220e-32        00000 
 4.61506e-31 -2.86951e-32        00000 
-5.17350e-31  2.95915e-32        00000 
 5.47991e-31 -2.92980e-32        00000 
-5.41321e-31  2.75330e-32        00000 
 4.95788e-31 -2.44019e-32        00000 
-4.19987e-31  2.03207e-32        00000 
 3.28765e-31 -1.58608e-32        00000 
-2.37781e-31  1.15801e-32        00000 
 1.58939e-31 -7.89429e-33        00000 
-9.82418e-32  5.01661e-33        00000 
 5.62028e-32 -2.96767e-33        00000 
-2.97944e-32  1.63278e-33        00000 
 1.46588e-32 -8.35183e-34        00000 
-6.70652e-33  3.97283e-34        00000 
 2.85997e-33 -1.75920e-34        00000 
-1.14001e-33  7.26405e-35        00000 
 4.26126e-34 -2.80383e-35        00000 
-1.49901e-34  1.01479e-35        00000 
 4.98180e-35 -3.45645e-36        00000 
-1.57049e-35  1.11238e-36        00000 
 4.71556e-36 -3.39698e-37        00000 
-1.35406e-36  9.88591e-38        00000 
 3.73297e-37 -2.75339e-38        00000 
-9.91871e-38  7.37012e-39        00000 
 2.55584e-38 -1.90845e-39        00000 
-6.71149e-39  5.02530e-40        00000 
 3.07745e-39 -2.30632e-40        00000 
 1.87133e-30 -1.45734e-31        00000 
-1.98689e-30  1.49259e-31        00000 
 2.29708e-30 -1.58232e-31        00000 
-2.70277e-30  1.68515e-31        00000 
 3.07112e-30 -1.75107e-31        00000 
-3.27657e-30  1.74003e-31        00000 
 3.24063e-30 -1.63452e-31        00000 
-2.95533e-30  1.44260e-31        00000 
 2.47990e-30 -1.19206e-31        00000 
-1.91347e-30  9.19948e-32        00000 
 1.35760e-30 -6.61589e-32        00000 
-8.86062e-31  4.42444e-32        00000 
 5.32387e-31 -2.74626e-32        00000 
-2.94808e-31  1.57969e-32        00000 
 1.50679e-31 -8.41268e-33        00000 
-7.12202e-32  4.14698e-33        00000 
 3.12070e-32 -1.89337e-33        00000 
-1.27138e-32  8.01867e-34        00000 
 4.83259e-33 -3.15778e-34        00000 
-1.72054e-33  1.16006e-34        00000 
 5.76222e-34 -3.99124e-35        00000 
-1.82357e-34  1.29184e-35        00000 
 5.47861e-35 -3.95238e-36        00000 
-1.56972e-35  1.14863e-36        00000 
 4.30814e-36 -3.18612e-37        00000 
-1.13732e-36  8.47409e-38        00000 
 2.89952e-37 -2.17061e-38        00000 
-7.18123e-38  5.38856e-39        00000 
 1.81123e-38 -1.35935e-39        00000 
-8.04733e-39  6.03298e-40        00000 
-1.03921e-29  8.33095e-31        00000 
 1.11459e-29 -8.57327e-31        00000 
-1.31732e-29  9.19094e-31        00000 
 1.58334e-29 -9.90365e-31        00000 
-1.82610e-29  1.03772e-30        00000 
 1.96332e-29 -1.03500e-30        00000 
-1.94383e-29  9.71516e-31        00000 
 1.76377e-29 -8.53345e-31        00000 
-1.46415e-29  6.99097e-31        00000 
 1.11145e-29 -5.32802e-31        00000 
-7.71658e-30  3.76801e-31        00000 
 4.90286e-30 -2.46653e-31        00000 
-2.85355e-30  1.49109e-31        00000 
 1.52349e-30 -8.31039e-32        00000 
-7.47535e-31  4.26612e-32        00000 
 3.37932e-31 -2.01726e-32        00000 
-1.41178e-31  8.79649e-33        00000 
 5.47077e-32 -3.54532e-33        00000 
-1.97486e-32  1.32510e-33        00000 
 6.67274e-33 -4.61262e-34        00000 
-2.12113e-33  1.50284e-34        00000 
 6.37681e-34 -4.60790e-35        00000 
-1.82255e-34  1.33705e-35        00000 
 4.97701e-35 -3.69177e-36        00000 
-1.30471e-35  9.75064e-37        00000 
 3.29754e-36 -2.47537e-37        00000 
-8.06747e-37  6.06738e-38        00000 
 1.92134e-37 -1.44456e-38        00000 
-4.65846e-38  3.49408e-39        00000 
 2.00643e-38 -1.50024e-39        00000 
 5.72154e-29 -4.74359e-30        00000 
-6.21233e-29  4.91009e-30        00000 
 7.53519e-29 -5.33452e-30        00000 
-9.27814e-29  5.82586e-30        00000 
 1.08777e-28 -6.16000e-30        00000 
-1.17920e-28  6.16670e-30        00000 
 1.16849e-28 -5.78161e-30        00000 
-1.05399e-28  5.05065e-30        00000 
 8.64186e-29 -4.09835e-30        00000 
-6.43930e-29  3.08042e-30        00000 
 4.36195e-29 -2.13812e-30        00000 
-2.68828e-29  1.36629e-30        00000 
 1.50927e-29 -8.01632e-31        00000 
-7.73282e-30  4.31024e-31        00000 
 3.62445e-30 -2.12218e-31        00000 
-1.55903e-30  9.57300e-32        00000 
 6.17840e-31 -3.96408e-32        00000 
-2.26643e-31  1.51185e-32        00000 
 7.73688e-32 -5.33507e-33        00000 
-2.47205e-32  1.75167e-33        00000 
 7.43754e-33 -5.38444e-34        00000 
-2.11973e-33  1.55960e-34        00000 
 5.75583e-34 -4.28379e-35        00000 
-1.49705e-34  1.12253e-35        00000 
 3.74785e-35 -2.82173e-36        00000 
-9.07072e-36  6.83788e-37        00000 
 2.13073e-36 -1.60453e-37        00000 
-4.88359e-37  3.66658e-38        00000 
 1.13957e-37 -8.51354e-39        00000 
-4.76148e-38  3.53901e-39        00000 
-3.11688e-28  2.68773e-29        00000 
 3.43543e-28 -2.80224e-29        00000 
-4.29685e-28  3.09375e-29        00000 
 5.43804e-28 -3.43115e-29        00000 
-6.49228e-28  3.66369e-29        00000 
 7.10099e-28 -3.68087e-29        00000 
-7.04107e-28  3.44510e-29        00000 
 6.30686e-28 -2.99084e-29        00000 
-5.09789e-28  2.40132e-29        00000 
 3.71839e-28 -1.77725e-29        00000 
-2.44875e-28  1.20791e-29        00000 
 1.45753e-28 -7.51020e-30        00000 
-7.85383e-29  4.25798e-30        00000 
 3.84024e-29 -2.19695e-30        00000 
-1.70936e-29  1.03112e-30        00000 
 6.95502e-30 -4.40807e-31        00000 
-2.59994e-30  1.72187e-31        00000 
 8.98283e-31 -6.17535e-32        00000 
-2.88743e-31  2.04614e-32        00000 
 8.69511e-32 -6.30845e-33        00000 
-2.47013e-32  1.82348e-33        00000 
 6.66407e-33 -4.97858e-34        00000 
-1.71794e-33  1.29291e-34        00000 
 4.25532e-34 -3.21397e-35        00000 
-1.01775e-34  7.69053e-36        00000 
 2.36045e-35 -1.78005e-36        00000 
-5.32887e-36  4.00250e-37        00000 
 1.17678e-36 -8.78903e-38        00000 
-2.64661e-37  1.96203e-38        00000 
 1.07383e-37 -7.90444e-39        00000 
 1.67565e-27 -1.51345e-28        00000 
-1.88156e-27  1.59238e-28        00000 
 2.44090e-27 -1.79277e-28        00000 
-3.18751e-27  2.02385e-28        00000 
 3.88308e-27 -2.18381e-28        00000 
-4.28866e-27  2.20133e-28        00000 
 4.25422e-27 -2.05545e-28        00000 
-3.77929e-27  1.77189e-28        00000 
 3.00455e-27 -1.40603e-28        00000 
-2.13800e-27  1.02284e-28        00000 
 1.36280e-27 -6.78764e-29        00000 
-7.79220e-28  4.08913e-29        00000 
 4.00536e-28 -2.22798e-29        00000 
-1.85668e-28  1.09575e-29        00000 
 7.79478e-29 -4.86565e-30        00000 
-2.98005e-29  1.95588e-30        00000 
 1.04444e-29 -7.15249e-31        00000 
-3.38119e-30  2.39601e-31        00000 
 1.01929e-30 -7.41373e-32        00000 
-2.88477e-31  2.13784e-32        00000 
 7.72503e-32 -5.79616e-33        00000 
-1.97139e-32  1.48973e-33        00000 
 4.82489e-33 -3.65653e-34        00000 
-1.13882e-33  8.62594e-35        00000 
 2.60459e-34 -1.96653e-35        00000 
-5.79577e-35  4.35284e-36        00000 
 1.25922e-35 -9.39211e-37        00000 
-2.68321e-36  1.98497e-37        00000 
 5.82635e-37 -4.26820e-38        00000 
-2.29836e-37  1.66869e-38        00000 
-8.85885e-27  8.45420e-28        00000 
 1.01819e-26 -9.00037e-28        00000 
-1.37994e-26  1.03808e-27        00000 
 1.86795e-26 -1.19609e-27        00000 
-2.32774e-26  1.30500e-27        00000 
 2.59871e-26 -1.31916e-27        00000 
-2.57827e-26  1.22785e-27        00000 
 2.26808e-26 -1.05014e-27        00000 
-1.76831e-26  8.22591e-28        00000 
 1.22238e-26 -5.86919e-28        00000 
-7.50015e-27  3.78917e-28        00000 
 4.09238e-27 -2.19997e-28        00000 
-1.99166e-27  1.14376e-28        00000 
 8.68283e-28 -5.31652e-29        00000 
-3.41077e-28  2.21294e-29        00000 
 1.21620e-28 -8.28740e-30        00000 
-3.97102e-29  2.81363e-30        00000 
 1.19865e-29 -8.74419e-31        00000 
-3.37746e-30  2.51435e-31        00000 
 8.96651e-31 -6.76107e-32        00000 
-2.26175e-31  1.71694e-32        00000 
 5.46077e-32 -4.15334e-33        00000 
-1.26994e-32  9.64139e-34        00000 
 2.85982e-33 -2.16106e-34        00000 
-6.26417e-34  4.70133e-35        00000 
 1.33962e-34 -9.96922e-36        00000 
-2.80596e-35  2.06804e-36        00000 
 5.77972e-36 -4.21482e-37        00000 
-1.21408e-36  8.74838e-38        00000 
 4.66308e-37 -3.32437e-38        00000 
 4.58378e-26 -4.67260e-27        00000 
-5.42652e-26  5.05262e-27        00000 
 7.75283e-26 -6.00710e-27        00000 
-1.09388e-25  7.08696e-27        00000 
 1.39871e-25 -7.82101e-27        00000 
-1.58063e-25  7.92127e-27        00000 
 1.56807e-25 -7.34290e-27        00000 
-1.36327e-25  6.22576e-27        00000 
 1.03851e-25 -4.80805e-27        00000 
-6.93627e-26  3.35590e-27        00000 
 4.06803e-26 -2.09781e-27        00000 
-2.10057e-26  1.16541e-27        00000 
 9.58965e-27 -5.72749e-28        00000 
-3.89433e-27  2.48895e-28        00000 
 1.41834e-27 -9.60153e-29        00000 
-4.67978e-28  3.31476e-29        00000 
 1.41484e-28 -1.03581e-29        00000 
-3.96573e-29  2.96828e-30        00000 
 1.04217e-29 -7.90355e-31        00000 
-2.59362e-30  1.97887e-31        00000 
 6.16542e-31 -4.70702e-32        00000 
-1.41005e-31  1.07279e-32        00000 
 3.12105e-32 -2.35918e-33        00000 
-6.71877e-33  5.03458e-34        00000 
 1.41237e-33 -1.04747e-34        00000 
-2.90889e-34  2.13276e-35        00000 
 5.88629e-35 -4.26328e-36        00000 
-1.17445e-35  8.39804e-37        00000 
 2.39178e-36 -1.68666e-37        00000 
-8.95897e-37  6.24095e-38        00000 
-2.30579e-25  2.54512e-26        00000 
 2.83578e-25 -2.81146e-26        00000 
-4.31937e-25  3.47500e-26        00000 
 6.39574e-25 -4.21329e-26        00000 
-8.42538e-25  4.70274e-26        00000 
 9.65611e-25 -4.76588e-26        00000 
-9.57615e-25  4.39517e-26        00000 
 8.20737e-25 -3.69201e-26        00000 
-6.07938e-25  2.80767e-26        00000 
 3.89559e-25 -1.91062e-26        00000 
-2.16408e-25  1.14890e-26        00000 
 1.04622e-25 -6.04701e-27        00000 
-4.42896e-26  2.77405e-27        00000 
 1.65644e-26 -1.11134e-27        00000 
-5.53747e-27  3.91975e-28        00000 
 1.67752e-27 -1.23347e-28        00000 
-4.67219e-28  3.51990e-29        00000 
 1.21300e-28 -9.26099e-30        00000 
-2.97144e-29  2.27999e-30        00000 
 6.93822e-30 -5.31759e-31        00000 
-1.55702e-30  1.18667e-31        00000 
 3.38061e-31 -2.55400e-32        00000 
-7.13956e-32  5.33483e-33        00000 
 1.47298e-32 -1.08695e-33        00000 
-2.97916e-33  2.16884e-34        00000 
 5.92383e-34 -4.25191e-35        00000 
-1.16082e-34  8.21181e-36        00000 
 2.24862e-35 -1.56746e-36        00000 
-4.45007e-36  3.05411e-37        00000 
 1.62853e-36 -1.10261e-37        00000 
 1.11695e-24 -1.35763e-25        00000 
-1.44390e-24  1.54598e-25        00000 
 2.37850e-24 -2.01062e-25        00000 
-3.72832e-24  2.51629e-25        00000 
 5.08780e-24 -2.83846e-25        00000 
-5.92959e-24  2.87214e-25        00000 
 5.87702e-24 -2.63207e-25        00000 
-4.94889e-24  2.19030e-25        00000 
 3.54141e-24 -1.63836e-25        00000 
-2.15658e-24  1.08197e-25        00000 
 1.12113e-24 -6.19955e-26        00000 
-5.00479e-25  3.04817e-26        00000 
 1.93668e-25 -1.28300e-26        00000 
-6.58425e-26  4.65515e-27        00000 
 1.99987e-26 -1.47851e-27        00000 
-5.52641e-27  4.19690e-28        00000 
 1.41379e-27 -1.08796e-28        00000 
-3.39897e-28  2.62442e-29        00000 
 7.77316e-29 -5.98032e-30        00000 
-1.70715e-29  1.30244e-30        00000 
 3.62739e-30 -2.73546e-31        00000 
-7.50049e-31  5.57883e-32        00000 
 1.51616e-31 -1.11077e-32        00000 
-3.00705e-32  2.16815e-33        00000 
 5.86875e-33 -4.16279e-34        00000 
-1.12977e-33  7.88238e-35        00000 
 2.14946e-34 -1.47519e-35        00000 
-4.05241e-35  2.73612e-36        00000 
 7.81281e-36 -5.18657e-37        00000 
-2.79877e-36  1.83098e-37        00000 
-5.13861e-24  7.01735e-25        00000 
 7.09679e-24 -8.36192e-25        00000 
-1.28764e-23  1.16455e-24        00000 
 2.16170e-23 -1.51224e-24        00000 
-3.07965e-23  1.72071e-24        00000 
 3.66423e-23 -1.73248e-24        00000 
-3.62865e-23  1.57592e-24        00000 
 2.98828e-23 -1.30050e-24        00000 
-2.04730e-23  9.55955e-25        00000 
 1.16934e-23 -6.08368e-25        00000 
-5.59594e-24  3.27371e-25        00000 
 2.26520e-24 -1.47276e-25        00000 
-7.87520e-25  5.55559e-26        00000 
 2.40051e-25 -1.78722e-26        00000 
-6.56795e-26  5.03813e-27        00000 
 1.64987e-26 -1.28161e-27        00000 
-3.87804e-27  3.01494e-28        00000 
 8.65525e-28 -6.68217e-29        00000 
-1.85447e-28  1.41459e-29        00000 
 3.84600e-29 -2.88939e-30        00000 
-7.76887e-30  5.73720e-31        00000 
 1.53584e-30 -1.11368e-31        00000 
-2.98258e-31  2.12256e-32        00000 
 5.70648e-32 -3.98509e-33        00000 
-1.07818e-32  7.38964e-34        00000 
 2.01549e-33 -1.35616e-34        00000 
-3.73349e-34  2.46732e-35        00000 
 6.86855e-35 -4.46009e-36        00000 
-1.29339e-35  8.24946e-37        00000 
 4.54473e-36 -2.85438e-37        00000 
 2.19964e-23 -3.44761e-24        00000 
-3.31897e-23  4.41394e-24        00000 
 6.79212e-23 -6.75930e-24        00000 
-1.24150e-22  9.16963e-24        00000 
 1.86786e-22 -1.04855e-23        00000 
-2.28227e-22  1.04434e-23        00000 
 2.25754e-22 -9.42254e-24        00000 
-1.80604e-22  7.73865e-24        00000 
 1.16920e-22 -5.58535e-24        00000 
-6.14603e-23  3.38474e-24        00000 
 2.64608e-23 -1.67058e-24        00000 
-9.48772e-24  6.66522e-25        00000 
 2.90678e-24 -2.18473e-25        00000 
-7.85095e-25  6.10016e-26        00000 
 1.92701e-25 -1.51378e-26        00000 
-4.40630e-26  3.45079e-27        00000 
 9.55505e-27 -7.39597e-28        00000 
-1.98989e-27  1.51451e-28        00000 
 4.01582e-28 -2.99656e-29        00000 
-7.90543e-29  5.77458e-30        00000 
 1.52550e-29 -1.09013e-30        00000 
-2.89633e-30  2.02472e-31        00000 
 5.42601e-31 -3.71173e-32        00000 
-1.00528e-31  6.73261e-33        00000 
 1.84519e-32 -1.21065e-33        00000 
-3.36019e-33  2.16139e-34        00000 
 6.07817e-34 -3.83580e-35        00000 
-1.09414e-34  6.77915e-36        00000 
 2.01776e-35 -1.22725e-36        00000 
-6.96943e-36  4.17232e-37        00000 
-8.50321e-23  1.54961e-23        00000 
 1.44303e-22 -2.24046e-23        00000 
-3.43630e-22  3.93324e-23        00000 
 7.01083e-22 -5.63463e-23        00000 
-1.13408e-21  6.43255e-23        00000 
 1.43615e-21 -6.26846e-23        00000 
-1.41852e-21  5.61416e-23        00000 
 1.09117e-21 -4.63145e-23        00000 
-6.54186e-22  3.27629e-23        00000 
 3.07575e-22 -1.84819e-23        00000 
-1.15336e-22  8.03416e-24        00000 
 3.56096e-23 -2.71301e-24        00000 
-9.45185e-24  7.46875e-25        00000 
 2.25063e-24 -1.79188e-25        00000 
-4.97290e-25  3.92331e-26        00000 
 1.04202e-25 -8.07106e-27        00000 
-2.10015e-26  1.58928e-27        00000 