<?xml version="1.0" encoding="utf-8"?>
<VTKFile byte_order="LittleEndian" type="UnstructuredGrid" version="0.1">
   <UnstructuredGrid>
      <Piece NumberOfCells="3364" NumberOfPoints="1741">
         <Points>
            <DataArray Name="Points" NumberOfComponents="3" format="ascii" type="Float32">
0.0000 1.0000 0.0000
0.0000 1.0345 0.0000
0.0000 1.0690 0.0000
0.0000 1.1034 0.0000
0.0000 1.1379 0.0000
0.0000 1.1724 0.0000
0.0000 1.2069 0.0000
0.0000 1.2414 0.0000
0.0000 1.2759 0.0000
0.0000 1.3103 0.0000
0.0000 1.3448 0.0000
0.0000 1.3793 0.0000
0.0000 1.4138 0.0000
0.0000 1.4483 0.0000
0.0000 1.4828 0.0000
0.0000 1.5172 0.0000
0.0000 1.5517 0.0000
0.0000 1.5862 0.0000
0.0000 1.6207 0.0000
0.0000 1.6552 0.0000
0.0000 1.6897 0.0000
0.0000 1.7241 0.0000
0.0000 1.7586 0.0000
0.0000 1.7931 0.0000
0.0000 1.8276 0.0000
0.0000 1.8621 0.0000
0.0000 1.8966 0.0000
0.0000 1.9310 0.0000
0.0000 1.9655 0.0000
0.0000 2.0000 0.0000
0.0690 1.0000 0.0000
0.0690 1.0345 0.0000
0.0690 1.0690 0.0000
0.0690 1.1034 0.0000
0.0690 1.1379 0.0000
0.0690 1.1724 0.0000
0.0690 1.2069 0.0000
0.0690 1.2414 0.0000
0.0690 1.2759 0.0000
0.0690 1.3103 0.0000
0.0690 1.3448 0.0000
0.0690 1.3793 0.0000
0.0690 1.4138 0.0000
0.0690 1.4483 0.0000
0.0690 1.4828 0.0000
0.0690 1.5172 0.0000
0.0690 1.5517 0.0000
0.0690 1.5862 0.0000
0.0690 1.6207 0.0000
0.0690 1.6552 0.0000
0.0690 1.6897 0.0000
0.0690 1.7241 0.0000
0.0690 1.7586 0.0000
0.0690 1.7931 0.0000
0.0690 1.8276 0.0000
0.0690 1.8621 0.0000
0.0690 1.8966 0.0000
0.0690 1.9310 0.0000
0.0690 1.9655 0.0000
0.0690 2.0000 0.0000
0.1379 1.0000 0.0000
0.1379 1.0345 0.0000
0.1379 1.0690 0.0000
0.1379 1.1034 0.0000
0.1379 1.1379 0.0000
0.1379 1.1724 0.0000
0.1379 1.2069 0.0000
0.1379 1.2414 0.0000
0.1379 1.2759 0.0000
0.1379 1.3103 0.0000
0.1379 1.3448 0.0000
0.1379 1.3793 0.0000
0.1379 1.4138 0.0000
0.1379 1.4483 0.0000
0.1379 1.4828 0.0000
0.1379 1.5172 0.0000
0.1379 1.5517 0.0000
0.1379 1.5862 0.0000
0.1379 1.6207 0.0000
0.1379 1.6552 0.0000
0.1379 1.6897 0.0000
0.1379 1.7241 0.0000
0.1379 1.7586 0.0000
0.1379 1.7931 0.0000
0.1379 1.8276 0.0000
0.1379 1.8621 0.0000
0.1379 1.8966 0.0000
0.1379 1.9310 0.0000
0.1379 1.9655 0.0000
0.1379 2.0000 0.0000
0.2069 1.0000 0.0000
0.2069 1.0345 0.0000
0.2069 1.0690 0.0000
0.2069 1.1034 0.0000
0.2069 1.1379 0.0000
0.2069 1.1724 0.0000
0.2069 1.2069 0.0000
0.2069 1.2414 0.0000
0.2069 1.2759 0.0000
0.2069 1.3103 0.0000
0.2069 1.3448 0.0000
0.2069 1.3793 0.0000
0.2069 1.4138 0.0000
0.2069 1.4483 0.0000
0.2069 1.4828 0.0000
0.2069 1.5172 0.0000
0.2069 1.5517 0.0000
0.2069 1.5862 0.0000
0.2069 1.6207 0.0000
0.2069 1.6552 0.0000
0.2069 1.6897 0.0000
0.2069 1.7241 0.0000
0.2069 1.7586 0.0000
0.2069 1.7931 0.0000
0.2069 1.8276 0.0000
0.2069 1.8621 0.0000
0.2069 1.8966 0.0000
0.2069 1.9310 0.0000
0.2069 1.9655 0.0000
0.2069 2.0000 0.0000
0.2759 1.0000 0.0000
0.2759 1.0345 0.0000
0.2759 1.0690 0.0000
0.2759 1.1034 0.0000
0.2759 1.1379 0.0000
0.2759 1.1724 0.0000
0.2759 1.2069 0.0000
0.2759 1.2414 0.0000
0.2759 1.2759 0.0000
0.2759 1.3103 0.0000
0.2759 1.3448 0.0000
0.2759 1.3793 0.0000
0.2759 1.4138 0.0000
0.2759 1.4483 0.0000
0.2759 1.4828 0.0000
0.2759 1.5172 0.0000
0.2759 1.5517 0.0000
0.2759 1.5862 0.0000
0.2759 1.6207 0.0000
0.2759 1.6552 0.0000
0.2759 1.6897 0.0000
0.2759 1.7241 0.0000
0.2759 1.7586 0.0000
0.2759 1.7931 0.0000
0.2759 1.8276 0.0000
0.2759 1.8621 0.0000
0.2759 1.8966 0.0000
0.2759 1.9310 0.0000
0.2759 1.9655 0.0000
0.2759 2.0000 0.0000
0.3448 1.0000 0.0000
0.3448 1.0345 0.0000
0.3448 1.0690 0.0000
0.3448 1.1034 0.0000
0.3448 1.1379 0.0000
0.3448 1.1724 0.0000
0.3448 1.2069 0.0000
0.3448 1.2414 0.0000
0.3448 1.2759 0.0000
0.3448 1.3103 0.0000
0.3448 1.3448 0.0000
0.3448 1.3793 0.0000
0.3448 1.4138 0.0000
0.3448 1.4483 0.0000
0.3448 1.4828 0.0000
0.3448 1.5172 0.0000
0.3448 1.5517 0.0000
0.3448 1.5862 0.0000
0.3448 1.6207 0.0000
0.3448 1.6552 0.0000
0.3448 1.6897 0.0000
0.3448 1.7241 0.0000
0.3448 1.7586 0.0000
0.3448 1.7931 0.0000
0.3448 1.8276 0.0000
0.3448 1.8621 0.0000
0.3448 1.8966 0.0000
0.3448 1.9310 0.0000
0.3448 1.9655 0.0000
0.3448 2.0000 0.0000
0.4138 1.0000 0.0000
0.4138 1.0345 0.0000
0.4138 1.0690 0.0000
0.4138 1.1034 0.0000
0.4138 1.1379 0.0000
0.4138 1.1724 0.0000
0.4138 1.2069 0.0000
0.4138 1.2414 0.0000
0.4138 1.2759 0.0000
0.4138 1.3103 0.0000
0.4138 1.3448 0.0000
0.4138 1.3793 0.0000
0.4138 1.4138 0.0000
0.4138 1.4483 0.0000
0.4138 1.4828 0.0000
0.4138 1.5172 0.0000
0.4138 1.5517 0.0000
0.4138 1.5862 0.0000
0.4138 1.6207 0.0000
0.4138 1.6552 0.0000
0.4138 1.6897 0.0000
0.4138 1.7241 0.0000
0.4138 1.7586 0.0000
0.4138 1.7931 0.0000
0.4138 1.8276 0.0000
0.4138 1.8621 0.0000
0.4138 1.8966 0.0000
0.4138 1.9310 0.0000
0.4138 1.9655 0.0000
0.4138 2.0000 0.0000
0.4828 1.0000 0.0000
0.4828 1.0345 0.0000
0.4828 1.0690 0.0000
0.4828 1.1034 0.0000
0.4828 1.1379 0.0000
0.4828 1.1724 0.0000
0.4828 1.2069 0.0000
0.4828 1.2414 0.0000
0.4828 1.2759 0.0000
0.4828 1.3103 0.0000
0.4828 1.3448 0.0000
0.4828 1.3793 0.0000
0.4828 1.4138 0.0000
0.4828 1.4483 0.0000
0.4828 1.4828 0.0000
0.4828 1.5172 0.0000
0.4828 1.5517 0.0000
0.4828 1.5862 0.0000
0.4828 1.6207 0.0000
0.4828 1.6552 0.0000
0.4828 1.6897 0.0000
0.4828 1.7241 0.0000
0.4828 1.7586 0.0000
0.4828 1.7931 0.0000
0.4828 1.8276 0.0000
0.4828 1.8621 0.0000
0.4828 1.8966 0.0000
0.4828 1.9310 0.0000
0.4828 1.9655 0.0000
0.4828 2.0000 0.0000
0.5517 1.0000 0.0000
0.5517 1.0345 0.0000
0.5517 1.0690 0.0000
0.5517 1.1034 0.0000
0.5517 1.1379 0.0000
0.5517 1.1724 0.0000
0.5517 1.2069 0.0000
0.5517 1.2414 0.0000
0.5517 1.2759 0.0000
0.5517 1.3103 0.0000
0.5517 1.3448 0.0000
0.5517 1.3793 0.0000
0.5517 1.4138 0.0000
0.5517 1.4483 0.0000
0.5517 1.4828 0.0000
0.5517 1.5172 0.0000
0.5517 1.5517 0.0000
0.5517 1.5862 0.0000
0.5517 1.6207 0.0000
0.5517 1.6552 0.0000
0.5517 1.6897 0.0000
0.5517 1.7241 0.0000
0.5517 1.7586 0.0000
0.5517 1.7931 0.0000
0.5517 1.8276 0.0000
0.5517 1.8621 0.0000
0.5517 1.8966 0.0000
0.5517 1.9310 0.0000
0.5517 1.9655 0.0000
0.5517 2.0000 0.0000
0.6207 1.0000 0.0000
0.6207 1.0345 0.0000
0.6207 1.0690 0.0000
0.6207 1.1034 0.0000
0.6207 1.1379 0.0000
0.6207 1.1724 0.0000
0.6207 1.2069 0.0000
0.6207 1.2414 0.0000
0.6207 1.2759 0.0000
0.6207 1.3103 0.0000
0.6207 1.3448 0.0000
0.6207 1.3793 0.0000
0.6207 1.4138 0.0000
0.6207 1.4483 0.0000
0.6207 1.4828 0.0000
0.6207 1.5172 0.0000
0.6207 1.5517 0.0000
0.6207 1.5862 0.0000
0.6207 1.6207 0.0000
0.6207 1.6552 0.0000
0.6207 1.6897 0.0000
0.6207 1.7241 0.0000
0.6207 1.7586 0.0000
0.6207 1.7931 0.0000
0.6207 1.8276 0.0000
0.6207 1.8621 0.0000
0.6207 1.8966 0.0000
0.6207 1.9310 0.0000
0.6207 1.9655 0.0000
0.6207 2.0000 0.0000
0.6897 1.0000 0.0000
0.6897 1.0345 0.0000
0.6897 1.0690 0.0000
0.6897 1.1034 0.0000
0.6897 1.1379 0.0000
0.6897 1.1724 0.0000
0.6897 1.2069 0.0000
0.6897 1.2414 0.0000
0.6897 1.2759 0.0000
0.6897 1.3103 0.0000
0.6897 1.3448 0.0000
0.6897 1.3793 0.0000
0.6897 1.4138 0.0000
0.6897 1.4483 0.0000
0.6897 1.4828 0.0000
0.6897 1.5172 0.0000
0.6897 1.5517 0.0000
0.6897 1.5862 0.0000
0.6897 1.6207 0.0000
0.6897 1.6552 0.0000
0.6897 1.6897 0.0000
0.6897 1.7241 0.0000
0.6897 1.7586 0.0000
0.6897 1.7931 0.0000
0.6897 1.8276 0.0000
0.6897 1.8621 0.0000
0.6897 1.8966 0.0000
0.6897 1.9310 0.0000
0.6897 1.9655 0.0000
0.6897 2.0000 0.0000
0.7586 1.0000 0.0000
0.7586 1.0345 0.0000
0.7586 1.0690 0.0000
0.7586 1.1034 0.0000
0.7586 1.1379 0.0000
0.7586 1.1724 0.0000
0.7586 1.2069 0.0000
0.7586 1.2414 0.0000
0.7586 1.2759 0.0000
0.7586 1.3103 0.0000
0.7586 1.3448 0.0000
0.7586 1.3793 0.0000
0.7586 1.4138 0.0000
0.7586 1.4483 0.0000
0.7586 1.4828 0.0000
0.7586 1.5172 0.0000
0.7586 1.5517 0.0000
0.7586 1.5862 0.0000
0.7586 1.6207 0.0000
0.7586 1.6552 0.0000
0.7586 1.6897 0.0000
0.7586 1.7241 0.0000
0.7586 1.7586 0.0000
0.7586 1.7931 0.0000
0.7586 1.8276 0.0000
0.7586 1.8621 0.0000
0.7586 1.8966 0.0000
0.7586 1.9310 0.0000
0.7586 1.9655 0.0000
0.7586 2.0000 0.0000
0.8276 1.0000 0.0000
0.8276 1.0345 0.0000
0.8276 1.0690 0.0000
0.8276 1.1034 0.0000
0.8276 1.1379 0.0000
0.8276 1.1724 0.0000
0.8276 1.2069 0.0000
0.8276 1.2414 0.0000
0.8276 1.2759 0.0000
0.8276 1.3103 0.0000
0.8276 1.3448 0.0000
0.8276 1.3793 0.0000
0.8276 1.4138 0.0000
0.8276 1.4483 0.0000
0.8276 1.4828 0.0000
0.8276 1.5172 0.0000
0.8276 1.5517 0.0000
0.8276 1.5862 0.0000
0.8276 1.6207 0.0000
0.8276 1.6552 0.0000
0.8276 1.6897 0.0000
0.8276 1.7241 0.0000
0.8276 1.7586 0.0000
0.8276 1.7931 0.0000
0.8276 1.8276 0.0000
0.8276 1.8621 0.0000
0.8276 1.8966 0.0000
0.8276 1.9310 0.0000
0.8276 1.9655 0.0000
0.8276 2.0000 0.0000
0.8966 1.0000 0.0000
0.8966 1.0345 0.0000
0.8966 1.0690 0.0000
0.8966 1.1034 0.0000
0.8966 1.1379 0.0000
0.8966 1.1724 0.0000
0.8966 1.2069 0.0000
0.8966 1.2414 0.0000
0.8966 1.2759 0.0000
0.8966 1.3103 0.0000
0.8966 1.3448 0.0000
0.8966 1.3793 0.0000
0.8966 1.4138 0.0000
0.8966 1.4483 0.0000
0.8966 1.4828 0.0000
0.8966 1.5172 0.0000
0.8966 1.5517 0.0000
0.8966 1.5862 0.0000
0.8966 1.6207 0.0000
0.8966 1.6552 0.0000
0.8966 1.6897 0.0000
0.8966 1.7241 0.0000
0.8966 1.7586 0.0000
0.8966 1.7931 0.0000
0.8966 1.8276 0.0000
0.8966 1.8621 0.0000
0.8966 1.8966 0.0000
0.8966 1.9310 0.0000
0.8966 1.9655 0.0000
0.8966 2.0000 0.0000
0.9655 1.0000 0.0000
0.9655 1.0345 0.0000
0.9655 1.0690 0.0000
0.9655 1.1034 0.0000
0.9655 1.1379 0.0000
0.9655 1.1724 0.0000
0.9655 1.2069 0.0000
0.9655 1.2414 0.0000
0.9655 1.2759 0.0000
0.9655 1.3103 0.0000
0.9655 1.3448 0.0000
0.9655 1.3793 0.0000
0.9655 1.4138 0.0000
0.9655 1.4483 0.0000
0.9655 1.4828 0.0000
0.9655 1.5172 0.0000
0.9655 1.5517 0.0000
0.9655 1.5862 0.0000
0.9655 1.6207 0.0000
0.9655 1.6552 0.0000
0.9655 1.6897 0.0000
0.9655 1.7241 0.0000
0.9655 1.7586 0.0000
0.9655 1.7931 0.0000
0.9655 1.8276 0.0000
0.9655 1.8621 0.0000
0.9655 1.8966 0.0000
0.9655 1.9310 0.0000
0.9655 1.9655 0.0000
0.9655 2.0000 0.0000
1.0345 1.0000 0.0000
1.0345 1.0345 0.0000
1.0345 1.0690 0.0000
1.0345 1.1034 0.0000
1.0345 1.1379 0.0000
1.0345 1.1724 0.0000
1.0345 1.2069 0.0000
1.0345 1.2414 0.0000
1.0345 1.2759 0.0000
1.0345 1.3103 0.0000
1.0345 1.3448 0.0000
[...]
         <PointData>
            <DataArray Name="fValues" NumberOfComponents="3" format="ascii" type="Float64">
 4.04317e-21 -1.39580e-19        00000 
-1.00754e-20  2.83776e-19        00000 
 1.60916e-20 -7.31131e-19        00000 
 4.21280e-21  1.46993e-18        00000 
-3.82049e-20 -1.89547e-18        00000 
 4.05672e-20  1.33462e-18        00000 
-1.72183e-20 -8.02334e-19        00000 
 2.79374e-21  3.46076e-19        00000 
-1.75632e-22 -1.01390e-19        00000 
-2.11849e-23  2.13171e-20        00000 
 1.08487e-23 -4.22660e-21        00000 
-2.82978e-24  7.81193e-22        00000 
 6.14009e-25 -1.39520e-22        00000 
-1.22380e-25  1.84350e-23        00000 
 2.32597e-26 -3.51666e-24        00000 
-4.29207e-27  6.37211e-25        00000 
 7.76592e-28 -1.12716e-25        00000 
-1.38600e-28  1.96861e-26        00000 
 2.44921e-29 -3.41235e-27        00000 
-4.29625e-30  5.88654e-28        00000 
 7.49417e-31 -1.01187e-28        00000 
-1.30160e-31  1.69449e-29        00000 
 2.25298e-32 -2.98440e-30        00000 
-3.88924e-33  5.18056e-31        00000 
 6.69932e-34 -8.89290e-32        00000 
-1.15196e-34  1.51914e-32        00000 
 1.97801e-35 -2.58917e-33        00000 
-3.39518e-36  4.41117e-34        00000 
 5.98244e-37 -7.71506e-35        00000 
-1.99009e-37  2.55041e-35        00000 
-4.00995e-21  1.73441e-19        00000 
 1.42168e-20 -5.19844e-19        00000 
-8.84780e-20  1.88902e-18        00000 
 2.82467e-20 -4.18424e-18        00000 
 1.81837e-19  7.69489e-18        00000 
-1.54660e-19 -4.15797e-18        00000 
 2.13601e-20  2.33117e-18        00000 
-3.15129e-22 -7.31673e-19        00000 
-2.71922e-22  1.46822e-19        00000 
 8.50016e-23 -2.67437e-20        00000 
-1.94469e-23  4.74540e-21        00000 
 3.97110e-24 -8.39514e-22        00000 
-7.65210e-25  1.46161e-22        00000 
 1.42452e-25 -2.18171e-23        00000 
-2.59317e-26  3.83734e-24        00000 
 4.64843e-27 -6.69121e-25        00000 
-8.24128e-28  1.15996e-25        00000 
 1.44927e-28 -2.00181e-26        00000 
-2.53300e-29  3.44459e-27        00000 
 4.40620e-30 -5.90904e-28        00000 
-7.63633e-31  1.01212e-28        00000 
 1.31956e-31 -1.76959e-29        00000 
-2.27486e-32  3.05152e-30        00000 
 3.91428e-33 -5.19730e-31        00000 
-6.72476e-34  8.84856e-32        00000 
 1.15385e-34 -1.50573e-32        00000 
-1.97779e-35  2.56129e-33        00000 
 3.38985e-36 -4.35913e-34        00000 
-5.96557e-37  7.61965e-35        00000 
 1.98259e-37 -2.51813e-35        00000 
 1.92151e-21 -2.26455e-19        00000 
-1.16655e-20  7.38670e-19        00000 
 1.47557e-19 -7.28865e-18        00000 
-2.04763e-18  2.49525e-17        00000 
-8.56994e-18  1.79791e-01        00000 
 2.95755e-19  2.93912e-17        00000 
 3.86373e-20 -1.06426e-17        00000 
-8.14390e-21  1.53185e-18        00000 
 1.40920e-21 -2.28722e-19        00000 
-2.35598e-22  3.47252e-20        00000 
 3.93280e-23 -5.73960e-21        00000 
-6.60101e-24  9.48714e-22        00000 
 1.11432e-24 -1.57762e-22        00000 
-1.88946e-25  2.69318e-23        00000 
 3.21363e-26 -4.35601e-24        00000 
-5.47660e-27  7.23710e-25        00000 
 9.34429e-28 -1.21494e-25        00000 
-1.59541e-28  2.05742e-26        00000 
 2.72486e-29 -3.48366e-27        00000 
-4.65437e-30  5.89532e-28        00000 
 7.95002e-31 -1.00140e-28        00000 
-1.35778e-31  1.89564e-29        00000 
 2.31863e-32 -3.05635e-30        00000 
-3.95877e-33  5.10316e-31        00000 
 6.75799e-34 -8.60199e-32        00000 
-1.15347e-34  1.45602e-32        00000 
 1.96851e-35 -2.46953e-33        00000 
-3.36170e-36  4.19617e-34        00000 
 5.89740e-37 -7.32824e-35        00000 
-1.95524e-37  2.42081e-35        00000 
 3.42281e-21  2.55130e-19        00000 
-1.12338e-20 -7.44620e-19        00000 
 6.73522e-20  8.06045e-19        00000 
-7.52990e-18 -1.79791e-01        00000 
 4.31924e-19  8.25149e-01        00000 
-5.89769e-18 -1.79791e-01        00000 
-1.32963e-19  1.09210e-17        00000 
 1.71219e-20 -1.92012e-18        00000 
-2.44798e-21  2.73718e-19        00000 
 3.66890e-22 -3.91192e-20        00000 
-5.65650e-23  6.09772e-21        00000 
 8.90069e-24 -9.72143e-22        00000 
-1.42302e-24  1.56682e-22        00000 
 2.30414e-25 -2.68868e-23        00000 
-3.76891e-26  4.44127e-24        00000 
 6.21502e-27 -7.26767e-25        00000 
-1.03151e-27  1.22486e-25        00000 
 1.72081e-28 -2.03904e-26        00000 
-2.88248e-29  3.37885e-27        00000 
 4.84413e-30 -5.68666e-28        00000 
-8.16198e-31  9.55035e-29        00000 
 1.37811e-31 -1.62565e-29        00000 
-2.33078e-32  2.79797e-30        00000 
 3.94740e-33 -4.73284e-31        00000 
-6.69273e-34  8.00950e-32        00000 
 1.13577e-34 -1.35737e-32        00000 
-1.92892e-35  2.30311e-33        00000 
 3.28058e-36 -3.91423e-34        00000 
-5.73439e-37  6.83766e-35        00000 
 1.89594e-37 -2.25946e-35        00000 
-7.83914e-21 -2.48562e-19        00000 
 3.11995e-20  8.68895e-19        00000 
-2.75568e-19 -7.74820e-18        00000 
 3.51448e-18  2.27266e-17        00000 
-5.18116e-19  1.79791e-01        00000 
-5.06992e-19  4.86595e-17        00000 
 1.15844e-19 -1.26331e-17        00000 
-1.69480e-20  1.32538e-18        00000 
 2.51829e-21 -1.81990e-19        00000 
-3.83205e-22  3.22396e-20        00000 
 5.94153e-23 -5.18057e-21        00000 
-9.34777e-24  7.99455e-22        00000 
 1.48830e-24 -1.36952e-22        00000 
-2.39349e-25  2.45003e-23        00000 
 3.88240e-26 -3.77949e-24        00000 
-6.34407e-27  7.01625e-25        00000 
 1.04323e-27 -1.14280e-25        00000 
-1.72479e-28  1.78493e-26        00000 
 2.86481e-29 -3.09683e-27        00000 
-4.77700e-30  5.15668e-28        00000 
 7.99209e-31 -8.28913e-29        00000 
-1.34089e-31  1.40331e-29        00000 
 2.25511e-32 -2.42692e-30        00000 
-3.80038e-33  4.17296e-31        00000 
 6.41564e-34 -7.12927e-32        00000 
-1.08466e-34  1.21487e-32        00000 
 1.83615e-35 -2.06840e-33        00000 
-3.11408e-36  3.52367e-34        00000 
 5.42987e-37 -6.16715e-35        00000 
-1.79182e-37  2.04090e-35        00000 
 7.34563e-21  1.74360e-19        00000 
-2.53466e-20 -5.39933e-19        00000 
 1.55490e-19  2.08055e-18        00000 
-8.17912e-20 -6.76646e-18        00000 
-2.50687e-19  7.71731e-18        00000 
 2.37334e-19 -8.63497e-18        00000 
-4.69525e-20  3.46997e-18        00000 
 9.74902e-21 -8.56528e-19        00000 
-1.71434e-21  1.38412e-19        00000 
 2.87163e-22 -2.23913e-20        00000 
-4.73371e-23  3.81766e-21        00000 
 7.76528e-24 -6.40450e-22        00000 
-1.27331e-24  1.06463e-22        00000 
 2.09124e-25 -1.81555e-23        00000 
-3.44337e-26  3.12382e-24        00000 
 5.68660e-27 -5.26879e-25        00000 
-9.42030e-28  9.14086e-26        00000 
 1.56530e-28 -1.54457e-26        00000 
-2.60848e-29  2.57802e-27        00000 
 4.35860e-30 -4.37179e-28        00000 
-7.30091e-31  6.95657e-29        00000 
 1.22568e-31 -1.21954e-29        00000 
-2.06181e-32  2.08720e-30        00000 
 3.47454e-33 -3.57424e-31        00000 
-5.86459e-34  6.11860e-32        00000 
 9.91269e-35 -1.04617e-32        00000 
-1.67764e-35  1.78729e-33        00000 
 2.84461e-36 -3.05446e-34        00000 
-4.95912e-37  5.36217e-35        00000 
 1.63629e-37 -1.77899e-35        00000 
-3.85660e-21 -7.91196e-20        00000 
 9.25029e-21  1.64602e-19        00000 
-1.58701e-20 -4.65421e-19        00000 
 1.63523e-21  9.30222e-19        00000 
 2.59586e-20 -1.12461e-18        00000 
-3.10263e-20  1.19621e-18        00000 
 1.50478e-20 -7.12519e-19        00000 
-3.75486e-21  2.61982e-19        00000 
 8.23068e-22 -6.36375e-20        00000 
-1.60345e-22  1.24664e-20        00000 
 2.93346e-23 -2.27762e-21        00000 
-5.18685e-24  4.09095e-22        00000 
 8.99492e-25 -7.21120e-23        00000 
-1.54211e-25  1.25711e-23        00000 
 2.62583e-26 -2.19380e-24        00000 
-4.45316e-27  3.82489e-25        00000 
 7.53525e-28 -6.63636e-26        00000 
-1.27366e-28  1.15393e-26        00000 
 2.15210e-29 -1.98974e-27        00000 
-3.63691e-30  3.41264e-28        00000 
 6.14887e-31 -6.25183e-29        00000 
-1.04023e-31  1.02633e-29        00000 
 1.76110e-32 -1.73638e-30        00000 
-2.98381e-33  2.95683e-31        00000 
 5.05940e-34 -5.05351e-32        00000 
-8.58533e-35  8.65256e-33        00000 
 1.45795e-35 -1.48252e-33        00000 
-2.47953e-36  2.54266e-34        00000 
 4.33467e-37 -4.48138e-35        00000 
-1.43349e-37  1.49204e-35        00000 
 1.19979e-21  2.41327e-20        00000 
-1.59972e-21 -4.00459e-20        00000 
 1.62669e-21  8.07687e-20        00000 
 3.80203e-22 -1.45763e-19        00000 
-3.28777e-21  1.87087e-19        00000 
 4.18710e-21 -1.77053e-19        00000 
-2.75567e-21  1.22664e-19        00000 
 1.08877e-21 -5.82785e-20        00000 
-2.96427e-22  1.91736e-20        00000 
 6.89953e-23 -4.98134e-21        00000 
-1.44405e-23  1.07961e-21        00000 
 2.82615e-24 -2.14811e-22        00000 
-5.29929e-25  4.09390e-23        00000 
 9.66109e-26 -7.58233e-24        00000 
-1.72811e-26  1.37926e-24        00000 
 3.05065e-27 -2.48378e-25        00000 
-5.33553e-28  4.43611e-26        00000 
 9.27014e-29 -7.88111e-27        00000 
-1.60298e-29  1.39325e-27        00000 
 2.76239e-30 -2.44964e-28        00000 
-4.74869e-31  4.57599e-29        00000 
 8.14894e-32 -7.85883e-30        00000 
-1.39666e-32  1.34222e-30        00000 
 2.39171e-33 -2.30142e-31        00000 
-4.09330e-34  3.95522e-32        00000 
 7.00289e-35 -6.80753e-33        00000 
-1.19783e-35  1.17267e-33        00000 
 2.05027e-36 -2.02236e-34        00000 
-3.60579e-37  3.58501e-35        00000 
 1.19828e-37 -1.19967e-35        00000 
-2.41240e-22 -5.86581e-21        00000 
 2.49516e-22  8.17929e-21        00000 
-1.71578e-22 -1.55140e-20        00000 
-1.10144e-22  2.46023e-20        00000 
 4.56688e-22 -3.04580e-20        00000 
-5.91102e-22  2.89496e-20        00000 
 4.53844e-22 -2.00746e-20        00000 
-2.31569e-22  1.16132e-20        00000 
 8.39219e-23 -4.69939e-21        00000 
-2.36727e-23  1.51146e-21        00000 
 5.77144e-24 -4.01043e-22        00000 
-1.27455e-24  9.25245e-23        00000 
 2.63048e-25 -1.95770e-23        00000 
-5.17991e-26  3.93821e-24        00000 
 9.86646e-27 -7.67209e-25        00000 
-1.83459e-27  1.44028e-25        00000 
 3.35114e-28 -2.69242e-26        00000 
-6.04013e-29  4.95951e-27        00000 
 1.07767e-29 -8.87231e-28        00000 
-1.90775e-30  1.64743e-28        00000 
 3.35672e-31 -2.94753e-29        00000 
-5.87807e-32  5.32196e-30        00000 
 1.02546e-32 -9.42581e-31        00000 
-1.78363e-33  1.65342e-31        00000 
 3.09496e-34 -2.88881e-32        00000 
-5.36012e-35  5.03667e-33        00000 
 9.26907e-36 -8.77018e-34        00000 
-1.60220e-36  1.52691e-34        00000 
 2.84390e-37 -2.73118e-35        00000 
-9.52240e-38  9.20809e-36        00000 
 4.12793e-23  1.28671e-21        00000 
-3.75392e-23 -1.68685e-21        00000 
 1.85376e-23  2.75675e-21        00000 
 2.20634e-23 -4.02570e-21        00000 
-6.67344e-23  4.73080e-21        00000 
 8.63920e-23 -4.55597e-21        00000 
-7.26320e-23  3.43744e-21        00000 
 4.34150e-23 -2.08642e-21        00000 
-1.93024e-23  1.01304e-21        00000 
 6.68542e-24 -3.85632e-22        00000 
-1.91729e-24  1.21574e-22        00000 
 4.83531e-25 -3.28222e-23        00000 
-1.11270e-25  7.88523e-24        00000 
 2.39640e-26 -1.74785e-24        00000 
-4.91647e-27  3.66959e-25        00000 
 9.72842e-28 -7.40557e-26        00000 
-1.87302e-28  1.44817e-26        00000 
 3.53100e-29 -2.78036e-27        00000 
-6.54824e-30  5.24300e-28        00000 
 1.19873e-30 -9.74369e-29        00000 
-2.17184e-31  1.81082e-29        00000 
 3.90222e-32 -3.32247e-30        00000 
-6.96394e-33  6.06177e-31        00000 
 1.23592e-33 -1.09419e-31        00000 
-2.18342e-34  1.95778e-32        00000 
 3.84271e-35 -3.48126e-33        00000 
-6.74179e-36  6.16289e-34        00000 
 1.18069e-36 -1.08835e-34        00000 
-2.12179e-37  1.97230e-35        00000 
 7.17690e-38 -6.71977e-36        00000 
-6.54806e-24 -2.67386e-22        00000 
 5.52900e-24  3.27811e-22        00000 
-2.00743e-24 -4.83526e-22        00000 
-3.96850e-24  6.59341e-22        00000 
 1.00543e-23 -7.65663e-22        00000 
-1.29533e-23  7.29138e-22        00000 
 1.15466e-23 -5.74857e-22        00000 
-7.67762e-24  3.72644e-22        00000 
 3.94500e-24 -1.98386e-22        00000 
-1.61269e-24  8.74309e-23        00000 
 5.43167e-25 -3.18665e-23        00000 
-1.57179e-25  9.92537e-24        00000 
 4.06384e-26 -2.71619e-24        00000 
-9.65715e-27  6.72112e-25        00000 
 2.15319e-27 -1.54360e-25        00000 
-4.57282e-28  3.35627e-26        00000 
 9.35309e-29 -7.00056e-27        00000 
-1.85758e-29  1.41414e-27        00000 
 3.60426e-30 -2.78987e-28        00000 
-6.86394e-31  5.39740e-29        00000 
 1.28754e-31 -1.02891e-29        00000 
-2.38550e-32  1.94314e-30        00000 
 4.37492e-33 -3.63155e-31        00000 
-7.95575e-34  6.72783e-32        00000 
 1.43652e-34 -1.23482e-32        00000 
-2.57840e-35  2.24724e-33        00000 
 4.60471e-36 -4.06111e-34        00000 
-8.19553e-37  7.30388e-35        00000 
 1.49562e-37 -1.34617e-35        00000 
-5.12309e-38  4.64921e-36        00000 
 9.95682e-25  5.26792e-23        00000 
-8.00606e-25 -6.15388e-23        00000 
 2.08888e-25  8.39566e-23        00000 
 6.82406e-25 -1.08927e-22        00000 
-1.54488e-24  1.22417e-22        00000 
 1.97923e-24 -1.18225e-22        00000 
-1.83694e-24  9.57778e-23        00000 
 1.31797e-24 -6.53963e-23        00000 
-7.53058e-25  3.76398e-23        00000 
 3.50023e-25 -1.82605e-23        00000 
-1.35333e-25  7.51737e-24        00000 
 4.47170e-26 -2.65229e-24        00000 
-1.30118e-26  8.19480e-25        00000 
 3.42782e-27 -2.26648e-25        00000 
-8.35642e-28  5.73573e-26        00000 
 1.91713e-28 -1.35461e-26        00000 
-4.19266e-29  3.03270e-27        00000 
 8.82644e-30 -6.51123e-28        00000 
-1.80216e-30  1.35259e-28        00000 
 3.58945e-31 -2.73763e-29        00000 
-7.00552e-32  5.42551e-30        00000 
 1.34452e-32 -1.05756e-30        00000 
-2.54467e-33  2.03492e-31        00000 
 4.76000e-34 -3.87072e-32        00000 
-8.81627e-35  7.28801e-33        00000 
 1.61924e-35 -1.35916e-33        00000 
-2.95275e-36  2.51282e-34        00000 
 5.35643e-37 -4.61497e-35        00000 
-9.95479e-38  8.67709e-36        00000 
 3.46129e-38 -3.04571e-36        00000 
-1.47256e-25 -9.04631e-24        00000 
 1.14021e-25  1.01884e-23        00000 
-1.90321e-26 -1.38569e-23        00000 
-1.14973e-25  1.77460e-23        00000 
 2.40637e-25 -1.99897e-23        00000 
-3.06746e-25  1.95098e-23        00000 
 2.93184e-25 -1.60922e-23        00000 
-2.22652e-25  1.13462e-23        00000 
 1.37903e-25 -6.94522e-24        00000 
-7.08606e-26  3.63765e-24        00000 
 3.06898e-26 -1.64439e-24        00000 
-1.14076e-26  6.45141e-25        00000 
 3.71683e-27 -2.22154e-25        00000 
-1.08557e-27  6.82498e-26        00000 
 2.90161e-28 -1.90348e-26        00000 
-7.22112e-29  4.90276e-27        00000 
 1.69656e-29 -1.18434e-27        00000 
-3.80450e-30  2.71758e-28        00000 
 8.21375e-31 -5.98283e-29        00000 
-1.71893e-31  1.27379e-29        00000 
 3.50584e-32 -2.63925e-30        00000 
-6.99856e-33  5.34800e-31        00000 
 1.37216e-33 -1.06419e-31        00000 
-2.64969e-34  2.08621e-32        00000 
 5.05087e-35 -4.03751e-33        00000 
-9.52199e-36  7.72604e-34        00000 
 1.77814e-36 -1.46345e-34        00000 
-3.29666e-37  2.74957e-35        00000 
 6.25626e-38 -5.28558e-36        00000 
-2.21295e-38  1.88938e-36        00000 
 2.13110e-26  1.69031e-24        00000 
-1.59390e-26 -1.88766e-24        00000 
 1.04645e-27  2.39230e-24        00000 
 1.92048e-26 -2.95003e-24        00000 
-3.78694e-26  3.27087e-24        00000 
 4.80631e-26 -3.17980e-24        00000 
-4.69776e-26  2.68134e-24        00000 
 3.72794e-26 -1.96234e-24        00000 
-2.45944e-26  1.25431e-24        00000 
 1.36877e-26 -7.00423e-25        00000 
-6.50521e-27  3.41591e-25        00000 
 2.67445e-27 -1.46245e-25        00000 
-9.65458e-28  5.53442e-26        00000 
 3.11210e-28 -1.87077e-26        00000 
-9.11400e-29  5.72318e-27        00000 
 2.46427e-29 -1.60695e-27        00000 
-6.23753e-30  4.19815e-28        00000 
 1.49516e-30 -1.03321e-28        00000 
-3.42609e-31  2.42090e-29        00000 
 7.56232e-32 -5.44722e-30        00000 
-1.61783e-32  1.18533e-30        00000 
 3.37132e-33 -2.50869e-31        00000 
-6.87098e-34  5.18813e-32        00000 
 1.37413e-34 -1.05243e-32        00000 
-2.70406e-35  2.10046e-33        00000 
 5.24759e-36 -4.13385e-34        00000 
-1.00622e-36  8.03680e-35        00000 
 1.91146e-37 -1.54726e-35        00000 
-3.71363e-38  3.04652e-36        00000 
 1.33906e-38 -1.11079e-36        00000 
-3.02220e-27 -3.12779e-25        00000 
 2.17684e-27  3.41457e-25        00000 
 1.28498e-28 -4.13445e-25        00000 
-3.20010e-27  4.92499e-25        00000 
 6.00943e-27 -5.37380e-25        00000 
-7.59661e-27  5.22002e-25        00000 
 7.55690e-27 -4.46977e-25        00000 
-6.21054e-27  3.36830e-25        00000 
 4.31027e-27 -2.23781e-25        00000 
-2.55926e-27  1.31515e-25        00000 
 1.31319e-27 -6.83268e-26        00000 
-5.88045e-28  3.14663e-26        00000 
 2.32329e-28 -1.29084e-26        00000 
-8.20003e-29  4.75005e-27        00000 
 2.62092e-29 -1.58253e-27        00000 
-7.69117e-30  4.82576e-28        00000 
 2.09906e-30 -1.36243e-28        00000 
-5.38868e-31  3.60111e-29        00000 
 1.31394e-31 -9.00246e-30        00000 
-3.06783e-32  2.14752e-30        00000 
 6.90509e-33 -4.92512e-31        00000 
-1.50663e-33  1.09272e-31        00000 
 3.20140e-34 -2.35757e-32        00000 
-6.64998e-35  4.96762e-33        00000 
 1.35463e-35 -1.02591e-33        00000 
-2.71321e-36  2.08258e-34        00000 
 5.35540e-37 -4.16532e-35        00000 
-1.04486e-37  8.23306e-36        00000 
 2.08317e-38 -1.66347e-36        00000 
-7.67189e-39  6.19535e-37        00000 
 4.19137e-28  5.69607e-26        00000 
-2.88000e-28 -6.10687e-26        00000 
-6.64437e-29  7.13327e-26        00000 
 5.33674e-28 -8.25244e-26        00000 
-9.60479e-28  8.87196e-26        00000 
 1.20930e-27 -8.61005e-26        00000 
-1.22012e-27  7.46111e-26        00000 
 1.03177e-27 -5.75700e-26        00000 
-7.46446e-28  3.96517e-26        00000 
 4.67535e-28 -2.42623e-26        00000 
-2.55743e-28  1.32841e-26        00000 
 1.23138e-28 -6.50730e-27        00000 
-5.26259e-29  2.86059e-27        00000 
 2.01511e-29 -1.13400e-27        00000 
-6.98627e-30  4.08066e-28        00000 
 2.21770e-30 -1.34385e-28        00000 
-6.51827e-31  4.08749e-29        00000 
 1.79272e-31 -1.15927e-29        00000 
-4.65747e-32  3.09418e-30        00000 
 1.15246e-32 -7.83872e-31        00000 
-2.73525e-33  1.89916e-31        00000 
 6.26408e-34 -4.42921e-32        00000 
-1.39118e-34  9.99877e-33        00000 
 3.00891e-35 -2.19514e-33        00000 
-6.36025e-36  4.70532e-34        00000 
 1.31789e-36 -9.88037e-35        00000 
-2.68376e-37  2.03814e-35        00000 
 5.38956e-38 -4.14505e-36        00000 
-1.10517e-38  8.61151e-37        00000 
 4.16433e-39 -3.28093e-37        00000 
-5.65278e-29 -1.02446e-26        00000 
 3.63407e-29  1.08306e-26        00000 
 1.79714e-29 -1.22906e-26        00000 
-8.92215e-29  1.38706e-26        00000 
 1.54495e-28 -1.47225e-26        00000 
-1.93679e-28  1.43223e-26        00000 
 1.97672e-28 -1.24252e-26        00000 
-1.71165e-28  9.81065e-27        00000 
 1.28197e-28 -6.96870e-27        00000 
-8.39751e-29  4.41897e-27        00000 
 4.84841e-29 -2.52799e-27        00000 
-2.48372e-29  1.30511e-27        00000 
 1.13643e-29 -6.08961e-28        00000 
-4.67810e-30  2.57655e-28        00000 
 1.74669e-30 -9.93234e-29        00000 
-5.96839e-31  3.50963e-29        00000 
 1.88387e-31 -1.14491e-29        00000 