<?xml version="1.0" encoding="utf-8"?>
<VTKFile byte_order="LittleEndian" type="UnstructuredGrid" version="0.1">
   <UnstructuredGrid>
      <Piece NumberOfCells="3364" NumberOfPoints="1741">
         <Points>
            <DataArray Name="Points" NumberOfComponents="3" format="ascii" type="Float32">
0.0000 1.0000 0.0000
0.0000 1.0345 0.0000
0.0000 1.0690 0.0000
0.0000 1.1034 0.0000
0.0000 1.1379 0.0000
0.0000 1.1724 0.0000
0.0000 1.2069 0.0000
0.0000 1.2414 0.0000
0.0000 1.2759 0.0000
0.0000 1.3103 0.0000
0.0000 1.3448 0.0000
0.0000 1.3793 0.0000
0.0000 1.4138 0.0000
0.0000 1.4483 0.0000
0.0000 1.4828 0.0000
0.0000 1.5172 0.0000
0.0000 1.5517 0.0000
0.0000 1.5862 0.0000
0.0000 1.6207 0.0000
0.0000 1.6552 0.0000
0.0000 1.6897 0.0000
0.0000 1.7241 0.0000
0.0000 1.7586 0.0000
0.0000 1.7931 0.0000
0.0000 1.8276 0.0000
0.0000 1.8621 0.0000
0.0000 1.8966 0.0000
0.0000 1.9310 0.0000
0.0000 1.9655 0.0000
0.0000 2.0000 0.0000
0.0690 1.0000 0.0000
0.0690 1.0345 0.0000
0.0690 1.0690 0.0000
0.0690 1.1034 0.0000
0.0690 1.1379 0.0000
0.0690 1.1724 0.0000
0.0690 1.2069 0.0000
0.0690 1.2414 0.0000
0.0690 1.2759 0.0000
0.0690 1.3103 0.0000
0.0690 1.3448 0.0000
0.0690 1.3793 0.0000
0.0690 1.4138 0.0000
0.0690 1.4483 0.0000
0.0690 1.4828 0.0000
0.0690 1.5172 0.0000
0.0690 1.5517 0.0000
0.0690 1.5862 0.0000
0.0690 1.6207 0.0000
0.0690 1.6552 0.0000
0.0690 1.6897 0.0000
0.0690 1.7241 0.0000
0.0690 1.7586 0.0000
0.0690 1.7931 0.0000
0.0690 1.8276 0.0000
0.0690 1.8621 0.0000
0.0690 1.8966 0.0000
0.0690 1.9310 0.0000
0.0690 1.9655 0.0000
0.0690 2.0000 0.0000
0.1379 1.0000 0.0000
0.1379 1.0345 0.0000
0.1379 1.0690 0.0000
0.1379 1.1034 0.0000
0.1379 1.1379 0.0000
0.1379 1.1724 0.0000
0.1379 1.2069 0.0000
0.1379 1.2414 0.0000
0.1379 1.2759 0.0000
0.1379 1.3103 0.0000
0.1379 1.3448 0.0000
0.1379 1.3793 0.0000
0.1379 1.4138 0.0000
0.1379 1.4483 0.0000
0.1379 1.4828 0.0000
0.1379 1.5172 0.0000
0.1379 1.5517 0.0000
0.1379 1.5862 0.0000
0.1379 1.6207 0.0000
0.1379 1.6552 0.0000
0.1379 1.6897 0.0000
0.1379 1.7241 0.0000
0.1379 1.7586 0.0000
0.1379 1.7931 0.0000
0.1379 1.8276 0.0000
0.1379 1.8621 0.0000
0.1379 1.8966 0.0000
0.1379 1.9310 0.0000
0.1379 1.9655 0.0000
0.1379 2.0000 0.0000
0.2069 1.0000 0.0000
0.2069 1.0345 0.0000
0.2069 1.0690 0.0000
0.2069 1.1034 0.0000
0.2069 1.1379 0.0000
0.2069 1.1724 0.0000
0.2069 1.2069 0.0000
0.2069 1.2414 0.0000
0.2069 1.2759 0.0000
0.2069 1.3103 0.0000
0.2069 1.3448 0.0000
0.2069 1.3793 0.0000
0.2069 1.4138 0.0000
0.2069 1.4483 0.0000
0.2069 1.4828 0.0000
0.2069 1.5172 0.0000
0.2069 1.5517 0.0000
0.2069 1.5862 0.0000
0.2069 1.6207 0.0000
0.2069 1.6552 0.0000
0.2069 1.6897 0.0000
0.2069 1.7241 0.0000
0.2069 1.7586 0.0000
0.2069 1.7931 0.0000
0.2069 1.8276 0.0000
0.2069 1.8621 0.0000
0.2069 1.8966 0.0000
0.2069 1.9310 0.0000
0.2069 1.9655 0.0000
0.2069 2.0000 0.0000
0.2759 1.0000 0.0000
0.2759 1.0345 0.0000
0.2759 1.0690 0.0000
0.2759 1.1034 0.0000
0.2759 1.1379 0.0000
0.2759 1.1724 0.0000
0.2759 1.2069 0.0000
0.2759 1.2414 0.0000
0.2759 1.2759 0.0000
0.2759 1.3103 0.0000
0.2759 1.3448 0.0000
0.2759 1.3793 0.0000
0.2759 1.4138 0.0000
0.2759 1.4483 0.0000
0.2759 1.4828 0.0000
0.2759 1.5172 0.0000
0.2759 1.5517 0.0000
0.2759 1.5862 0.0000
0.2759 1.6207 0.0000
0.2759 1.6552 0.0000
0.2759 1.6897 0.0000
0.2759 1.7241 0.0000
0.2759 1.7586 0.0000
0.2759 1.7931 0.0000
0.2759 1.8276 0.0000
0.2759 1.8621 0.0000
0.2759 1.8966 0.0000
0.2759 1.9310 0.0000
0.2759 1.9655 0.0000
0.2759 2.0000 0.0000
0.3448 1.0000 0.0000
0.3448 1.0345 0.0000
0.3448 1.0690 0.0000
0.3448 1.1034 0.0000
0.3448 1.1379 0.0000
0.3448 1.1724 0.0000
0.3448 1.2069 0.0000
0.3448 1.2414 0.0000
0.3448 1.2759 0.0000
0.3448 1.3103 0.0000
0.3448 1.3448 0.0000
0.3448 1.3793 0.0000
0.3448 1.4138 0.0000
0.3448 1.4483 0.0000
0.3448 1.4828 0.0000
0.3448 1.5172 0.0000
0.3448 1.5517 0.0000
0.3448 1.5862 0.0000
0.3448 1.6207 0.0000
0.3448 1.6552 0.0000
0.3448 1.6897 0.0000
0.3448 1.7241 0.0000
0.3448 1.7586 0.0000
0.3448 1.7931 0.0000
0.3448 1.8276 0.0000
0.3448 1.8621 0.0000
0.3448 1.8966 0.0000
0.3448 1.9310 0.0000
0.3448 1.9655 0.0000
0.3448 2.0000 0.0000
0.4138 1.0000 0.0000
0.4138 1.0345 0.0000
0.4138 1.0690 0.0000
0.4138 1.1034 0.0000
0.4138 1.1379 0.0000
0.4138 1.1724 0.0000
0.4138 1.2069 0.0000
0.4138 1.2414 0.0000
0.4138 1.2759 0.0000
0.4138 1.3103 0.0000
0.4138 1.3448 0.0000
0.4138 1.3793 0.0000
0.4138 1.4138 0.0000
0.4138 1.4483 0.0000
0.4138 1.4828 0.0000
0.4138 1.5172 0.0000
0.4138 1.5517 0.0000
0.4138 1.5862 0.0000
0.4138 1.6207 0.0000
0.4138 1.6552 0.0000
0.4138 1.6897 0.0000
0.4138 1.7241 0.0000
0.4138 1.7586 0.0000
0.4138 1.7931 0.0000
0.4138 1.8276 0.0000
0.4138 1.8621 0.0000
0.4138 1.8966 0.0000
0.4138 1.9310 0.0000
0.4138 1.9655 0.0000
0.4138 2.0000 0.0000
0.4828 1.0000 0.0000
0.4828 1.0345 0.0000
0.4828 1.0690 0.0000
0.4828 1.1034 0.0000
0.4828 1.1379 0.0000
0.4828 1.1724 0.0000
0.4828 1.2069 0.0000
0.4828 1.2414 0.0000
0.4828 1.2759 0.0000
0.4828 1.3103 0.0000
0.4828 1.3448 0.0000
0.4828 1.3793 0.0000
0.4828 1.4138 0.0000
0.4828 1.4483 0.0000
0.4828 1.4828 0.0000
0.4828 1.5172 0.0000
0.4828 1.5517 0.0000
0.4828 1.5862 0.0000
0.4828 1.6207 0.0000
0.4828 1.6552 0.0000
0.4828 1.6897 0.0000
0.4828 1.7241 0.0000
0.4828 1.7586 0.0000
0.4828 1.7931 0.0000
0.4828 1.8276 0.0000
0.4828 1.8621 0.0000
0.4828 1.8966 0.0000
0.4828 1.9310 0.0000
0.4828 1.9655 0.0000
0.4828 2.0000 0.0000
0.5517 1.0000 0.0000
0.5517 1.0345 0.0000
0.5517 1.0690 0.0000
0.5517 1.1034 0.0000
0.5517 1.1379 0.0000
0.5517 1.1724 0.0000
0.5517 1.2069 0.0000
0.5517 1.2414 0.0000
0.5517 1.2759 0.0000
0.5517 1.3103 0.0000
0.5517 1.3448 0.0000
0.5517 1.3793 0.0000
0.5517 1.4138 0.0000
0.5517 1.4483 0.0000
0.5517 1.4828 0.0000
0.5517 1.5172 0.0000
0.5517 1.5517 0.0000
0.5517 1.5862 0.0000
0.5517 1.6207 0.0000
0.5517 1.6552 0.0000
0.5517 1.6897 0.0000
0.5517 1.7241 0.0000
0.5517 1.7586 0.0000
0.5517 1.7931 0.0000
0.5517 1.8276 0.0000
0.5517 1.8621 0.0000
0.5517 1.8966 0.0000
0.5517 1.9310 0.0000
0.5517 1.9655 0.0000
0.5517 2.0000 0.0000
0.6207 1.0000 0.0000
0.6207 1.0345 0.0000
0.6207 1.0690 0.0000
0.6207 1.1034 0.0000
0.6207 1.1379 0.0000
0.6207 1.1724 0.0000
0.6207 1.2069 0.0000
0.6207 1.2414 0.0000
0.6207 1.2759 0.0000
0.6207 1.3103 0.0000
0.6207 1.3448 0.0000
0.6207 1.3793 0.0000
0.6207 1.4138 0.0000
0.6207 1.4483 0.0000
0.6207 1.4828 0.0000
0.6207 1.5172 0.0000
0.6207 1.5517 0.0000
0.6207 1.5862 0.0000
0.6207 1.6207 0.0000
0.6207 1.6552 0.0000
0.6207 1.6897 0.0000
0.6207 1.7241 0.0000
0.6207 1.7586 0.0000
0.6207 1.7931 0.0000
0.6207 1.8276 0.0000
0.6207 1.8621 0.0000
0.6207 1.8966 0.0000
0.6207 1.9310 0.0000
0.6207 1.9655 0.0000
0.6207 2.0000 0.0000
0.6897 1.0000 0.0000
0.6897 1.0345 0.0000
0.6897 1.0690 0.0000
0.6897 1.1034 0.0000
0.6897 1.1379 0.0000
0.6897 1.1724 0.0000
0.6897 1.2069 0.0000
0.6897 1.2414 0.0000
0.6897 1.2759 0.0000
0.6897 1.3103 0.0000
0.6897 1.3448 0.0000
0.6897 1.3793 0.0000
0.6897 1.4138 0.0000
0.6897 1.4483 0.0000
0.6897 1.4828 0.0000
0.6897 1.5172 0.0000
0.6897 1.5517 0.0000
0.6897 1.5862 0.0000
0.6897 1.6207 0.0000
0.6897 1.6552 0.0000
0.6897 1.6897 0.0000
0.6897 1.7241 0.0000
0.6897 1.7586 0.0000
0.6897 1.7931 0.0000
0.6897 1.8276 0.0000
0.6897 1.8621 0.0000
0.6897 1.8966 0.0000
0.6897 1.9310 0.0000
0.6897 1.9655 0.0000
0.6897 2.0000 0.0000
0.7586 1.0000 0.0000
0.7586 1.0345 0.0000
0.7586 1.0690 0.0000
0.7586 1.1034 0.0000
0.7586 1.1379 0.0000
0.7586 1.1724 0.0000
0.7586 1.2069 0.0000
0.7586 1.2414 0.0000
0.7586 1.2759 0.0000
0.7586 1.3103 0.0000
0.7586 1.3448 0.0000
0.7586 1.3793 0.0000
0.7586 1.4138 0.0000
0.7586 1.4483 0.0000
0.7586 1.4828 0.0000
0.7586 1.5172 0.0000
0.7586 1.5517 0.0000
0.7586 1.5862 0.0000
0.7586 1.6207 0.0000
0.7586 1.6552 0.0000
0.7586 1.6897 0.0000
0.7586 1.7241 0.0000
0.7586 1.7586 0.0000
0.7586 1.7931 0.0000
0.7586 1.8276 0.0000
0.7586 1.8621 0.0000
0.7586 1.8966 0.0000
0.7586 1.9310 0.0000
0.7586 1.9655 0.0000
0.7586 2.0000 0.0000
0.8276 1.0000 0.0000
0.8276 1.0345 0.0000
0.8276 1.0690 0.0000
0.8276 1.1034 0.0000
0.8276 1.1379 0.0000
0.8276 1.1724 0.0000
0.8276 1.2069 0.0000
0.8276 1.2414 0.0000
0.8276 1.2759 0.0000
0.8276 1.3103 0.0000
0.8276 1.3448 0.0000
0.8276 1.3793 0.0000
0.8276 1.4138 0.0000
0.8276 1.4483 0.0000
0.8276 1.4828 0.0000
0.8276 1.5172 0.0000
0.8276 1.5517 0.0000
0.8276 1.5862 0.0000
0.8276 1.6207 0.0000
0.8276 1.6552 0.0000
0.8276 1.6897 0.0000
0.8276 1.7241 0.0000
0.8276 1.7586 0.0000
0.8276 1.7931 0.0000
0.8276 1.8276 0.0000
0.8276 1.8621 0.0000
0.8276 1.8966 0.0000
0.8276 1.9310 0.0000
0.8276 1.9655 0.0000
0.8276 2.0000 0.0000
0.8966 1.0000 0.0000
0.8966 1.0345 0.0000
0.8966 1.0690 0.0000
0.8966 1.1034 0.0000
0.8966 1.1379 0.0000
0.8966 1.1724 0.0000
0.8966 1.2069 0.0000
0.8966 1.2414 0.0000
0.8966 1.2759 0.0000
0.8966 1.3103 0.0000
0.8966 1.3448 0.0000
0.8966 1.3793 0.0000
0.8966 1.4138 0.0000
0.8966 1.4483 0.0000
0.8966 1.4828 0.0000
0.8966 1.5172 0.0000
0.8966 1.5517 0.0000
0.8966 1.5862 0.0000
0.8966 1.6207 0.0000
0.8966 1.6552 0.0000
0.8966 1.6897 0.0000
0.8966 1.7241 0.0000
0.8966 1.7586 0.0000
0.8966 1.7931 0.0000
0.8966 1.8276 0.0000
0.8966 1.8621 0.0000
0.8966 1.8966 0.0000
0.8966 1.9310 0.0000
0.8966 1.9655 0.0000
0.8966 2.0000 0.0000
0.9655 1.0000 0.0000
0.9655 1.0345 0.0000
0.9655 1.0690 0.0000
0.9655 1.1034 0.0000
0.9655 1.1379 0.0000
0.9655 1.1724 0.0000
0.9655 1.2069 0.0000
0.9655 1.2414 0.0000
0.9655 1.2759 0.0000
0.9655 1.3103 0.0000
0.9655 1.3448 0.0000
0.9655 1.3793 0.0000
0.9655 1.4138 0.0000
0.9655 1.4483 0.0000
0.9655 1.4828 0.0000
0.9655 1.5172 0.0000
0.9655 1.5517 0.0000
0.9655 1.5862 0.0000
0.9655 1.6207 0.0000
0.9655 1.6552 0.0000
0.9655 1.6897 0.0000
0.9655 1.7241 0.0000
0.9655 1.7586 0.0000
0.9655 1.7931 0.0000
0.9655 1.8276 0.0000
0.9655 1.8621 0.0000
0.9655 1.8966 0.0000
0.9655 1.9310 0.0000
0.9655 1.9655 0.0000
0.9655 2.0000 0.0000
1.0345 1.0000 0.0000
1.0345 1.0345 0.0000
1.0345 1.0690 0.0000
1.0345 1.1034 0.0000
1.0345 1.1379 0.0000
1.0345 1.1724 0.0000
1.0345 1.2069 0.0000
1.0345 1.2414 0.0000
1.0345 1.2759 0.0000
1.0345 1.3103 0.0000
1.0345 1.3448 0.0000
[...]
         <PointData>
            <DataArray Name="fValues" NumberOfComponents="3" format="ascii" type="Float64">
 5.27439e-37  1.19447e-35        00000 
-5.86828e-37 -1.38159e-35        00000 
 7.59498e-37  1.94869e-35        00000 
-1.02708e-36 -2.90374e-35        00000 
 1.35445e-36  4.23268e-35        00000 
-1.68796e-36 -5.87037e-35        00000 
 1.96045e-36  7.68035e-35        00000 
-2.10455e-36 -9.45689e-35        00000 
 2.07163e-36  1.09548e-34        00000 
-1.84907e-36 -1.19418e-34        00000 
 1.46783e-36  1.22565e-34        00000 
-9.95455e-37 -1.18513e-34        00000 
 5.16304e-37  1.08029e-34        00000 
-1.06795e-37 -9.28916e-35        00000 
-1.84402e-37  7.53924e-35        00000 
 3.44288e-37 -5.77865e-35        00000 
-3.90620e-37  4.18473e-35        00000 
 3.58743e-37 -2.86423e-35        00000 
-2.86995e-37  1.85342e-35        00000 
 2.06161e-37 -1.13413e-35        00000 
-1.35089e-37  6.56398e-36        00000 
 8.15135e-38 -3.59414e-36        00000 
-4.55841e-38  1.86247e-36        00000 
 2.37374e-38 -9.13800e-37        00000 
-1.15550e-38  4.24787e-37        00000 
 5.27652e-39 -1.87284e-37        00000 
-2.27039e-39  7.85039e-38        00000 
 9.32983e-40 -3.16536e-38        00000 
-3.96655e-40  1.32776e-38        00000 
 2.56456e-40 -8.53029e-39        00000 
-1.46108e-36 -3.21332e-35        00000 
 1.64416e-36  3.76639e-35        00000 
-2.17925e-36 -5.45302e-35        00000 
 3.01640e-36  8.32395e-35        00000 
-4.05320e-36 -1.23700e-34        00000 
 5.12443e-36  1.74195e-34        00000 
-6.01448e-36 -2.30631e-34        00000 
 6.50037e-36  2.86521e-34        00000 
-6.41646e-36 -3.33941e-34        00000 
 5.71595e-36  3.65282e-34        00000 
-4.49917e-36 -3.75231e-34        00000 
 2.99079e-36  3.62237e-34        00000 
-1.47148e-36 -3.28876e-34        00000 
 1.92257e-37  2.81018e-34        00000 
 6.92759e-37 -2.26148e-34        00000 
-1.15087e-36  1.71501e-34        00000 
 1.25050e-36 -1.22621e-34        00000 
-1.11377e-36  8.26905e-35        00000 
 8.66742e-37 -5.26094e-35        00000 
-6.05778e-37  3.15856e-35        00000 
 3.85870e-37 -1.78991e-35        00000 
-2.26048e-37  9.57653e-36        00000 
 1.22549e-37 -4.83944e-36        00000 
-6.17797e-38  2.31123e-36        00000 
 2.90763e-38 -1.04404e-36        00000 
-1.28232e-38  4.46627e-37        00000 
 5.32312e-39 -1.81389e-37        00000 
-2.10641e-39  7.07117e-38        00000 
 8.58782e-40 -2.85566e-38        00000 
-5.39752e-40  1.78778e-38        00000 
 7.49492e-36  1.59092e-34        00000 
-8.55766e-36 -1.89685e-34        00000 
 1.16850e-35  2.83739e-34        00000 
-1.66374e-35 -4.46050e-34        00000 
 2.28663e-35  6.78517e-34        00000 
-2.94140e-35 -9.73254e-34        00000 
 3.49636e-35  1.30724e-33        00000 
-3.81012e-35 -1.64162e-33        00000 
 3.77412e-35  1.92748e-33        00000 
-3.35478e-35 -2.11709e-33        00000 
 2.61409e-35  2.17695e-33        00000 
-1.69536e-35 -2.09740e-33        00000 
 7.77773e-36  1.89505e-33        00000 
-1.91326e-37 -1.60705e-33        00000 
-4.88012e-36  1.28010e-33        00000 
 7.30481e-36 -9.58398e-34        00000 
-7.58460e-36  6.74775e-34        00000 
 6.52651e-36 -4.46936e-34        00000 
-4.91838e-36  2.78560e-34        00000 
 3.32752e-36 -1.63404e-34        00000 
-2.04874e-36  9.02322e-35        00000 
 1.15786e-36 -4.69182e-35        00000 
-6.04353e-37  2.29824e-35        00000 
 2.92738e-37 -1.06128e-35        00000 
-1.32136e-37  4.62470e-36        00000 
 5.57973e-38 -1.90451e-36        00000 
-2.21426e-38  7.43114e-37        00000 
 8.35519e-39 -2.77534e-37        00000 
-3.22978e-39  1.06766e-37        00000 
 1.95608e-39 -6.46022e-38        00000 
-3.92136e-35 -8.02863e-34        00000 
 4.54948e-35  9.75253e-34        00000 
-6.41230e-35 -1.51016e-33        00000 
 9.40302e-35  2.44768e-33        00000 
-1.32296e-34 -3.81467e-33        00000 
 1.73283e-34  5.57802e-33        00000 
-2.08754e-34 -7.60617e-33        00000 
 2.29506e-34  9.66057e-33        00000 
-2.28225e-34 -1.14310e-32        00000 
 2.02450e-34  1.26097e-32        00000 
-1.56102e-34 -1.29795e-32        00000 
 9.85814e-35  1.24788e-32        00000 
-4.16464e-35 -1.12176e-32        00000 
-4.51360e-36  9.43750e-33        00000 
 3.42205e-35 -7.43754e-33        00000 
-4.71176e-35  5.49451e-33        00000 
 4.69045e-35 -3.80706e-33        00000 
-3.90140e-35  2.47496e-33        00000 
 2.84590e-35 -1.50995e-33        00000 
-1.86216e-35  8.64642e-34        00000 
 1.10700e-35 -4.64807e-34        00000 
-6.02868e-36  2.34642e-34        00000 
 3.02608e-36 -1.11296e-34        00000 
-1.40693e-36  4.96450e-35        00000 
 6.08565e-37 -2.08521e-35        00000 
-2.45931e-37  8.26172e-36        00000 
 9.32942e-38 -3.09644e-36        00000 
-3.35912e-38  1.10838e-36        00000 
 1.23293e-38 -4.06616e-37        00000 
-7.19773e-39  2.37849e-37        00000 
 2.02570e-34  3.98974e-33        00000 
-2.39378e-34 -4.95106e-33        00000 
 3.49559e-34  7.96698e-33        00000 
-5.29334e-34 -1.33503e-32        00000 
 7.63955e-34  2.13636e-32        00000 
-1.02064e-33 -3.19056e-32        00000 
 1.24792e-33  4.42357e-32        00000 
-1.38562e-33 -5.68890e-32        00000 
 1.38414e-33  6.78899e-32        00000 
-1.22536e-33 -7.52440e-32        00000 
 9.34114e-34  7.75342e-32        00000 
-5.72430e-34 -7.43677e-32        00000 
 2.17983e-34  6.64768e-32        00000 
 6.31337e-35 -5.54432e-32        00000 
-2.36229e-34  4.31872e-32        00000 
 3.02447e-34 -3.14438e-32        00000 
-2.88845e-34  2.14106e-32        00000 
 2.31926e-34 -1.36389e-32        00000 
-1.63410e-34  8.12935e-33        00000 
 1.03143e-34 -4.53425e-33        00000 
-5.90282e-35  2.36702e-33        00000 
 3.08788e-35 -1.15694e-33        00000 
-1.48564e-35  5.29835e-34        00000 
 6.60804e-36 -2.27612e-34        00000 
-2.73026e-36  9.18733e-35        00000 
 1.05274e-36 -3.49208e-35        00000 
-3.80742e-37  1.25392e-35        00000 
 1.30533e-37 -4.29272e-36        00000 
-4.54149e-38  1.49911e-36        00000 
 2.55089e-38 -8.46177e-37        00000 
-1.02962e-33 -1.94440e-32        00000 
 1.24291e-33  2.47322e-32        00000 
-1.88857e-33 -4.15444e-32        00000 
 2.96241e-33  7.22085e-32        00000 
-4.39646e-33 -1.18965e-31        00000 
 6.00356e-33  1.81875e-31        00000 
-7.46291e-33 -2.56866e-31        00000 
 8.37964e-33  3.34953e-31        00000 
-8.41512e-33 -4.03512e-31        00000 
 7.43559e-33  4.49544e-31        00000 
-5.59808e-33 -4.63755e-31        00000 
 3.31461e-33  4.43633e-31        00000 
-1.10163e-33 -3.94098e-31        00000 
-6.10290e-34  3.25549e-31        00000 
 1.61070e-33 -2.50358e-31        00000 
-1.93149e-33  1.79397e-31        00000 
 1.76933e-33 -1.19845e-31        00000 
-1.36883e-33  7.46601e-32        00000 
 9.29050e-34 -4.33764e-32        00000 
-5.63865e-34  2.35033e-32        00000 
 3.09562e-34 -1.18793e-32        00000 
-1.54967e-34  5.60341e-33        00000 
 7.11874e-35 -2.46906e-33        00000 
-3.01755e-35  1.01788e-33        00000 
 1.18651e-35 -3.93450e-34        00000 
-4.35017e-36  1.42995e-34        00000 
 1.49548e-36 -4.90464e-35        00000 
-4.87010e-37  1.60192e-35        00000 
 1.60309e-37 -5.31475e-36        00000 
-8.64586e-38  2.88905e-36        00000 
 5.13379e-33  9.25995e-32        00000 
-6.35306e-33 -1.21211e-31        00000 
 1.00942e-32  2.13645e-31        00000 
-1.64598e-32 -3.86626e-31        00000 
 2.51914e-32  6.57892e-31        00000 
-3.52485e-32 -1.03245e-30        00000 
 4.46395e-32  1.48865e-30        00000 
-5.07656e-32 -1.97157e-30        00000 
 5.12997e-32  2.40023e-30        00000 
-4.52486e-32 -2.68940e-30        00000 
 3.36043e-32  2.77776e-30        00000 
-1.91228e-32 -2.64921e-30        00000 
 5.26296e-33  2.33710e-30        00000 
 5.15701e-33 -1.91019e-30        00000 
-1.08744e-32  1.44841e-30        00000 
 1.22721e-32 -1.01984e-30        00000 
-1.07730e-32  6.67140e-31        00000 
 8.01047e-33 -4.05523e-31        00000 
-5.22030e-33  2.29035e-31        00000 
 3.03506e-33 -1.20186e-31        00000 
-1.59183e-33  5.86087e-32        00000 
 7.59269e-34 -2.65780e-32        00000 
-3.31562e-34  1.12232e-32        00000 
 1.33368e-34 -4.42240e-33        00000 
-4.97072e-35  1.63072e-33        00000 
 1.72673e-35 -5.64712e-34        00000 
-5.62538e-36  1.84462e-34        00000 
 1.73614e-36 -5.73440e-35        00000 
-5.39824e-37  1.80432e-35        00000 
 2.79055e-37 -9.42879e-36        00000 
-2.50198e-32 -4.29064e-31        00000 
 3.18745e-32  5.80731e-31        00000 
-5.32568e-32 -1.08043e-30        00000 
 9.06423e-32  2.04476e-30        00000 
-1.43553e-31 -3.60758e-30        00000 
 2.06435e-31  5.83090e-30        00000 
-2.67006e-31 -8.60649e-30        00000 
 3.08121e-31  1.15999e-29        00000 
-3.13674e-31 -1.42897e-29        00000 
 2.76249e-31  1.61136e-29        00000 
-2.02095e-31 -1.66639e-29        00000 
 1.09792e-31  1.58378e-29        00000 
-2.26955e-32 -1.38634e-29        00000 
-4.06589e-32  1.11980e-29        00000 
 7.28214e-32 -8.35941e-30        00000 
-7.75608e-32  5.77304e-30        00000 
 6.51374e-32 -3.68988e-30        00000 
-4.64053e-32  2.18265e-30        00000 
 2.89226e-32 -1.19458e-30        00000 
-1.60361e-32  6.04843e-31        00000 
 7.99630e-33 -2.83400e-31        00000 
-3.61602e-33  1.23006e-31        00000 
 1.49371e-33 -4.95519e-32        00000 
-5.67503e-34  1.85800e-32        00000 
 1.99648e-34 -6.50908e-33        00000 
-6.54769e-35  2.14009e-33        00000 
 2.01574e-35 -6.63809e-34        00000 
-5.88403e-36  1.96001e-34        00000 
 1.72623e-36 -5.84114e-35        00000 
-8.54123e-37  2.93015e-35        00000 
 1.18645e-31  1.92387e-30        00000 
-1.56397e-31 -2.70775e-30        00000 
 2.76561e-31  5.35344e-30        00000 
-4.93636e-31 -1.06514e-29        00000 
 8.12326e-31  1.95764e-29        00000 
-1.20494e-30 -3.27219e-29        00000 
 1.59653e-30  4.96054e-29        00000 
-1.87378e-30 -6.82061e-29        00000 
 1.92447e-30  8.51542e-29        00000 
-1.69281e-30 -9.67094e-29        00000 
 1.21795e-30  1.00143e-28        00000 
-6.26283e-31 -9.47978e-29        00000 
 7.69580e-32  8.22522e-29        00000 
 3.07483e-31 -6.55677e-29        00000 
-4.84263e-31  4.81054e-29        00000 
 4.87374e-31 -3.25161e-29        00000 
-3.90581e-31  2.02538e-29        00000 
 2.65550e-31 -1.16219e-29        00000 
-1.57532e-31  6.14043e-30        00000 
 8.28510e-32 -2.98662e-30        00000 
-3.90567e-32  1.33797e-30        00000 
 1.66497e-32 -5.52955e-31        00000 
-6.47050e-33  2.11406e-31        00000 
 2.31044e-33 -7.50673e-32        00000 
-7.63970e-34  2.48793e-32        00000 
 2.35747e-34 -7.73954e-33        00000 
-6.84122e-35  2.27369e-33        00000 
 1.88592e-35 -6.36580e-34        00000 
-5.21754e-36  1.79548e-34        00000 
 2.46886e-36 -8.63789e-35        00000 
-5.44347e-31 -8.29196e-30        00000 
 7.46995e-31  1.22170e-29        00000 
-1.40833e-30 -2.58655e-29        00000 
 2.65097e-30  5.44438e-29        00000 
-4.55567e-30 -1.04848e-28        00000 
 7.00147e-30  1.82163e-28        00000 
-9.53858e-30 -2.84799e-28        00000 
 1.14181e-29  4.00692e-28        00000 
-1.18521e-29 -5.07974e-28        00000 
 1.04178e-29  5.81555e-28        00000 
-7.35785e-30 -6.03004e-28        00000 
 3.54075e-30  5.68148e-28        00000 
-6.23669e-32 -4.88046e-28        00000 
-2.26279e-30  3.83329e-28        00000 
 3.20025e-30 -2.75856e-28        00000 
-3.04251e-30  1.82054e-28        00000 
 2.31843e-30 -1.10174e-28        00000 
-1.49681e-30  6.10930e-29        00000 
 8.40239e-31 -3.10159e-29        00000 
-4.16511e-31  1.44137e-29        00000 
 1.84401e-31 -6.13756e-30        00000 
-7.36279e-32  2.40068e-30        00000 
 2.67600e-32 -8.66090e-31        00000 
-8.93475e-33  2.89763e-31        00000 
 2.76557e-33 -9.04787e-32        00000 
-8.00609e-34  2.65488e-32        00000 
 2.18592e-34 -7.37177e-33        00000 
-5.68593e-35  1.95498e-33        00000 
 1.48366e-35 -5.21827e-34        00000 
-6.71198e-36  2.40669e-34        00000 
 2.39926e-30  3.40693e-29        00000 
-3.45256e-30 -5.29525e-29        00000 
 6.99814e-30  1.21093e-28        00000 
-1.39853e-29 -2.71707e-28        00000 
 2.52543e-29  5.52261e-28        00000 
-4.04369e-29 -1.00376e-27        00000 
 5.69059e-29  1.62686e-27        00000 
-6.97206e-29 -2.35102e-27        00000 
 7.33093e-29  3.03374e-27        00000 
-6.44335e-29 -3.50503e-27        00000 
 4.45738e-29  3.63907e-27        00000 
-1.97664e-29 -3.40972e-27        00000 
-2.35351e-30  2.89555e-27        00000 
 1.63418e-29 -2.23663e-27        00000 
-2.10229e-29  1.57512e-27        00000 
 1.88455e-29 -1.01204e-27        00000 
-1.35893e-29  5.92852e-28        00000 
 8.27926e-30 -3.16189e-28        00000 
-4.36640e-30  1.53355e-28        00000 
 2.02450e-30 -6.76423e-29        00000 
-8.35337e-31  2.71851e-29        00000 
 3.10162e-31 -9.99485e-30        00000 
-1.04771e-31  3.38165e-30        00000 
 3.25487e-32 -1.06064e-30        00000 
-9.39784e-33  3.10870e-31        00000 
 2.54673e-33 -8.58330e-32        00000 
-6.53547e-34  2.24978e-32        00000 
 1.60398e-34 -5.64985e-33        00000 
-3.95120e-35  1.42818e-33        00000 
 1.70962e-35 -6.31604e-34        00000 
-1.00690e-29 -1.32103e-28        00000 
 1.53242e-29  2.18454e-28        00000 
-3.37127e-29 -5.44742e-28        00000 
 7.21082e-29  1.31496e-27        00000 
-1.37888e-28 -2.84681e-27        00000 
 2.31629e-28  5.45748e-27        00000 
-3.38670e-28 -9.23134e-27        00000 
 4.26585e-28  1.37700e-26        00000 
-4.55679e-28 -1.81418e-26        00000 
 4.00869e-28  2.11808e-26        00000 
-2.70909e-28 -2.20177e-26        00000 
 1.08307e-28  2.04925e-26        00000 
 3.30060e-29 -1.71729e-26        00000 
-1.16445e-28  1.30168e-26        00000 
 1.37256e-28 -8.94714e-27        00000 
-1.15603e-28  5.57775e-27        00000 
 7.83820e-29 -3.14840e-27        00000 
-4.47082e-29  1.60535e-27        00000 
 2.19571e-29 -7.38395e-28        00000 
-9.43545e-30  3.06597e-28        00000 
 3.59669e-30 -1.15334e-28        00000 
-1.23234e-30  3.95552e-29        00000 
 3.84538e-31 -1.24732e-29        00000 
-1.10680e-31  3.65104e-30        00000 
 2.97339e-32 -1.00162e-30        00000 
-7.53451e-33  2.59868e-31        00000 
 1.81734e-33 -6.42813e-32        00000 
-4.21204e-34  1.52960e-32        00000 
 9.81245e-35 -3.66712e-33        00000 
-4.06498e-35  1.55649e-33        00000 
 3.97920e-29  4.77667e-28        00000 
-6.46743e-29 -8.47850e-28        00000 
 1.56071e-28  2.32857e-27        00000 
-3.60839e-28 -6.11411e-27        00000 
 7.37856e-28  1.42623e-26        00000 
-1.31191e-27 -2.91471e-26        00000 
 2.00778e-27  5.19100e-26        00000 
-2.61490e-27 -8.04467e-26        00000 
 2.84845e-27  1.08649e-25        00000 
-2.51154e-27 -1.28402e-25        00000 
 1.65288e-27  1.33609e-25        00000 
-5.76451e-28 -1.23337e-25        00000 
-3.30732e-28  1.01771e-25        00000 
 8.21597e-28 -7.55064e-26        00000 
-8.89964e-28  5.05021e-26        00000 
 7.00322e-28 -3.04215e-26        00000 
-4.42709e-28  1.64490e-26        00000 
 2.34030e-28 -7.95565e-27        00000 
-1.05868e-28  3.43745e-27        00000 
 4.17099e-29 -1.33006e-27        00000 
-1.45464e-29  4.63865e-28        00000 
 4.56379e-30 -1.47240e-28        00000 
-1.30854e-30  4.30309e-29        00000 
 3.47905e-31 -1.17154e-29        00000 
-8.68683e-32  3.00385e-30        00000 
 2.05888e-32 -7.32258e-31        00000 
-4.67321e-33  1.71089e-31        00000 
 1.02470e-33 -3.86352e-32        00000 
-2.26321e-34  8.80471e-33        00000 
 8.99194e-35 -3.59213e-33        00000 
-1.46103e-28 -1.58919e-27        00000 
 2.56244e-28  3.05189e-27        00000 
-6.86135e-28 -9.32059e-27        00000 
 1.73559e-27  2.69602e-26        00000 
-3.84250e-27 -6.87509e-26        00000 
 7.31437e-27  1.51894e-25        00000 
-1.18311e-26 -2.88242e-25        00000 
 1.60522e-26  4.68224e-25        00000 
-1.79217e-26 -6.51790e-25        00000 
 1.58694e-26  7.81427e-25        00000 
-1.01315e-26 -8.13566e-25        00000 
 2.92113e-27  7.43313e-25        00000 
 2.93198e-27 -6.02299e-25        00000 
-5.75324e-27  4.36148e-25        00000 
 5.72169e-27 -2.82883e-25        00000 
-4.17196e-27  1.63799e-25        00000 
 2.43120e-27 -8.41678e-26        00000 
-1.17571e-27  3.82024e-26        00000 
 4.83322e-28 -1.53153e-26        00000 
-1.72417e-28  5.45542e-27        00000 
 5.44658e-29 -1.74604e-27        00000 
-1.55421e-29  5.09294e-28        00000 
 4.08028e-30 -1.37386e-28        00000 
-1.00106e-30  3.47366e-29        00000 
 2.32476e-31 -8.32608e-30        00000 
-5.16268e-32  1.90965e-30        00000 
 1.10532e-32 -4.22301e-31        00000 
-2.29921e-33  9.07227e-32        00000 
 4.82993e-34 -1.97110e-32        00000 
-1.84462e-34  7.74585e-33        00000 
 4.90675e-28  4.79701e-27        00000 
-9.37807e-28 -1.00223e-26        00000 
 2.81886e-27  3.42899e-26        00000 
-7.91492e-27 -1.10731e-25        00000 
 1.92751e-26  3.14171e-25        00000 
-3.98766e-26 -7.64457e-25        00000 
 6.90574e-26  1.57151e-24        00000 
-9.86025e-26 -2.70965e-24        00000 
 1.13608e-25  3.91794e-24        00000 
-1.01323e-25 -4.77913e-24        00000 
 6.24578e-26  4.97398e-24        00000 
-1.34697e-26 -4.48433e-24        00000 
-2.44796e-26  3.55634e-24        00000 
 4.00351e-26 -2.50606e-24        00000 
-3.63699e-26  1.57005e-24        00000 
 2.42803e-26 -8.67743e-25        00000 
-1.28454e-26  4.18938e-25        00000 
 5.58754e-27 -1.75800e-25        00000 
-2.05361e-27  6.43658e-26        00000 
 6.54517e-28 -2.08216e-26        00000 
-1.85632e-28  6.05855e-27        00000 
 4.79748e-29 -1.61586e-27        00000 
-1.15228e-29  4.01734e-28        00000 
 2.61227e-30 -9.44015e-29        00000 
-5.65681e-31  2.11970e-29        00000 
 1.18082e-31 -4.58701e-30        00000 
-2.39288e-32  9.63069e-31        00000 
 4.73859e-33 -1.97465e-31        00000 
-9.50368e-34  4.10463e-32        00000 
 3.49870e-34 -1.55768e-32        00000 
-1.48230e-27 -1.29609e-26        00000 
 3.10918e-27  2.95115e-26        00000 
-1.05941e-26 -1.13453e-25        00000 
 3.35610e-26  4.13541e-25        00000 
-9.17139e-26 -1.33102e-24        00000 
 2.10395e-25  3.65446e-24        00000 
-3.97074e-25 -8.33270e-24        00000 
 6.05078e-25  1.55376e-23        00000 
-7.26450e-25 -2.36068e-23        00000 
 6.55432e-25  2.94204e-23        00000 
-3.87805e-25 -3.05560e-23        00000 
 4.91386e-26  2.70603e-23        00000 
 1.97929e-25 -2.09216e-23        00000 
-2.76884e-25  1.43091e-23        00000 
 2.27427e-25 -8.61976e-24        00000 
-1.36620e-25  4.49936e-24        00000 
 6.42525e-26 -2.00571e-24        00000 
-2.45999e-26  7.62065e-25        00000 
 7.93501e-27 -2.50059e-25        00000 
-2.23240e-27  7.25284e-26        00000 
 5.65541e-28 -1.90677e-26        00000 
-1.32332e-28  4.64399e-27        00000 
 2.91496e-29 -1.06586e-27        00000 
-6.12953e-30  2.33515e-28        00000 
 1.24309e-30 -4.93087e-29        00000 
-2.45002e-31  1.01084e-29        00000 
 4.71984e-32 -2.02308e-30        00000 
-8.93545e-33  3.97442e-31        00000 
 1.71827e-33 -7.93562e-32        00000 
-6.11723e-34  2.91688e-32        00000 
 3.96326e-27  3.09850e-26        00000 
-9.14215e-27 -7.66251e-26        00000 
 3.54716e-26  3.30128e-25        00000 
-1.28719e-25 -1.36437e-24        00000 
 4.04258e-25  5.06141e-24        00000 
-1.05650e-24 -1.61419e-23        00000 
 2.22814e-24  4.22379e-23        00000 
-3.69774e-24 -8.76969e-23        00000 
 4.69165e-24  1.42633e-22        00000 
-4.31141e-24 -1.82788e-22        00000 
 2.43040e-24  1.88786e-22        00000 
-3.74665e-26 -1.63034e-22        00000 
-1.57412e-24  1.22382e-22        00000 
 1.90020e-24 -8.11651e-23        00000 
-1.38659e-24  4.67209e-23        00000 
 7.30514e-25 -2.26157e-23        00000 
-2.96616e-25  9.05450e-24        00000 