<?xml version="1.0" encoding="utf-8"?>
<VTKFile byte_order="LittleEndian" type="UnstructuredGrid" version="0.1">
   <UnstructuredGrid>
      <Piece NumberOfCells="3364" NumberOfPoints="1741">
         <Points>
            <DataArray Name="Points" NumberOfComponents="3" format="ascii" type="Float32">
0.0000 1.0000 0.0000
0.0000 1.0345 0.0000
0.0000 1.0690 0.0000
0.0000 1.1034 0.0000
0.0000 1.1379 0.0000
0.0000 1.1724 0.0000
0.0000 1.2069 0.0000
0.0000 1.2414 0.0000
0.0000 1.2759 0.0000
0.0000 1.3103 0.0000
0.0000 1.3448 0.0000
0.0000 1.3793 0.0000
0.0000 1.4138 0.0000
0.0000 1.4483 0.0000
0.0000 1.4828 0.0000
0.0000 1.5172 0.0000
0.0000 1.5517 0.0000
0.0000 1.5862 0.0000
0.0000 1.6207 0.0000
0.0000 1.6552 0.0000
0.0000 1.6897 0.0000
0.0000 1.7241 0.0000
0.0000 1.7586 0.0000
0.0000 1.7931 0.0000
0.0000 1.8276 0.0000
0.0000 1.8621 0.0000
0.0000 1.8966 0.0000
0.0000 1.9310 0.0000
0.0000 1.9655 0.0000
0.0000 2.0000 0.0000
0.0690 1.0000 0.0000
0.0690 1.0345 0.0000
0.0690 1.0690 0.0000
0.0690 1.1034 0.0000
0.0690 1.1379 0.0000
0.0690 1.1724 0.0000
0.0690 1.2069 0.0000
0.0690 1.2414 0.0000
0.0690 1.2759 0.0000
0.0690 1.3103 0.0000
0.0690 1.3448 0.0000
0.0690 1.3793 0.0000
0.0690 1.4138 0.0000
0.0690 1.4483 0.0000
0.0690 1.4828 0.0000
0.0690 1.5172 0.0000
0.0690 1.5517 0.0000
0.0690 1.5862 0.0000
0.0690 1.6207 0.0000
0.0690 1.6552 0.0000
0.0690 1.6897 0.0000
0.0690 1.7241 0.0000
0.0690 1.7586 0.0000
0.0690 1.7931 0.0000
0.0690 1.8276 0.0000
0.0690 1.8621 0.0000
0.0690 1.8966 0.0000
0.0690 1.9310 0.0000
0.0690 1.9655 0.0000
0.0690 2.0000 0.0000
0.1379 1.0000 0.0000
0.1379 1.0345 0.0000
0.1379 1.0690 0.0000
0.1379 1.1034 0.0000
0.1379 1.1379 0.0000
0.1379 1.1724 0.0000
0.1379 1.2069 0.0000
0.1379 1.2414 0.0000
0.1379 1.2759 0.0000
0.1379 1.3103 0.0000
0.1379 1.3448 0.0000
0.1379 1.3793 0.0000
0.1379 1.4138 0.0000
0.1379 1.4483 0.0000
0.1379 1.4828 0.0000
0.1379 1.5172 0.0000
0.1379 1.5517 0.0000
0.1379 1.5862 0.0000
0.1379 1.6207 0.0000
0.1379 1.6552 0.0000
0.1379 1.6897 0.0000
0.1379 1.7241 0.0000
0.1379 1.7586 0.0000
0.1379 1.7931 0.0000
0.1379 1.8276 0.0000
0.1379 1.8621 0.0000
0.1379 1.8966 0.0000
0.1379 1.9310 0.0000
0.1379 1.9655 0.0000
0.1379 2.0000 0.0000
0.2069 1.0000 0.0000
0.2069 1.0345 0.0000
0.2069 1.0690 0.0000
0.2069 1.1034 0.0000
0.2069 1.1379 0.0000
0.2069 1.1724 0.0000
0.2069 1.2069 0.0000
0.2069 1.2414 0.0000
0.2069 1.2759 0.0000
0.2069 1.3103 0.0000
0.2069 1.3448 0.0000
0.2069 1.3793 0.0000
0.2069 1.4138 0.0000
0.2069 1.4483 0.0000
0.2069 1.4828 0.0000
0.2069 1.5172 0.0000
0.2069 1.5517 0.0000
0.2069 1.5862 0.0000
0.2069 1.6207 0.0000
0.2069 1.6552 0.0000
0.2069 1.6897 0.0000
0.2069 1.7241 0.0000
0.2069 1.7586 0.0000
0.2069 1.7931 0.0000
0.2069 1.8276 0.0000
0.2069 1.8621 0.0000
0.2069 1.8966 0.0000
0.2069 1.9310 0.0000
0.2069 1.9655 0.0000
0.2069 2.0000 0.0000
0.2759 1.0000 0.0000
0.2759 1.0345 0.0000
0.2759 1.0690 0.0000
0.2759 1.1034 0.0000
0.2759 1.1379 0.0000
0.2759 1.1724 0.0000
0.2759 1.2069 0.0000
0.2759 1.2414 0.0000
0.2759 1.2759 0.0000
0.2759 1.3103 0.0000
0.2759 1.3448 0.0000
0.2759 1.3793 0.0000
0.2759 1.4138 0.0000
0.2759 1.4483 0.0000
0.2759 1.4828 0.0000
0.2759 1.5172 0.0000
0.2759 1.5517 0.0000
0.2759 1.5862 0.0000
0.2759 1.6207 0.0000
0.2759 1.6552 0.0000
0.2759 1.6897 0.0000
0.2759 1.7241 0.0000
0.2759 1.7586 0.0000
0.2759 1.7931 0.0000
0.2759 1.8276 0.0000
0.2759 1.8621 0.0000
0.2759 1.8966 0.0000
0.2759 1.9310 0.0000
0.2759 1.9655 0.0000
0.2759 2.0000 0.0000
0.3448 1.0000 0.0000
0.3448 1.0345 0.0000
0.3448 1.0690 0.0000
0.3448 1.1034 0.0000
0.3448 1.1379 0.0000
0.3448 1.1724 0.0000
0.3448 1.2069 0.0000
0.3448 1.2414 0.0000
0.3448 1.2759 0.0000
0.3448 1.3103 0.0000
0.3448 1.3448 0.0000
0.3448 1.3793 0.0000
0.3448 1.4138 0.0000
0.3448 1.4483 0.0000
0.3448 1.4828 0.0000
0.3448 1.5172 0.0000
0.3448 1.5517 0.0000
0.3448 1.5862 0.0000
0.3448 1.6207 0.0000
0.3448 1.6552 0.0000
0.3448 1.6897 0.0000
0.3448 1.7241 0.0000
0.3448 1.7586 0.0000
0.3448 1.7931 0.0000
0.3448 1.8276 0.0000
0.3448 1.8621 0.0000
0.3448 1.8966 0.0000
0.3448 1.9310 0.0000
0.3448 1.9655 0.0000
0.3448 2.0000 0.0000
0.4138 1.0000 0.0000
0.4138 1.0345 0.0000
0.4138 1.0690 0.0000
0.4138 1.1034 0.0000
0.4138 1.1379 0.0000
0.4138 1.1724 0.0000
0.4138 1.2069 0.0000
0.4138 1.2414 0.0000
0.4138 1.2759 0.0000
0.4138 1.3103 0.0000
0.4138 1.3448 0.0000
0.4138 1.3793 0.0000
0.4138 1.4138 0.0000
0.4138 1.4483 0.0000
0.4138 1.4828 0.0000
0.4138 1.5172 0.0000
0.4138 1.5517 0.0000
0.4138 1.5862 0.0000
0.4138 1.6207 0.0000
0.4138 1.6552 0.0000
0.4138 1.6897 0.0000
0.4138 1.7241 0.0000
0.4138 1.7586 0.0000
0.4138 1.7931 0.0000
0.4138 1.8276 0.0000
0.4138 1.8621 0.0000
0.4138 1.8966 0.0000
0.4138 1.9310 0.0000
0.4138 1.9655 0.0000
0.4138 2.0000 0.0000
0.4828 1.0000 0.0000
0.4828 1.0345 0.0000
0.4828 1.0690 0.0000
0.4828 1.1034 0.0000
0.4828 1.1379 0.0000
0.4828 1.1724 0.0000
0.4828 1.2069 0.0000
0.4828 1.2414 0.0000
0.4828 1.2759 0.0000
0.4828 1.3103 0.0000
0.4828 1.3448 0.0000
0.4828 1.3793 0.0000
0.4828 1.4138 0.0000
0.4828 1.4483 0.0000
0.4828 1.4828 0.0000
0.4828 1.5172 0.0000
0.4828 1.5517 0.0000
0.4828 1.5862 0.0000
0.4828 1.6207 0.0000
0.4828 1.6552 0.0000
0.4828 1.6897 0.0000
0.4828 1.7241 0.0000
0.4828 1.7586 0.0000
0.4828 1.7931 0.0000
0.4828 1.8276 0.0000
0.4828 1.8621 0.0000
0.4828 1.8966 0.0000
0.4828 1.9310 0.0000
0.4828 1.9655 0.0000
0.4828 2.0000 0.0000
0.5517 1.0000 0.0000
0.5517 1.0345 0.0000
0.5517 1.0690 0.0000
0.5517 1.1034 0.0000
0.5517 1.1379 0.0000
0.5517 1.1724 0.0000
0.5517 1.2069 0.0000
0.5517 1.2414 0.0000
0.5517 1.2759 0.0000
0.5517 1.3103 0.0000
0.5517 1.3448 0.0000
0.5517 1.3793 0.0000
0.5517 1.4138 0.0000
0.5517 1.4483 0.0000
0.5517 1.4828 0.0000
0.5517 1.5172 0.0000
0.5517 1.5517 0.0000
0.5517 1.5862 0.0000
0.5517 1.6207 0.0000
0.5517 1.6552 0.0000
0.5517 1.6897 0.0000
0.5517 1.7241 0.0000
0.5517 1.7586 0.0000
0.5517 1.7931 0.0000
0.5517 1.8276 0.0000
0.5517 1.8621 0.0000
0.5517 1.8966 0.0000
0.5517 1.9310 0.0000
0.5517 1.9655 0.0000
0.5517 2.0000 0.0000
0.6207 1.0000 0.0000
0.6207 1.0345 0.0000
0.6207 1.0690 0.0000
0.6207 1.1034 0.0000
0.6207 1.1379 0.0000
0.6207 1.1724 0.0000
0.6207 1.2069 0.0000
0.6207 1.2414 0.0000
0.6207 1.2759 0.0000
0.6207 1.3103 0.0000
0.6207 1.3448 0.0000
0.6207 1.3793 0.0000
0.6207 1.4138 0.0000
0.6207 1.4483 0.0000
0.6207 1.4828 0.0000
0.6207 1.5172 0.0000
0.6207 1.5517 0.0000
0.6207 1.5862 0.0000
0.6207 1.6207 0.0000
0.6207 1.6552 0.0000
0.6207 1.6897 0.0000
0.6207 1.7241 0.0000
0.6207 1.7586 0.0000
0.6207 1.7931 0.0000
0.6207 1.8276 0.0000
0.6207 1.8621 0.0000
0.6207 1.8966 0.0000
0.6207 1.9310 0.0000
0.6207 1.9655 0.0000
0.6207 2.0000 0.0000
0.6897 1.0000 0.0000
0.6897 1.0345 0.0000
0.6897 1.0690 0.0000
0.6897 1.1034 0.0000
0.6897 1.1379 0.0000
0.6897 1.1724 0.0000
0.6897 1.2069 0.0000
0.6897 1.2414 0.0000
0.6897 1.2759 0.0000
0.6897 1.3103 0.0000
0.6897 1.3448 0.0000
0.6897 1.3793 0.0000
0.6897 1.4138 0.0000
0.6897 1.4483 0.0000
0.6897 1.4828 0.0000
0.6897 1.5172 0.0000
0.6897 1.5517 0.0000
0.6897 1.5862 0.0000
0.6897 1.6207 0.0000
0.6897 1.6552 0.0000
0.6897 1.6897 0.0000
0.6897 1.7241 0.0000
0.6897 1.7586 0.0000
0.6897 1.7931 0.0000
0.6897 1.8276 0.0000
0.6897 1.8621 0.0000
0.6897 1.8966 0.0000
0.6897 1.9310 0.0000
0.6897 1.9655 0.0000
0.6897 2.0000 0.0000
0.7586 1.0000 0.0000
0.7586 1.0345 0.0000
0.7586 1.0690 0.0000
0.7586 1.1034 0.0000
0.7586 1.1379 0.0000
0.7586 1.1724 0.0000
0.7586 1.2069 0.0000
0.7586 1.2414 0.0000
0.7586 1.2759 0.0000
0.7586 1.3103 0.0000
0.7586 1.3448 0.0000
0.7586 1.3793 0.0000
0.7586 1.4138 0.0000
0.7586 1.4483 0.0000
0.7586 1.4828 0.0000
0.7586 1.5172 0.0000
0.7586 1.5517 0.0000
0.7586 1.5862 0.0000
0.7586 1.6207 0.0000
0.7586 1.6552 0.0000
0.7586 1.6897 0.0000
0.7586 1.7241 0.0000
0.7586 1.7586 0.0000
0.7586 1.7931 0.0000
0.7586 1.8276 0.0000
0.7586 1.8621 0.0000
0.7586 1.8966 0.0000
0.7586 1.9310 0.0000
0.7586 1.9655 0.0000
0.7586 2.0000 0.0000
0.8276 1.0000 0.0000
0.8276 1.0345 0.0000
0.8276 1.0690 0.0000
0.8276 1.1034 0.0000
0.8276 1.1379 0.0000
0.8276 1.1724 0.0000
0.8276 1.2069 0.0000
0.8276 1.2414 0.0000
0.8276 1.2759 0.0000
0.8276 1.3103 0.0000
0.8276 1.3448 0.0000
0.8276 1.3793 0.0000
0.8276 1.4138 0.0000
0.8276 1.4483 0.0000
0.8276 1.4828 0.0000
0.8276 1.5172 0.0000
0.8276 1.5517 0.0000
0.8276 1.5862 0.0000
0.8276 1.6207 0.0000
0.8276 1.6552 0.0000
0.8276 1.6897 0.0000
0.8276 1.7241 0.0000
0.8276 1.7586 0.0000
0.8276 1.7931 0.0000
0.8276 1.8276 0.0000
0.8276 1.8621 0.0000
0.8276 1.8966 0.0000
0.8276 1.9310 0.0000
0.8276 1.9655 0.0000
0.8276 2.0000 0.0000
0.8966 1.0000 0.0000
0.8966 1.0345 0.0000
0.8966 1.0690 0.0000
0.8966 1.1034 0.0000
0.8966 1.1379 0.0000
0.8966 1.1724 0.0000
0.8966 1.2069 0.0000
0.8966 1.2414 0.0000
0.8966 1.2759 0.0000
0.8966 1.3103 0.0000
0.8966 1.3448 0.0000
0.8966 1.3793 0.0000
0.8966 1.4138 0.0000
0.8966 1.4483 0.0000
0.8966 1.4828 0.0000
0.8966 1.5172 0.0000
0.8966 1.5517 0.0000
0.8966 1.5862 0.0000
0.8966 1.6207 0.0000
0.8966 1.6552 0.0000
0.8966 1.6897 0.0000
0.8966 1.7241 0.0000
0.8966 1.7586 0.0000
0.8966 1.7931 0.0000
0.8966 1.8276 0.0000
0.8966 1.8621 0.0000
0.8966 1.8966 0.0000
0.8966 1.9310 0.0000
0.8966 1.9655 0.0000
0.8966 2.0000 0.0000
0.9655 1.0000 0.0000
0.9655 1.0345 0.0000
0.9655 1.0690 0.0000
0.9655 1.1034 0.0000
0.9655 1.1379 0.0000
0.9655 1.1724 0.0000
0.9655 1.2069 0.0000
0.9655 1.2414 0.0000
0.9655 1.2759 0.0000
0.9655 1.3103 0.0000
0.9655 1.3448 0.0000
0.9655 1.3793 0.0000
0.9655 1.4138 0.0000
0.9655 1.4483 0.0000
0.9655 1.4828 0.0000
0.9655 1.5172 0.0000
0.9655 1.5517 0.0000
0.9655 1.5862 0.0000
0.9655 1.6207 0.0000
0.9655 1.6552 0.0000
0.9655 1.6897 0.0000
0.9655 1.7241 0.0000
0.9655 1.7586 0.0000
0.9655 1.7931 0.0000
0.9655 1.8276 0.0000
0.9655 1.8621 0.0000
0.9655 1.8966 0.0000
0.9655 1.9310 0.0000
0.9655 1.9655 0.0000
0.9655 2.0000 0.0000
1.0345 1.0000 0.0000
1.0345 1.0345 0.0000
1.0345 1.0690 0.0000
1.0345 1.1034 0.0000
1.0345 1.1379 0.0000
1.0345 1.1724 0.0000
1.0345 1.2069 0.0000
1.0345 1.2414 0.0000
1.0345 1.2759 0.0000
1.0345 1.3103 0.0000
1.0345 1.3448 0.0000
[...]
         <PointData>
            <DataArray Name="fValues" NumberOfComponents="3" format="ascii" type="Float64">
 1.20044e-37 -4.32472e-36        00000 
-1.25217e-37  4.68719e-36        00000 
 1.39498e-37 -5.73802e-36        00000 
-1.59439e-37  7.36442e-36        00000 
 1.80121e-37 -9.37320e-36        00000 
-1.96260e-37  1.14970e-35        00000 
 2.03456e-37 -1.34217e-35        00000 
-1.99238e-37  1.48372e-35        00000 
 1.83605e-37 -1.55010e-35        00000 
-1.58864e-37  1.52938e-35        00000 
 1.28850e-37 -1.42474e-35        00000 
-9.78146e-38  1.25325e-35        00000 
 6.93807e-38 -1.04109e-35        00000 
-4.58819e-38  8.16959e-36        00000 
 2.82033e-38 -6.05759e-36        00000 
-1.60429e-38  4.24565e-36        00000 
 8.38611e-39 -2.81393e-36        00000 
-3.98089e-39  1.76447e-36        00000 
 1.67788e-39 -1.04733e-36        00000 
-5.96761e-40  5.88836e-37        00000 
 1.52404e-40 -3.13797e-37        00000 
-2.19349e-42  1.58635e-37        00000 
-3.10011e-41 -7.61455e-38        00000 
 2.71795e-41  3.47403e-38        00000 
-1.68488e-41 -1.50829e-38        00000 
 8.84013e-42  6.24050e-39        00000 
-4.16107e-42 -2.46679e-39        00000 
 1.82493e-42  9.41621e-40        00000 
-8.19430e-43 -3.74341e-40        00000 
 5.46812e-43  2.32551e-40        00000 
-3.49138e-37  1.22315e-35        00000 
 3.65956e-37 -1.33544e-35        00000 
-4.12441e-37  1.66177e-35        00000 
 4.77477e-37 -2.16909e-35        00000 
-5.45137e-37  2.79912e-35        00000 
 5.98241e-37 -3.46900e-35        00000 
-6.22444e-37  4.07915e-35        00000 
 6.09750e-37 -4.52962e-35        00000 
-5.60327e-37  4.74146e-35        00000 
 4.81965e-37 -4.67580e-35        00000 
-3.87388e-37  4.34348e-35        00000 
 2.90484e-37 -3.80099e-35        00000 
-2.02817e-37  3.13417e-35        00000 
 1.31515e-37 -2.43578e-35        00000 
-7.89149e-38  1.78484e-35        00000 
 4.35760e-38 -1.23363e-35        00000 
-2.19444e-38  8.04647e-36        00000 
 9.91684e-39 -4.95563e-36        00000 
-3.89032e-39  2.88363e-36        00000 
 1.21526e-39 -1.58650e-36        00000 
-2.03542e-40  8.25955e-37        00000 
-8.76436e-41 -4.07285e-37        00000 
 1.18948e-40  1.90427e-37        00000 
-8.34895e-41 -8.45227e-38        00000 
 4.67356e-41  3.56641e-38        00000 
-2.29030e-41 -1.43287e-38        00000 
 1.02104e-41  5.49575e-39        00000 
-4.26615e-42 -2.03274e-39        00000 
 1.82586e-42  7.80343e-40        00000 
-1.18239e-42 -4.73172e-40        00000 
 1.90333e-36 -6.44723e-35        00000 
-2.00742e-36  7.10477e-35        00000 
 2.29547e-36 -9.02190e-35        00000 
-2.69947e-36  1.20193e-34        00000 
 3.12129e-36 -1.57682e-34        00000 
-3.45440e-36  1.97829e-34        00000 
 3.60941e-36 -2.34628e-34        00000 
-3.53683e-36  2.61927e-34        00000 
 3.23886e-36 -2.74804e-34        00000 
-2.76589e-36  2.70832e-34        00000 
 2.19877e-36 -2.50720e-34        00000 
-1.62416e-36  2.18045e-34        00000 
 1.11220e-36 -1.78190e-34        00000 
-7.03846e-37  1.36881e-34        00000 
 4.09728e-37 -9.88785e-35        00000 
-2.17801e-37  6.71986e-35        00000 
 1.04404e-37 -4.29887e-35        00000 
-4.40520e-38  2.59033e-35        00000 
 1.54679e-38 -1.47119e-35        00000 
-3.74358e-39  7.88226e-36        00000 
-1.39450e-40 -3.98754e-36        00000 
 9.24498e-40  1.90677e-36        00000 
-7.60551e-40 -8.62905e-37        00000 
 4.55688e-40  3.70088e-37        00000 
-2.32201e-40 -1.50665e-37        00000 
 1.06005e-40  5.83286e-38        00000 
-4.44915e-41 -2.15317e-38        00000 
 1.75770e-41  7.65031e-39        00000 
-7.10391e-42 -2.80779e-39        00000 
 4.43163e-42  1.64903e-39        00000 
-1.06292e-35  3.47787e-34        00000 
 1.12876e-35 -3.87144e-34        00000 
-1.31124e-35  5.02321e-34        00000 
 1.56788e-35 -6.83584e-34        00000 
-1.83690e-35  9.12120e-34        00000 
 2.05057e-35 -1.15885e-33        00000 
-2.15172e-35  1.38660e-33        00000 
 2.10880e-35 -1.55644e-33        00000 
-1.92390e-35  1.63680e-33        00000 
 1.63041e-35 -1.61207e-33        00000 
-1.28106e-35  1.48696e-33        00000 
 9.31294e-36 -1.28477e-33        00000 
-6.24687e-36  1.04015e-33        00000 
 3.85134e-36 -7.89357e-34        00000 
-2.16951e-36  5.61774e-34        00000 
 1.10581e-36 -3.75141e-34        00000 
-5.01026e-37  2.35202e-34        00000 
 1.94375e-37 -1.38551e-34        00000 
-5.82672e-38  7.67455e-35        00000 
 7.68878e-39 -4.00110e-35        00000 
 6.00588e-39  1.96542e-35        00000 
-6.75447e-39 -9.10801e-36        00000 
 4.48044e-39  3.98750e-36        00000 
-2.41069e-39 -1.65194e-36        00000 
 1.13928e-39  6.48793e-37        00000 
-4.89130e-40 -2.42074e-37        00000 
 1.94447e-40  8.60510e-38        00000 
-7.29851e-41 -2.94014e-38        00000 
 2.79799e-41  1.03343e-38        00000 
-1.68468e-41 -5.88307e-39        00000 
 5.90813e-35 -1.86226e-33        00000 
-6.32411e-35  2.09695e-33        00000 
 7.47916e-35 -2.78686e-33        00000 
-9.10914e-35  3.88116e-33        00000 
 1.08254e-34 -5.27398e-33        00000 
-1.21967e-34  6.79196e-33        00000 
 1.28559e-34 -8.20455e-33        00000 
-1.26001e-34  9.26420e-33        00000 
 1.14470e-34 -9.76724e-33        00000 
-9.61868e-35  9.61239e-33        00000 
 7.46039e-35 -8.83120e-33        00000 
-5.32807e-35  7.57608e-33        00000 
 3.49226e-35 -6.07103e-33        00000 
-2.09054e-35  4.54642e-33        00000 
 1.13416e-35 -3.18345e-33        00000 
-5.50237e-36  2.08554e-33        00000 
 2.32550e-36 -1.27921e-33        00000 
-8.04314e-37  7.35232e-34        00000 
 1.81796e-37 -3.96346e-34        00000 
 1.92841e-38  2.00616e-34        00000 
-5.52804e-38 -9.54651e-35        00000 
 4.27286e-38  4.27703e-35        00000 
-2.46661e-38 -1.80712e-35        00000 
 1.21600e-38  7.21465e-36        00000 
-5.36965e-39 -2.72749e-36        00000 
 2.17487e-39  9.78790e-37        00000 
-8.20083e-40 -3.34454e-37        00000 
 2.92697e-40  1.09737e-37        00000 
-1.06500e-40 -3.69004e-38        00000 
 6.18596e-41  2.03373e-38        00000 
-3.26258e-34  9.87532e-33        00000 
 3.52482e-34 -1.12674e-32        00000 
-4.25467e-34  1.53819e-32        00000 
 5.28893e-34 -2.19694e-32        00000 
-6.38376e-34  3.04486e-32        00000 
 7.26426e-34 -3.97921e-32        00000 
-7.69333e-34  4.85687e-32        00000 
 7.53983e-34 -5.51971e-32        00000 
-6.81741e-34  5.83548e-32        00000 
 5.67445e-34 -5.73806e-32        00000 
-4.33794e-34  5.24860e-32        00000 
 3.03701e-34 -4.46732e-32        00000 
-1.93929e-34  3.53967e-32        00000 
 1.12246e-34 -2.61228e-32        00000 
-5.82839e-35  1.79677e-32        00000 
 2.66394e-35 -1.15264e-32        00000 
-1.02872e-35  6.90211e-33        00000 
 2.98463e-36 -3.86166e-33        00000 
-3.01700e-37  2.02090e-33        00000 
-3.86393e-37 -9.90488e-34        00000 
 3.89539e-37  4.55333e-34        00000 
-2.47276e-37 -1.96667e-34        00000 
 1.28420e-37  7.99698e-35        00000 
-5.86294e-38 -3.06830e-35        00000 
 2.42888e-38  1.11367e-35        00000 
-9.29504e-39 -3.83477e-36        00000 
 3.32607e-39  1.25696e-36        00000 
-1.12899e-39 -3.95382e-37        00000 
 3.89910e-40  1.27023e-37        00000 
-2.18296e-40 -6.76810e-38        00000 
 1.78773e-33 -5.17783e-32        00000 
-1.95259e-33  5.99821e-32        00000 
 2.41277e-33 -8.43884e-32        00000 
-3.06829e-33  1.23908e-31        00000 
 3.76674e-33 -1.75456e-31        00000 
-4.33257e-33  2.32996e-31        00000 
 4.61189e-33 -2.87633e-31        00000 
-4.51907e-33  3.29217e-31        00000 
 4.06430e-33 -3.49104e-31        00000 
-3.34710e-33  3.42943e-31        00000 
 2.51745e-33 -3.12161e-31        00000 
-1.72326e-33  2.63384e-31        00000 
 1.06811e-33 -2.06101e-31        00000 
-5.94594e-34  1.49665e-31        00000 
 2.93079e-34 -1.00933e-31        00000 
-1.24336e-34  6.32676e-32        00000 
 4.23395e-35 -3.68970e-32        00000 
-8.82086e-36  2.00421e-32        00000 
-1.70544e-36 -1.01531e-32        00000 
 3.30747e-36  4.80408e-33        00000 
-2.41091e-36 -2.12688e-33        00000 
 1.33789e-36  8.82855e-34        00000 
-6.35728e-37 -3.44422e-34        00000 
 2.70397e-37  1.26627e-34        00000 
-1.05327e-37 -4.40065e-35        00000 
 3.81111e-38  1.45045e-35        00000 
-1.29426e-38 -4.55121e-36        00000 
 4.17788e-39  1.37028e-36        00000 
-1.36951e-39 -4.20115e-37        00000 
 7.38458e-40  2.16135e-37        00000 
-9.70588e-33  2.67914e-31        00000 
 1.07385e-32 -3.15875e-31        00000 
-1.36319e-32  4.59709e-31        00000 
 1.77811e-32 -6.95800e-31        00000 
-2.22375e-32  1.00865e-30        00000 
 2.58787e-32 -1.36319e-30        00000 
-2.76992e-32  1.70408e-30        00000 
 2.71337e-32 -1.96583e-30        00000 
-2.42560e-32  2.09155e-30        00000 
 1.97374e-32 -2.05238e-30        00000 
-1.45741e-32  1.85798e-30        00000 
 9.72370e-33 -1.55248e-30        00000 
-5.82358e-33  1.19806e-30        00000 
 3.09672e-33 -8.54528e-31        00000 
-1.43253e-33  5.63826e-31        00000 
 5.51100e-34 -3.44484e-31        00000 
-1.53993e-34  1.95117e-31        00000 
 9.90763e-36 -1.02586e-31        00000 
 2.46506e-35  5.01437e-32        00000 
-2.25871e-35 -2.28273e-32        00000 
 1.36910e-35  9.69891e-33        00000 
-6.83301e-36 -3.85573e-33        00000 
 2.99804e-36  1.43834e-33        00000 
-1.19197e-36 -5.05137e-34        00000 
 4.37059e-37  1.67618e-34        00000 
-1.49556e-37 -5.27560e-35        00000 
 4.81945e-38  1.58164e-35        00000 
-1.47927e-38 -4.55170e-36        00000 
 4.60260e-39  1.33064e-36        00000 
-2.38859e-39 -6.60311e-37        00000 
 5.21136e-32 -1.36481e-30        00000 
-5.85514e-32  1.64247e-30        00000 
 7.66798e-32 -2.48338e-30        00000 
-1.02897e-31  3.88661e-30        00000 
 1.31341e-31 -5.78141e-30        00000 
-1.54818e-31  7.96706e-30        00000 
 1.66710e-31 -1.00993e-29        00000 
-1.63240e-31  1.17531e-29        00000 
 1.44929e-31 -1.25513e-29        00000 
-1.16334e-31  1.23008e-29        00000 
 8.41135e-32 -1.10675e-29        00000 
-5.44866e-32  9.14734e-30        00000 
 3.13496e-32 -6.95013e-30        00000 
-1.57794e-32  4.85887e-30        00000 
 6.73731e-33 -3.12877e-30        00000 
-2.25613e-33  1.85790e-30        00000 
 4.24087e-34 -1.01875e-30        00000 
 1.32348e-34  5.16632e-31        00000 
-1.98938e-34 -2.42750e-31        00000 
 1.36735e-34  1.05911e-31        00000 
-7.26165e-35 -4.30180e-32        00000 
 3.30709e-35  1.63159e-32        00000 
-1.34657e-35 -5.79913e-33        00000 
 5.01318e-36  1.93920e-33        00000 
-1.73107e-36 -6.12710e-34        00000 
 5.60132e-37  1.83741e-34        00000 
-1.71237e-37 -5.25434e-35        00000 
 4.99688e-38  1.44378e-35        00000 
-1.47592e-38 -4.02269e-36        00000 
 7.36786e-39  1.92413e-36        00000 
-2.76075e-31  6.82536e-30        00000 
 3.15968e-31 -8.41329e-30        00000 
-4.29027e-31  1.32814e-29        00000 
 5.94332e-31 -2.15694e-29        00000 
-7.75961e-31  3.30153e-29        00000 
 9.27727e-31 -4.64959e-29        00000 
-1.00568e-30  5.98701e-29        00000 
 9.84247e-31 -7.03656e-29        00000 
-8.67031e-31  7.54582e-29        00000 
 6.85185e-31 -7.38453e-29        00000 
-4.83553e-31  6.59812e-29        00000 
 3.02637e-31 -5.38658e-29        00000 
-1.66027e-31  4.02164e-29        00000 
 7.80999e-32 -2.74894e-29        00000 
-2.99731e-32  1.72244e-29        00000 
 8.01485e-33 -9.90720e-30        00000 
-1.57411e-34  5.23945e-30        00000 
-1.57179e-33 -2.55244e-30        00000 
 1.31904e-33  1.14794e-30        00000 
-7.60255e-34 -4.77893e-31        00000 
 3.62409e-34  1.84749e-31        00000 
-1.51775e-34 -6.65765e-32        00000 
 5.75058e-35  2.24614e-32        00000 
-2.00631e-35 -7.12865e-33        00000 
 6.52440e-36  2.13910e-33        00000 
-1.99582e-36 -6.10007e-34        00000 
 5.78666e-37  1.66172e-34        00000 
-1.60530e-37 -4.35676e-35        00000 
 4.50260e-38  1.15691e-35        00000 
-2.16145e-38 -5.33229e-36        00000 
 1.43862e-30 -3.33885e-29        00000 
-1.68383e-30  4.23327e-29        00000 
 2.38471e-30 -7.01715e-29        00000 
-3.42410e-30  1.18743e-28        00000 
 4.58462e-30 -1.87654e-28        00000 
-5.56905e-30  2.70831e-28        00000 
 6.08264e-30 -3.54985e-28        00000 
-5.94939e-30  4.21920e-28        00000 
 5.19395e-30 -4.54598e-28        00000 
-4.03129e-30  4.44136e-28        00000 
 2.76576e-30 -3.93699e-28        00000 
-1.66196e-30  3.16934e-28        00000 
 8.60546e-31 -2.31969e-28        00000 
-3.71249e-31  1.54572e-28        00000 
 1.22106e-31 -9.39138e-29        00000 
-2.00442e-32  5.21156e-29        00000 
-9.71367e-33 -2.64655e-29        00000 
 1.20675e-32  1.23266e-29        00000 
-7.79856e-33 -5.28004e-30        00000 
 3.93753e-33  2.08691e-30        00000 
-1.70561e-33 -7.64187e-31        00000 
 6.59596e-34  2.60492e-31        00000 
-2.32860e-34 -8.31033e-32        00000 
 7.61527e-35  2.49559e-32        00000 
-2.33178e-35 -7.09592e-33        00000 
 6.74151e-36  1.92140e-33        00000 
-1.85350e-36 -4.98196e-34        00000 
 4.88874e-37  1.24610e-34        00000 
-1.30285e-37 -3.15521e-35        00000 
 6.01397e-38  1.40149e-35        00000 
-7.34485e-30  1.59056e-28        00000 
 8.83610e-30 -2.08479e-28        00000 
-1.31466e-29  3.65250e-28        00000 
 1.96583e-29 -6.47127e-28        00000 
-2.70792e-29  1.06021e-27        00000 
 3.34923e-29 -1.57351e-27        00000 
-3.68981e-29  2.10489e-27        00000 
 3.60653e-29 -2.53419e-27        00000 
-3.11598e-29  2.74526e-27        00000 
 2.36810e-29 -2.67681e-27        00000 
-1.57139e-29  2.35120e-27        00000 
 8.99114e-30 -1.86255e-27        00000 
-4.33136e-30  1.33260e-27        00000 
 1.66222e-30 -8.62576e-28        00000 
-4.21689e-31  5.06065e-28        00000 
-1.52658e-32 -2.69662e-28        00000 
 1.00864e-31  1.30811e-28        00000 
-7.77015e-32 -5.79270e-29        00000 
 4.22932e-32  2.34967e-29        00000 
-1.90918e-32 -8.76742e-30        00000 
 7.56365e-33  3.02504e-30        00000 
-2.70686e-33 -9.70966e-31        00000 
 8.90899e-34  2.91848e-31        00000 
-2.73077e-34 -8.27074e-32        00000 
 7.87107e-35  2.22461e-32        00000 
-2.15038e-35 -5.71469e-33        00000 
 5.60662e-36  1.41012e-33        00000 
-1.40653e-36 -3.36613e-34        00000 
 3.56472e-37  8.13567e-35        00000 
-1.58274e-37 -3.48456e-35        00000 
 3.65471e-29 -7.33779e-28        00000 
-4.54861e-29  1.00032e-27        00000 
 7.17176e-29 -1.86616e-27        00000 
-1.12318e-28  3.48172e-27        00000 
 1.59811e-28 -5.94372e-27        00000 
-2.01814e-28  9.11058e-27        00000 
 2.24588e-28 -1.24789e-26        00000 
-2.19359e-28  1.52504e-26        00000 
 1.87230e-28 -1.66240e-26        00000 
-1.38793e-28  1.61716e-26        00000 
 8.84823e-29 -1.40538e-26        00000 
-4.76619e-29  1.09273e-26        00000 
 2.09050e-29 -7.61591e-27        00000 
-6.74520e-30  4.76809e-27        00000 
 9.15394e-31 -2.68767e-27        00000 
 6.98103e-31  1.36740e-27        00000 
-7.40761e-31 -6.29695e-28        00000 
 4.47169e-31  2.63375e-28        00000 
-2.12582e-31 -1.00495e-28        00000 
 8.66882e-32  3.51784e-29        00000 
-3.15194e-32 -1.13738e-29        00000 
 1.04497e-32  3.42251e-30        00000 
-3.20659e-33 -9.66175e-31        00000 
 9.21003e-34  2.57888e-31        00000 
-2.49850e-34 -6.55574e-32        00000 
 6.45063e-35  1.59755e-32        00000 
-1.59554e-35 -3.75347e-33        00000 
 3.81006e-36  8.55995e-34        00000 
-9.19506e-37 -1.97788e-34        00000 
 3.92967e-37  8.17696e-35        00000 
-1.75984e-28  3.25555e-27        00000 
 2.28523e-28 -4.64918e-27        00000 
-3.85890e-28  9.31394e-27        00000 
 6.37395e-28 -1.84252e-26        00000 
-9.41614e-28  3.29845e-26        00000 
 1.21851e-27 -5.25044e-26        00000 
-1.37239e-27  7.39456e-26        00000 
 1.33946e-27 -9.19735e-26        00000 
-1.12692e-27  1.00993e-25        00000 
 8.10763e-28 -9.79676e-26        00000 
-4.92113e-28  8.40716e-26        00000 
 2.45506e-28 -6.39548e-26        00000 
-9.46060e-29  4.32337e-26        00000 
 2.24917e-29 -2.60422e-26        00000 
 2.44215e-30  1.40174e-26        00000 
-6.56090e-30 -6.76238e-27        00000 
 4.62251e-30  2.93411e-27        00000 
-2.35015e-30 -1.15009e-27        00000 
 9.92671e-31  4.09679e-28        00000 
-3.67712e-31 -1.33628e-28        00000 
 1.22931e-31  4.02662e-29        00000 
-3.77680e-32 -1.13159e-29        00000 
 1.08032e-32  2.99350e-30        00000 
-2.90699e-33 -7.51863e-31        00000 
 7.42290e-34  1.80654e-31        00000 
-1.81198e-34 -4.17951e-32        00000 
 4.25560e-35  9.36218e-33        00000 
-9.68500e-36 -2.04311e-33        00000 
 2.22960e-36  4.52259e-34        00000 
-9.18175e-37 -1.80737e-34        00000 
 8.12108e-28 -1.37702e-26        00000 
-1.11259e-27  2.07751e-26        00000 
 2.03837e-27 -4.51170e-26        00000 
-3.58253e-27  9.54180e-26        00000 
 5.53247e-27 -1.80582e-25        00000 
-7.37217e-27  3.00644e-25        00000 
 8.42537e-27 -4.37749e-25        00000 
-8.21772e-27  5.56059e-25        00000 
 6.79505e-27 -6.15910e-25        00000 
-4.71282e-27  5.95381e-25        00000 
 2.68931e-27 -5.03270e-25        00000 
-1.21175e-27  3.73032e-25        00000 
 3.83204e-28 -2.43264e-25        00000 
-3.85966e-29  1.40063e-25        00000 
-5.02675e-29 -7.14489e-26        00000 
 4.61812e-29  3.24076e-26        00000 
-2.57243e-29 -1.31273e-26        00000 
 1.13515e-29  4.77766e-27        00000 
-4.29871e-30 -1.57541e-27        00000 
 1.45107e-30  4.75564e-28        00000 
-4.46398e-31 -1.32929e-28        00000 
 1.27070e-31  3.47962e-29        00000 
-3.38723e-32 -8.61802e-30        00000 
 8.54012e-33  2.03752e-30        00000 
-2.05391e-33 -4.63286e-31        00000 
 4.74571e-34  1.01934e-31        00000 
-1.05987e-34 -2.18135e-32        00000 
 2.30292e-35  4.56538e-33        00000 
-5.06843e-36 -9.70607e-34        00000 
 2.01435e-36  3.75641e-34        00000 
-3.54322e-27  5.49081e-26        00000 
 5.19662e-27 -8.84194e-26        00000 
-1.04961e-26  2.10314e-25        00000 
 1.98576e-26 -4.80141e-25        00000 
-3.23555e-26  9.70562e-25        00000 
 4.46920e-26 -1.70600e-24        00000 
-5.20145e-26  2.58687e-24        00000 
 5.07067e-26 -3.37146e-24        00000 
-4.10491e-26  3.77366e-24        00000 
 2.71914e-26 -3.63189e-24        00000 
-1.43180e-26  3.01387e-24        00000 
 5.58379e-27 -2.16505e-24        00000 
-1.22072e-27  1.35265e-24        00000 
-2.53434e-28 -7.38373e-25        00000 
 4.36170e-28  3.53610e-25        00000 
-2.77593e-28 -1.49196e-25        00000 
 1.29549e-28  5.57839e-26        00000 
-5.03694e-29 -1.86493e-26        00000 
 1.71943e-29  5.64276e-27        00000 
-5.29747e-30 -1.56705e-27        00000 
 1.49937e-30  4.05051e-28        00000 
-3.95290e-31 -9.86793e-29        00000 
 9.82064e-32  2.28989e-29        00000 
-2.32190e-32 -5.10511e-30        00000 
 5.26711e-33  1.10102e-30        00000 
-1.15411e-33 -2.30986e-31        00000 
 2.45627e-34  4.73500e-32        00000 
-5.10749e-35 -9.53015e-33        00000 
 1.07753e-35  1.95167e-33        00000 
-4.14092e-36 -7.33086e-34        00000 
 1.43416e-26 -2.03128e-25        00000 
-2.29455e-26  3.54202e-25        00000 
 5.21185e-26 -9.33329e-25        00000 
-1.07828e-25  2.32439e-24        00000 
 1.87799e-25 -5.08355e-24        00000 
-2.71411e-25  9.55472e-24        00000 
 3.23314e-25 -1.52406e-23        00000 
-3.15130e-25  2.05094e-23        00000 
 2.48430e-25 -2.32547e-23        00000 
-1.55066e-25  2.22537e-23        00000 
 7.31525e-26 -1.80457e-23        00000 
-2.26781e-26  1.24745e-23        00000 
 1.26413e-27 -7.40114e-24        00000 
 3.70362e-27  3.79103e-24        00000 
-2.93228e-27 -1.68387e-24        00000 
 1.47440e-27  6.51798e-25        00000 
-5.91711e-28 -2.21842e-25        00000 