<?xml version="1.0" encoding="utf-8"?>
<VTKFile byte_order="LittleEndian" type="UnstructuredGrid" version="0.1">
   <UnstructuredGrid>
      <Piece NumberOfCells="3364" NumberOfPoints="1741">
         <Points>
            <DataArray Name="Points" NumberOfComponents="3" format="ascii" type="Float32">
0.0000 1.0000 0.0000
0.0000 1.0345 0.0000
0.0000 1.0690 0.0000
0.0000 1.1034 0.0000
0.0000 1.1379 0.0000
0.0000 1.1724 0.0000
0.0000 1.2069 0.0000
0.0000 1.2414 0.0000
0.0000 1.2759 0.0000
0.0000 1.3103 0.0000
0.0000 1.3448 0.0000
0.0000 1.3793 0.0000
0.0000 1.4138 0.0000
0.0000 1.4483 0.0000
0.0000 1.4828 0.0000
0.0000 1.5172 0.0000
0.0000 1.5517 0.0000
0.0000 1.5862 0.0000
0.0000 1.6207 0.0000
0.0000 1.6552 0.0000
0.0000 1.6897 0.0000
0.0000 1.7241 0.0000
0.0000 1.7586 0.0000
0.0000 1.7931 0.0000
0.0000 1.8276 0.0000
0.0000 1.8621 0.0000
0.0000 1.8966 0.0000
0.0000 1.9310 0.0000
0.0000 1.9655 0.0000
0.0000 2.0000 0.0000
0.0690 1.0000 0.0000
0.0690 1.0345 0.0000
0.0690 1.0690 0.0000
0.0690 1.1034 0.0000
0.0690 1.1379 0.0000
0.0690 1.1724 0.0000
0.0690 1.2069 0.0000
0.0690 1.2414 0.0000
0.0690 1.2759 0.0000
0.0690 1.3103 0.0000
0.0690 1.3448 0.0000
0.0690 1.3793 0.0000
0.0690 1.4138 0.0000
0.0690 1.4483 0.0000
0.0690 1.4828 0.0000
0.0690 1.5172 0.0000
0.0690 1.5517 0.0000
0.0690 1.5862 0.0000
0.0690 1.6207 0.0000
0.0690 1.6552 0.0000
0.0690 1.6897 0.0000
0.0690 1.7241 0.0000
0.0690 1.7586 0.0000
0.0690 1.7931 0.0000
0.0690 1.8276 0.0000
0.0690 1.8621 0.0000
0.0690 1.8966 0.0000
0.0690 1.9310 0.0000
0.0690 1.9655 0.0000
0.0690 2.0000 0.0000
0.1379 1.0000 0.0000
0.1379 1.0345 0.0000
0.1379 1.0690 0.0000
0.1379 1.1034 0.0000
0.1379 1.1379 0.0000
0.1379 1.1724 0.0000
0.1379 1.2069 0.0000
0.1379 1.2414 0.0000
0.1379 1.2759 0.0000
0.1379 1.3103 0.0000
0.1379 1.3448 0.0000
0.1379 1.3793 0.0000
0.1379 1.4138 0.0000
0.1379 1.4483 0.0000
0.1379 1.4828 0.0000
0.1379 1.5172 0.0000
0.1379 1.5517 0.0000
0.1379 1.5862 0.0000
0.1379 1.6207 0.0000
0.1379 1.6552 0.0000
0.1379 1.6897 0.0000
0.1379 1.7241 0.0000
0.1379 1.7586 0.0000
0.1379 1.7931 0.0000
0.1379 1.8276 0.0000
0.1379 1.8621 0.0000
0.1379 1.8966 0.0000
0.1379 1.9310 0.0000
0.1379 1.9655 0.0000
0.1379 2.0000 0.0000
0.2069 1.0000 0.0000
0.2069 1.0345 0.0000
0.2069 1.0690 0.0000
0.2069 1.1034 0.0000
0.2069 1.1379 0.0000
0.2069 1.1724 0.0000
0.2069 1.2069 0.0000
0.2069 1.2414 0.0000
0.2069 1.2759 0.0000
0.2069 1.3103 0.0000
0.2069 1.3448 0.0000
0.2069 1.3793 0.0000
0.2069 1.4138 0.0000
0.2069 1.4483 0.0000
0.2069 1.4828 0.0000
0.2069 1.5172 0.0000
0.2069 1.5517 0.0000
0.2069 1.5862 0.0000
0.2069 1.6207 0.0000
0.2069 1.6552 0.0000
0.2069 1.6897 0.0000
0.2069 1.7241 0.0000
0.2069 1.7586 0.0000
0.2069 1.7931 0.0000
0.2069 1.8276 0.0000
0.2069 1.8621 0.0000
0.2069 1.8966 0.0000
0.2069 1.9310 0.0000
0.2069 1.9655 0.0000
0.2069 2.0000 0.0000
0.2759 1.0000 0.0000
0.2759 1.0345 0.0000
0.2759 1.0690 0.0000
0.2759 1.1034 0.0000
0.2759 1.1379 0.0000
0.2759 1.1724 0.0000
0.2759 1.2069 0.0000
0.2759 1.2414 0.0000
0.2759 1.2759 0.0000
0.2759 1.3103 0.0000
0.2759 1.3448 0.0000
0.2759 1.3793 0.0000
0.2759 1.4138 0.0000
0.2759 1.4483 0.0000
0.2759 1.4828 0.0000
0.2759 1.5172 0.0000
0.2759 1.5517 0.0000
0.2759 1.5862 0.0000
0.2759 1.6207 0.0000
0.2759 1.6552 0.0000
0.2759 1.6897 0.0000
0.2759 1.7241 0.0000
0.2759 1.7586 0.0000
0.2759 1.7931 0.0000
0.2759 1.8276 0.0000
0.2759 1.8621 0.0000
0.2759 1.8966 0.0000
0.2759 1.9310 0.0000
0.2759 1.9655 0.0000
0.2759 2.0000 0.0000
0.3448 1.0000 0.0000
0.3448 1.0345 0.0000
0.3448 1.0690 0.0000
0.3448 1.1034 0.0000
0.3448 1.1379 0.0000
0.3448 1.1724 0.0000
0.3448 1.2069 0.0000
0.3448 1.2414 0.0000
0.3448 1.2759 0.0000
0.3448 1.3103 0.0000
0.3448 1.3448 0.0000
0.3448 1.3793 0.0000
0.3448 1.4138 0.0000
0.3448 1.4483 0.0000
0.3448 1.4828 0.0000
0.3448 1.5172 0.0000
0.3448 1.5517 0.0000
0.3448 1.5862 0.0000
0.3448 1.6207 0.0000
0.3448 1.6552 0.0000
0.3448 1.6897 0.0000
0.3448 1.7241 0.0000
0.3448 1.7586 0.0000
0.3448 1.7931 0.0000
0.3448 1.8276 0.0000
0.3448 1.8621 0.0000
0.3448 1.8966 0.0000
0.3448 1.9310 0.0000
0.3448 1.9655 0.0000
0.3448 2.0000 0.0000
0.4138 1.0000 0.0000
0.4138 1.0345 0.0000
0.4138 1.0690 0.0000
0.4138 1.1034 0.0000
0.4138 1.1379 0.0000
0.4138 1.1724 0.0000
0.4138 1.2069 0.0000
0.4138 1.2414 0.0000
0.4138 1.2759 0.0000
0.4138 1.3103 0.0000
0.4138 1.3448 0.0000
0.4138 1.3793 0.0000
0.4138 1.4138 0.0000
0.4138 1.4483 0.0000
0.4138 1.4828 0.0000
0.4138 1.5172 0.0000
0.4138 1.5517 0.0000
0.4138 1.5862 0.0000
0.4138 1.6207 0.0000
0.4138 1.6552 0.0000
0.4138 1.6897 0.0000
0.4138 1.7241 0.0000
0.4138 1.7586 0.0000
0.4138 1.7931 0.0000
0.4138 1.8276 0.0000
0.4138 1.8621 0.0000
0.4138 1.8966 0.0000
0.4138 1.9310 0.0000
0.4138 1.9655 0.0000
0.4138 2.0000 0.0000
0.4828 1.0000 0.0000
0.4828 1.0345 0.0000
0.4828 1.0690 0.0000
0.4828 1.1034 0.0000
0.4828 1.1379 0.0000
0.4828 1.1724 0.0000
0.4828 1.2069 0.0000
0.4828 1.2414 0.0000
0.4828 1.2759 0.0000
0.4828 1.3103 0.0000
0.4828 1.3448 0.0000
0.4828 1.3793 0.0000
0.4828 1.4138 0.0000
0.4828 1.4483 0.0000
0.4828 1.4828 0.0000
0.4828 1.5172 0.0000
0.4828 1.5517 0.0000
0.4828 1.5862 0.0000
0.4828 1.6207 0.0000
0.4828 1.6552 0.0000
0.4828 1.6897 0.0000
0.4828 1.7241 0.0000
0.4828 1.7586 0.0000
0.4828 1.7931 0.0000
0.4828 1.8276 0.0000
0.4828 1.8621 0.0000
0.4828 1.8966 0.0000
0.4828 1.9310 0.0000
0.4828 1.9655 0.0000
0.4828 2.0000 0.0000
0.5517 1.0000 0.0000
0.5517 1.0345 0.0000
0.5517 1.0690 0.0000
0.5517 1.1034 0.0000
0.5517 1.1379 0.0000
0.5517 1.1724 0.0000
0.5517 1.2069 0.0000
0.5517 1.2414 0.0000
0.5517 1.2759 0.0000
0.5517 1.3103 0.0000
0.5517 1.3448 0.0000
0.5517 1.3793 0.0000
0.5517 1.4138 0.0000
0.5517 1.4483 0.0000
0.5517 1.4828 0.0000
0.5517 1.5172 0.0000
0.5517 1.5517 0.0000
0.5517 1.5862 0.0000
0.5517 1.6207 0.0000
0.5517 1.6552 0.0000
0.5517 1.6897 0.0000
0.5517 1.7241 0.0000
0.5517 1.7586 0.0000
0.5517 1.7931 0.0000
0.5517 1.8276 0.0000
0.5517 1.8621 0.0000
0.5517 1.8966 0.0000
0.5517 1.9310 0.0000
0.5517 1.9655 0.0000
0.5517 2.0000 0.0000
0.6207 1.0000 0.0000
0.6207 1.0345 0.0000
0.6207 1.0690 0.0000
0.6207 1.1034 0.0000
0.6207 1.1379 0.0000
0.6207 1.1724 0.0000
0.6207 1.2069 0.0000
0.6207 1.2414 0.0000
0.6207 1.2759 0.0000
0.6207 1.3103 0.0000
0.6207 1.3448 0.0000
0.6207 1.3793 0.0000
0.6207 1.4138 0.0000
0.6207 1.4483 0.0000
0.6207 1.4828 0.0000
0.6207 1.5172 0.0000
0.6207 1.5517 0.0000
0.6207 1.5862 0.0000
0.6207 1.6207 0.0000
0.6207 1.6552 0.0000
0.6207 1.6897 0.0000
0.6207 1.7241 0.0000
0.6207 1.7586 0.0000
0.6207 1.7931 0.0000
0.6207 1.8276 0.0000
0.6207 1.8621 0.0000
0.6207 1.8966 0.0000
0.6207 1.9310 0.0000
0.6207 1.9655 0.0000
0.6207 2.0000 0.0000
0.6897 1.0000 0.0000
0.6897 1.0345 0.0000
0.6897 1.0690 0.0000
0.6897 1.1034 0.0000
0.6897 1.1379 0.0000
0.6897 1.1724 0.0000
0.6897 1.2069 0.0000
0.6897 1.2414 0.0000
0.6897 1.2759 0.0000
0.6897 1.3103 0.0000
0.6897 1.3448 0.0000
0.6897 1.3793 0.0000
0.6897 1.4138 0.0000
0.6897 1.4483 0.0000
0.6897 1.4828 0.0000
0.6897 1.5172 0.0000
0.6897 1.5517 0.0000
0.6897 1.5862 0.0000
0.6897 1.6207 0.0000
0.6897 1.6552 0.0000
0.6897 1.6897 0.0000
0.6897 1.7241 0.0000
0.6897 1.7586 0.0000
0.6897 1.7931 0.0000
0.6897 1.8276 0.0000
0.6897 1.8621 0.0000
0.6897 1.8966 0.0000
0.6897 1.9310 0.0000
0.6897 1.9655 0.0000
0.6897 2.0000 0.0000
0.7586 1.0000 0.0000
0.7586 1.0345 0.0000
0.7586 1.0690 0.0000
0.7586 1.1034 0.0000
0.7586 1.1379 0.0000
0.7586 1.1724 0.0000
0.7586 1.2069 0.0000
0.7586 1.2414 0.0000
0.7586 1.2759 0.0000
0.7586 1.3103 0.0000
0.7586 1.3448 0.0000
0.7586 1.3793 0.0000
0.7586 1.4138 0.0000
0.7586 1.4483 0.0000
0.7586 1.4828 0.0000
0.7586 1.5172 0.0000
0.7586 1.5517 0.0000
0.7586 1.5862 0.0000
0.7586 1.6207 0.0000
0.7586 1.6552 0.0000
0.7586 1.6897 0.0000
0.7586 1.7241 0.0000
0.7586 1.7586 0.0000
0.7586 1.7931 0.0000
0.7586 1.8276 0.0000
0.7586 1.8621 0.0000
0.7586 1.8966 0.0000
0.7586 1.9310 0.0000
0.7586 1.9655 0.0000
0.7586 2.0000 0.0000
0.8276 1.0000 0.0000
0.8276 1.0345 0.0000
0.8276 1.0690 0.0000
0.8276 1.1034 0.0000
0.8276 1.1379 0.0000
0.8276 1.1724 0.0000
0.8276 1.2069 0.0000
0.8276 1.2414 0.0000
0.8276 1.2759 0.0000
0.8276 1.3103 0.0000
0.8276 1.3448 0.0000
0.8276 1.3793 0.0000
0.8276 1.4138 0.0000
0.8276 1.4483 0.0000
0.8276 1.4828 0.0000
0.8276 1.5172 0.0000
0.8276 1.5517 0.0000
0.8276 1.5862 0.0000
0.8276 1.6207 0.0000
0.8276 1.6552 0.0000
0.8276 1.6897 0.0000
0.8276 1.7241 0.0000
0.8276 1.7586 0.0000
0.8276 1.7931 0.0000
0.8276 1.8276 0.0000
0.8276 1.8621 0.0000
0.8276 1.8966 0.0000
0.8276 1.9310 0.0000
0.8276 1.9655 0.0000
0.8276 2.0000 0.0000
0.8966 1.0000 0.0000
0.8966 1.0345 0.0000
0.8966 1.0690 0.0000
0.8966 1.1034 0.0000
0.8966 1.1379 0.0000
0.8966 1.1724 0.0000
0.8966 1.2069 0.0000
0.8966 1.2414 0.0000
0.8966 1.2759 0.0000
0.8966 1.3103 0.0000
0.8966 1.3448 0.0000
0.8966 1.3793 0.0000
0.8966 1.4138 0.0000
0.8966 1.4483 0.0000
0.8966 1.4828 0.0000
0.8966 1.5172 0.0000
0.8966 1.5517 0.0000
0.8966 1.5862 0.0000
0.8966 1.6207 0.0000
0.8966 1.6552 0.0000
0.8966 1.6897 0.0000
0.8966 1.7241 0.0000
0.8966 1.7586 0.0000
0.8966 1.7931 0.0000
0.8966 1.8276 0.0000
0.8966 1.8621 0.0000
0.8966 1.8966 0.0000
0.8966 1.9310 0.0000
0.8966 1.9655 0.0000
0.8966 2.0000 0.0000
0.9655 1.0000 0.0000
0.9655 1.0345 0.0000
0.9655 1.0690 0.0000
0.9655 1.1034 0.0000
0.9655 1.1379 0.0000
0.9655 1.1724 0.0000
0.9655 1.2069 0.0000
0.9655 1.2414 0.0000
0.9655 1.2759 0.0000
0.9655 1.3103 0.0000
0.9655 1.3448 0.0000
0.9655 1.3793 0.0000
0.9655 1.4138 0.0000
0.9655 1.4483 0.0000
0.9655 1.4828 0.0000
0.9655 1.5172 0.0000
0.9655 1.5517 0.0000
0.9655 1.5862 0.0000
0.9655 1.6207 0.0000
0.9655 1.6552 0.0000
0.9655 1.6897 0.0000
0.9655 1.7241 0.0000
0.9655 1.7586 0.0000
0.9655 1.7931 0.0000
0.9655 1.8276 0.0000
0.9655 1.8621 0.0000
0.9655 1.8966 0.0000
0.9655 1.9310 0.0000
0.9655 1.9655 0.0000
0.9655 2.0000 0.0000
1.0345 1.0000 0.0000
1.0345 1.0345 0.0000
1.0345 1.0690 0.0000
1.0345 1.1034 0.0000
1.0345 1.1379 0.0000
1.0345 1.1724 0.0000
1.0345 1.2069 0.0000
1.0345 1.2414 0.0000
1.0345 1.2759 0.0000
1.0345 1.3103 0.0000
1.0345 1.3448 0.0000
[...]
         <PointData>
            <DataArray Name="fValues" NumberOfComponents="3" format="ascii" type="Float64">
-2.79628e-43 -8.67581e-40        00000 
 1.03555e-42  1.06421e-39        00000 
-3.74742e-42 -1.70027e-39        00000 
 9.78409e-42  2.90990e-39        00000 
-2.15024e-41 -4.89948e-39        00000 
 4.22097e-41  7.91432e-39        00000 
-7.58554e-41 -1.21820e-38        00000 
 1.26307e-40  1.78325e-38        00000 
-1.96195e-40 -2.48077e-38        00000 
 2.85514e-40  3.27836e-38        00000 
-3.90399e-40 -4.11402e-38        00000 
 5.02615e-40  4.90078e-38        00000 
-6.10221e-40 -5.54025e-38        00000 
 6.99496e-40  5.94264e-38        00000 
-7.57788e-40 -6.04798e-38        00000 
 7.76459e-40  5.84131e-38        00000 
-7.52984e-40 -5.35628e-38        00000 
 6.91518e-40  4.66591e-38        00000 
-6.01724e-40 -3.86411e-38        00000 
 4.96337e-40  3.04460e-38        00000 
-3.88279e-40 -2.28387e-38        00000 
 2.88203e-40  1.63195e-38        00000 
-2.03073e-40 -1.11121e-38        00000 
 1.35908e-40  7.21234e-39        00000 
-8.64672e-41 -4.46452e-39        00000 
 5.23976e-41  2.63994e-39        00000 
-3.04373e-41 -1.50028e-39        00000 
 1.73641e-41  8.39207e-40        00000 
-1.06027e-41 -5.03865e-40        00000 
 8.53200e-42  4.02252e-40        00000 
-4.56970e-43  2.23302e-39        00000 
-1.37882e-42 -2.77584e-39        00000 
 8.16994e-42  4.54642e-39        00000 
-2.39256e-41 -7.96103e-39        00000 
 5.57063e-41  1.36703e-38        00000 
-1.13701e-40 -2.24667e-38        00000 
 2.10470e-40  3.51153e-38        00000 
-3.58818e-40 -5.21035e-38        00000 
 5.68145e-40  7.33433e-38        00000 
-8.39807e-40 -9.79018e-38        00000 
 1.16285e-39  1.23876e-37        00000 
-1.51195e-39 -1.48517e-37        00000 
 1.84925e-39  1.68657e-37        00000 
-2.13053e-39 -1.81370e-37        00000 
 2.31462e-39  1.84690e-37        00000 
-2.37331e-39 -1.78128e-37        00000 
 2.29841e-39  1.62795e-37        00000 
-2.10368e-39 -1.41088e-37        00000 
 1.82078e-39  1.16052e-37        00000 
-1.49104e-39 -9.06783e-38        00000 
 1.15585e-39  6.73553e-38        00000 
-8.48618e-40 -4.75878e-38        00000 
 5.90406e-40  3.19909e-38        00000 
-3.89475e-40 -2.04680e-38        00000 
 2.43821e-40  1.24694e-38        00000 
-1.45118e-40 -7.24424e-39        00000 
 8.26061e-41  4.03651e-39        00000 
-4.60306e-41 -2.20750e-39        00000 
 2.73901e-41  1.29325e-39        00000 
-2.17312e-41 -1.01865e-39        00000 
 9.12987e-42 -1.05033e-38        00000 
-1.34053e-42  1.32756e-38        00000 
-2.88938e-41 -2.24139e-38        00000 
 1.03388e-40  4.03479e-38        00000 
-2.61676e-40 -7.09460e-38        00000 
 5.62785e-40  1.19051e-37        00000 
-1.08225e-39 -1.89540e-37        00000 
 1.90060e-39  2.85846e-37        00000 
-3.08156e-39 -4.08096e-37        00000 
 4.64287e-39  5.51332e-37        00000 
-6.52768e-39 -7.04538e-37        00000 
 8.58906e-39  8.51210e-37        00000 
-1.05988e-38 -9.71897e-37        00000 
 1.22849e-38  1.04837e-36        00000 
-1.33915e-38 -1.06829e-36        00000 
 1.37423e-38  1.02858e-36        00000 
-1.32867e-38 -9.36294e-37        00000 
 1.21119e-38  8.06479e-37        00000 
-1.04164e-38 -6.58003e-37        00000 
 8.45637e-39  5.09045e-37        00000 
-6.48420e-39 -3.73714e-37        00000 
 4.69866e-39  2.60501e-37        00000 
-3.21950e-39 -1.72460e-37        00000 
 2.08726e-39  1.08454e-37        00000 
-1.28148e-39 -6.48121e-38        00000 
 7.46340e-40  3.68580e-38        00000 
-4.14580e-40 -2.00542e-38        00000 
 2.24539e-40  1.06727e-38        00000 
-1.29438e-40 -6.06816e-39        00000 
 1.00883e-40  4.70037e-39        00000 
-7.89724e-41  5.05231e-38        00000 
 4.70865e-41 -6.49625e-38        00000 
 8.56120e-41  1.13102e-37        00000 
-4.39149e-40 -2.09347e-37        00000 
 1.23809e-39  3.77086e-37        00000 
-2.83021e-39 -6.46404e-37        00000 
 5.67804e-39  1.04884e-36        00000 
-1.02966e-38 -1.60845e-36        00000 
 1.71217e-38  2.33002e-36        00000 
-2.63221e-38 -3.18714e-36        00000 
 3.76055e-38  4.11470e-36        00000 
-5.01008e-38 -5.01125e-36        00000 
 6.23976e-38  5.75424e-36        00000 
-7.27802e-38 -6.22702e-36        00000 
 7.96139e-38  6.34975e-36        00000 
-8.17673e-38 -6.10274e-36        00000 
 7.89197e-38  5.53199e-36        00000 
-7.16388e-38 -4.73460e-36        00000 
 6.12027e-38  3.83063e-36        00000 
-4.92414e-38 -2.93331e-36        00000 
 3.73331e-38  2.12783e-36        00000 
-2.66887e-38 -1.46294e-36        00000 
 1.80013e-38  9.53454e-37        00000 
-1.14638e-38 -5.89086e-37        00000 
 6.89909e-39  3.45159e-37        00000 
-3.93002e-39 -1.92060e-37        00000 
 2.12962e-39  1.02017e-37        00000 
-1.12085e-39 -5.28373e-38        00000 
 6.25662e-40  2.91553e-38        00000 
-4.78707e-40 -2.22017e-38        00000 
 5.57749e-40 -2.39682e-37        00000 
-4.43222e-40  3.13937e-37        00000 
-9.54092e-41 -5.64677e-37        00000 
 1.70558e-39  1.07649e-36        00000 
-5.64487e-39 -1.98964e-36        00000 
 1.39429e-38  3.48985e-36        00000 
-2.94136e-38 -5.77956e-36        00000 
 5.53338e-38  9.02475e-36        00000 
-9.46579e-38 -1.32804e-35        00000 
 1.48813e-37  1.84106e-35        00000 
-2.16385e-37 -2.40335e-35        00000 
 2.92238e-37  2.95257e-35        00000 
-3.67651e-37 -3.41134e-35        00000 
 4.31761e-37  3.70463e-35        00000 
-4.74090e-37 -3.78054e-35        00000 
 4.87343e-37  3.62627e-35        00000 
-4.69478e-37 -3.27205e-35        00000 
 4.24213e-37  2.78095e-35        00000 
-3.59811e-37 -2.22967e-35        00000 
 2.86679e-37  1.68874e-35        00000 
-2.14705e-37 -1.20944e-35        00000 
 1.51254e-37  8.19365e-36        00000 
-1.00299e-37 -5.25101e-36        00000 
 6.26541e-38  3.18309e-36        00000 
-3.69039e-38 -1.82581e-36        00000 
 2.05283e-38  9.92509e-37        00000 
-1.08339e-38 -5.13922e-37        00000 
 5.53153e-39  2.58694e-37        00000 
-2.98332e-39 -1.38322e-37        00000 
 2.23693e-39  1.03423e-37        00000 
-3.54784e-39  1.11817e-36        00000 
 3.24814e-39 -1.49403e-36        00000 
-1.35389e-39  2.78174e-36        00000 
-5.53937e-39 -5.47207e-36        00000 
 2.43488e-38  1.03983e-35        00000 
-6.67768e-38 -1.86985e-35        00000 
 1.49805e-37  3.16631e-35        00000 
-2.94157e-37 -5.04211e-35        00000 
 5.19691e-37  7.54721e-35        00000 
-8.37727e-37 -1.06159e-34        00000 
 1.24216e-36  1.40261e-34        00000 
-1.70298e-36 -1.73958e-34        00000 
 2.16625e-36  2.02357e-34        00000 
-2.56305e-36 -2.20612e-34        00000 
 2.82591e-36  2.25322e-34        00000 
-2.90765e-36 -2.15650e-34        00000 
 2.79519e-36  1.93596e-34        00000 
-2.51301e-36 -1.63286e-34        00000 
 2.11477e-36  1.29633e-34        00000 
-1.66709e-36 -9.70315e-35        00000 
 1.23200e-36  6.85443e-35        00000 
-8.54176e-37 -4.57079e-35        00000 
 5.56043e-37  2.87644e-35        00000 
-3.40149e-37 -1.70793e-35        00000 
 1.95738e-37  9.57305e-36        00000 
-1.06125e-37 -5.07458e-36        00000 
 5.44412e-38  2.55730e-36        00000 
-2.69111e-38 -1.24930e-36        00000 
 1.39881e-38  6.46193e-37        00000 
-1.02579e-38 -4.73733e-37        00000 
 2.10462e-38 -5.12214e-36        00000 
-2.11264e-38  6.99052e-36        00000 
 1.64966e-38 -1.34975e-35        00000 
 1.01750e-38  2.74513e-35        00000 
-9.61078e-38 -5.37506e-35        00000 
 3.07806e-37  9.93139e-35        00000 
-7.46778e-37 -1.72309e-34        00000 
 1.54320e-36  2.80323e-34        00000 
-2.82950e-36 -4.27454e-34        00000 
 4.69192e-36  6.10832e-34        00000 
-7.11064e-36 -8.17723e-34        00000 
 9.91216e-36  1.02479e-33        00000 
-1.27632e-35 -1.20108e-33        00000 
 1.52252e-35  1.31511e-33        00000 
-1.68622e-35 -1.34445e-33        00000 
 1.73673e-35  1.28355e-33        00000 
-1.66568e-35 -1.14576e-33        00000 
 1.48926e-35  9.58250e-34        00000 
-1.24247e-35 -7.52649e-34        00000 
 9.68091e-36  5.56254e-34        00000 
-7.05068e-36 -3.87203e-34        00000 
 4.80393e-36  2.53831e-34        00000 
-3.06478e-36 -1.56606e-34        00000 
 1.83257e-36  9.09057e-35        00000 
-1.02819e-36 -4.96859e-35        00000 
 5.42187e-37  2.56329e-35        00000 
-2.69774e-37 -1.25511e-35        00000 
 1.28820e-37  5.94237e-36        00000 
-6.43585e-38 -2.96807e-36        00000 
 4.60561e-38  2.13006e-36        00000 
-1.18254e-37  2.30091e-35        00000 
 1.27344e-37 -3.21076e-35        00000 
-1.32113e-37  6.43831e-35        00000 
 4.80177e-38 -1.35644e-34        00000 
 3.19752e-37  2.74345e-34        00000 
-1.34255e-36 -5.22186e-34        00000 
 3.62024e-36  9.30496e-34        00000 
-7.96417e-36 -1.54975e-33        00000 
 1.52507e-35  2.41156e-33        00000 
-2.61188e-35 -3.50601e-33        00000 
 4.05678e-35  4.76130e-33        00000 
-5.76104e-35 -6.03573e-33        00000 
 7.51897e-35  7.13331e-33        00000 
-9.05069e-35 -7.84874e-33        00000 
 1.00733e-34  8.03239e-33        00000 
-1.03862e-34 -7.64692e-33        00000 
 9.93545e-35  6.78247e-33        00000 
-8.82894e-35 -5.61963e-33        00000 
 7.29603e-35  4.36267e-33        00000 
-5.61239e-35 -3.18060e-33        00000 
 4.02257e-35  2.17931e-33        00000 
-2.68887e-35 -1.40246e-33        00000 
 1.67796e-35  8.46683e-34        00000 
-9.78644e-36 -4.79358e-34        00000 
 5.34139e-36  2.54879e-34        00000 
-2.73289e-36 -1.27711e-34        00000 
 1.31570e-36  6.06658e-35        00000 
-6.05433e-37 -2.77992e-35        00000 
 2.89884e-37  1.33818e-35        00000 
-2.01938e-37 -9.38293e-36        00000 
 6.33987e-37 -1.01251e-34        00000 
-7.24715e-37  1.44549e-34        00000 
 9.01674e-37 -3.01278e-34        00000 
-7.76427e-37  6.58682e-34        00000 
-6.34793e-37 -1.37977e-33        00000 
 5.36064e-36  2.71350e-33        00000 
-1.68970e-35 -4.98007e-33        00000 
 4.02542e-35  8.51212e-33        00000 
-8.11869e-35 -1.35441e-32        00000 
 1.44331e-34  2.00656e-32        00000 
-2.30516e-34 -2.76805e-32        00000 
 3.34251e-34  3.55353e-32        00000 
-4.42861e-34 -4.23917e-32        00000 
 5.38439e-34  4.69030e-32        00000 
-6.02533e-34 -4.80598e-32        00000 
 6.21960e-34  4.56054e-32        00000 
-5.93243e-34 -4.01560e-32        00000 
 5.23604e-34  3.29253e-32        00000 
-4.28156e-34 -2.52380e-32        00000 
 3.24722e-34  1.81332e-32        00000 
-2.28661e-34 -1.22162e-32        00000 
 1.49665e-34  7.70444e-33        00000 
-9.11576e-35 -4.54044e-33        00000 
 5.17332e-35  2.50023e-33        00000 
-2.73962e-35 -1.28990e-33        00000 
 1.35636e-35  6.26535e-34        00000 
-6.30104e-36 -2.88349e-34        00000 
 2.78667e-36  1.27711e-34        00000 
-1.27480e-36 -5.91064e-35        00000 
 8.62143e-37  4.03930e-35        00000 
-3.25301e-36  4.36140e-34        00000 
 3.92779e-36 -6.37156e-34        00000 
-5.60707e-36  1.38025e-33        00000 
 6.66309e-36 -3.13514e-33        00000 
-2.36455e-36  6.82046e-33        00000 
-1.80639e-35 -1.39067e-32        00000 
 7.46459e-35  2.63753e-32        00000 
-1.97982e-34 -4.64004e-32        00000 
 4.25541e-34  7.56735e-32        00000 
-7.90413e-34 -1.14454e-31        00000 
 1.30345e-33  1.60621e-31        00000 
-1.93512e-33 -2.09091e-31        00000 
 2.60759e-33  2.52075e-31        00000 
-3.20592e-33 -2.80698e-31        00000 
 3.60914e-33  2.88047e-31        00000 
-3.73009e-33 -2.72306e-31        00000 
 3.54622e-33  2.37753e-31        00000 
-3.10629e-33 -1.92662e-31        00000 
 2.51043e-33  1.45657e-31        00000 
-1.87425e-33 -1.03045e-31        00000 
 1.29421e-33  6.81725e-32        00000 
-8.27609e-34 -4.20466e-32        00000 
 4.90757e-34  2.41146e-32        00000 
-2.70258e-34 -1.28721e-32        00000 
 1.38455e-34  6.42666e-33        00000 
-6.61282e-35 -3.02149e-33        00000 
 2.95529e-35  1.34588e-33        00000 
-1.25247e-35 -5.75183e-34        00000 
 5.45646e-36  2.55118e-34        00000 
-3.57211e-36 -1.69406e-34        00000 
 1.59813e-35 -1.83745e-33        00000 
-2.03465e-35  2.74840e-33        00000 
 3.25984e-35 -6.18169e-33        00000 
-4.69682e-35  1.45849e-32        00000 
 4.22685e-35 -3.30326e-32        00000 
 3.66423e-35  7.01073e-32        00000 
-3.01958e-34 -1.37961e-31        00000 
 9.38027e-34  2.50680e-31        00000 
-2.18652e-33 -4.20242e-31        00000 
 4.28034e-33  6.50316e-31        00000 
-7.32603e-33 -9.29905e-31        00000 
 1.11734e-32  1.22920e-30        00000 
-1.53466e-32 -1.49970e-30        00000 
 1.91055e-32  1.68270e-30        00000 
-2.16526e-32 -1.72995e-30        00000 
 2.24077e-32  1.62808e-30        00000 
-2.12241e-32 -1.40743e-30        00000 
 1.84334e-32  1.12539e-30        00000 
-1.47033e-32 -8.38278e-31        00000 
 1.07863e-32  5.83502e-31        00000 
-7.28755e-33 -3.78586e-31        00000 
 4.54118e-33  2.27703e-31        00000 
-2.61405e-33 -1.26571e-31        00000 
 1.39246e-33  6.52395e-32        00000 
-6.87805e-34 -3.14541e-32        00000 
 3.15815e-34  1.43051e-32        00000 
-1.35315e-34 -6.16089e-33        00000 
 5.47789e-35  2.53347e-33        00000 
-2.26504e-35 -1.07239e-33        00000 
 1.43092e-35  6.89558e-34        00000 
-7.50652e-35  7.55228e-33        00000 
 1.00799e-34 -1.16019e-32        00000 
-1.79165e-34  2.70703e-32        00000 
 2.97192e-34 -6.61455e-32        00000 
-3.70529e-34  1.56117e-31        00000 
 1.31290e-34 -3.46466e-31        00000 
 1.03130e-33  7.10960e-31        00000 
-4.20883e-33 -1.33989e-30        00000 
 1.09427e-32  2.31706e-30        00000 
-2.28520e-32 -3.67859e-30        00000 
 4.08679e-32  5.36913e-30        00000 
-6.43010e-32 -7.21667e-30        00000 
 9.02601e-32  8.92515e-30        00000 
-1.13968e-31 -1.01068e-29        00000 
 1.30131e-31  1.04160e-29        00000 
-1.34860e-31 -9.74901e-30        00000 
 1.27195e-31  8.32698e-30        00000 
-1.09413e-31 -6.55756e-30        00000 
 8.59926e-32  4.80860e-30        00000 
-6.18532e-32 -3.29222e-30        00000 
 4.07819e-32  2.09139e-30        00000 
-2.46892e-32 -1.22157e-30        00000 
 1.37495e-32  6.54466e-31        00000 
-7.05865e-33 -3.24460e-31        00000 
 3.34877e-33  1.50983e-31        00000 
-1.47248e-33 -6.64541e-32        00000 
 6.02582e-34  2.76074e-32        00000 
-2.32211e-34 -1.08704e-32        00000 
 9.08156e-35  4.37106e-33        00000 
-5.51837e-35 -2.71345e-33        00000 
 3.36138e-34 -3.00776e-32        00000 
-4.76849e-34  4.78648e-32        00000 
 9.34792e-34 -1.16284e-31        00000 
-1.74170e-33  2.92344e-31        00000 
 2.63499e-33 -7.16344e-31        00000 
-2.41130e-33  1.67026e-30        00000 
-2.12695e-33 -3.59884e-30        00000 
 1.73003e-32  7.06952e-30        00000 
-5.28072e-32 -1.26634e-29        00000 
 1.19768e-31  2.07029e-29        00000 
-2.25820e-31 -3.09080e-29        00000 
 3.68481e-31  4.22868e-29        00000 
-5.30370e-31 -5.31086e-29        00000 
 6.80551e-31  6.08421e-29        00000 
-7.83646e-31 -6.29211e-29        00000 
 8.13358e-31  5.84824e-29        00000 
-7.63380e-31 -4.92069e-29        00000 
 6.49501e-31  3.80777e-29        00000 
-5.02000e-31 -2.74819e-29        00000 
 3.53132e-31  1.85143e-29        00000 
-2.26513e-31 -1.14878e-29        00000 
 1.32749e-31  6.47307e-30        00000 
-7.12399e-32 -3.31772e-30        00000 
 3.50981e-32  1.57839e-30        00000 
-1.59229e-32 -7.10985e-31        00000 
 6.67546e-33  3.02872e-31        00000 
-2.59831e-33 -1.20580e-31        00000 
 9.49619e-34  4.51658e-32        00000 
-3.50058e-34 -1.72039e-32        00000 
 2.03923e-34  1.02804e-32        00000 
-1.42915e-33  1.14707e-31        00000 
 2.14723e-33 -1.91496e-31        00000 
-4.63048e-33  4.91964e-31        00000 
 9.57258e-33 -1.26823e-30        00000 
-1.67085e-32  3.17647e-30        00000 
 2.13146e-32 -7.78642e-30        00000 
-7.56082e-33  1.78275e-29        00000 
-6.00727e-32 -3.67384e-29        00000 
 2.41563e-31  6.84102e-29        00000 
-6.12320e-31 -1.15818e-28        00000 
 1.23253e-30  1.77450e-28        00000 
-2.10019e-30 -2.47095e-28        00000 
 3.11245e-30  3.15629e-28        00000 
-4.06841e-30 -3.67257e-28        00000 
 4.72980e-30  3.81822e-28        00000 
-4.91715e-30 -3.51554e-28        00000 
 4.58882e-30  2.90080e-28        00000 
-3.85548e-30 -2.19998e-28        00000 
 2.92348e-30  1.56470e-28        00000 
-2.00506e-30 -1.03904e-28        00000 
 1.24659e-30  6.26978e-29        00000 
-7.04240e-31 -3.36883e-29        00000 
 3.62494e-31  1.63714e-29        00000 
-1.70548e-31 -7.50707e-30        00000 
 7.36173e-32  3.29762e-30        00000 
-2.92826e-32 -1.34986e-30        00000 
 1.07918e-32  5.08459e-31        00000 
-3.72625e-33 -1.80837e-31        00000 
 1.29044e-33  6.52211e-32        00000 
-7.18370e-34 -3.72119e-32        00000 
 5.73982e-33 -4.14102e-31        00000 
-9.16076e-33  7.30859e-31        00000 
 2.17172e-32 -2.03064e-30        00000 
-4.95303e-32  5.49061e-30        00000 
 9.75232e-32 -1.37444e-29        00000 
-1.52063e-31  3.44572e-29        00000 
 1.41290e-31 -8.56975e-29        00000 
 1.26281e-31  1.88330e-28        00000 
-1.01322e-30 -3.63440e-28        00000 
 3.02357e-30  6.42066e-28        00000 
-6.61824e-30 -1.01864e-27        00000 
 1.18858e-29  1.43862e-27        00000 
-1.82325e-29 -1.86804e-27        00000 
 2.43508e-29  2.22485e-27        00000 
-2.86219e-29 -2.33283e-27        00000 
 2.98076e-29  2.11773e-27        00000 
-2.76321e-29 -1.70233e-27        00000 
 2.28804e-29  1.26178e-27        00000 
-1.69715e-29 -8.88112e-28        00000 
 1.13063e-29  5.83795e-28        00000 
-6.78283e-30 -3.39267e-28        00000 
 3.67503e-30  1.70063e-28        00000 
-1.80442e-30 -7.79902e-29        00000 
 8.06078e-31  3.52790e-29        00000 
-3.29181e-31 -1.51259e-29        00000 
 1.23565e-31  5.78531e-30        00000 
-4.29117e-32 -2.05016e-30        00000 
 1.39440e-32  7.00612e-31        00000 
-4.52313e-33 -2.36585e-31        00000 
 2.39919e-33  1.26455e-31        00000 
-2.16484e-32  1.40473e-30        00000 
 3.68111e-32 -2.62477e-30        00000 
-9.59625e-32  7.93063e-30        00000 
 2.40984e-31 -2.34854e-29        00000 
-5.29954e-31  6.10808e-29        00000 
 9.62267e-31 -1.43893e-28        00000 
-1.25875e-30  3.80475e-28        00000 
 4.48416e-31 -9.68934e-28        00000 
 3.59343e-30  1.89691e-27        00000 
-1.41766e-29 -3.46338e-27        00000 
 3.47518e-29  5.91251e-27        00000 
-6.66342e-29 -8.35424e-27        00000 
 1.06536e-28  1.08997e-26        00000 
-1.45936e-28 -1.35790e-26        00000 
 1.73726e-28  1.44043e-26        00000 
-1.81262e-28 -1.27638e-26        00000 
 1.66703e-28  9.91900e-27        00000 
-1.35703e-28 -7.15267e-27        00000 
 9.81111e-29  5.03815e-27        00000 
-6.31960e-29 -3.31019e-27        00000 
 3.63837e-29  1.80600e-27        00000 
-1.87909e-29 -8.06585e-28        00000 
 8.74334e-30  3.61639e-28        00000 
-3.68408e-30 -1.69241e-28        00000 
 1.41427e-30  6.67772e-29        00000 
-4.98088e-31 -2.31498e-29        00000 
 1.62204e-31  8.05401e-30        00000 
-4.94219e-32 -2.62728e-30        00000 
 1.49804e-32  7.99731e-31        00000 
-7.55315e-33 -3.95030e-31        00000 
 7.61898e-32 -4.44478e-30        00000 
-1.38365e-31  8.82699e-30        00000 
 3.96791e-31 -2.88176e-29        00000 
-1.09729e-30  9.30923e-29        00000 
 2.68604e-30 -2.77809e-28        00000 
-5.56621e-30  6.59361e-28        00000 
 9.00466e-30 -1.38099e-27        00000 
-8.53982e-30  4.61211e-27        00000 
-7.73482e-30 -1.11444e-26        00000 
 6.10536e-29  1.57908e-26        00000 
-1.76733e-28 -3.59639e-26        00000 
 3.68762e-28  5.00785e-26        00000 
-6.20300e-28 -5.84096e-26        00000 
 8.75805e-28  8.70280e-26        00000 
-1.05822e-27 -8.84882e-26        00000 
 1.10630e-27  7.76234e-26        00000 
-1.00777e-27 -5.67353e-26        00000 