<?xml version="1.0" encoding="utf-8"?>
<VTKFile byte_order="LittleEndian" type="UnstructuredGrid" version="0.1">
   <UnstructuredGrid>
      <Piece NumberOfCells="3364" NumberOfPoints="1741">
         <Points>
            <DataArray Name="Points" NumberOfComponents="3" format="ascii" type="Float32">
0.0000 1.0000 0.0000
0.0000 1.0345 0.0000
0.0000 1.0690 0.0000
0.0000 1.1034 0.0000
0.0000 1.1379 0.0000
0.0000 1.1724 0.0000
0.0000 1.2069 0.0000
0.0000 1.2414 0.0000
0.0000 1.2759 0.0000
0.0000 1.3103 0.0000
0.0000 1.3448 0.0000
0.0000 1.3793 0.0000
0.0000 1.4138 0.0000
0.0000 1.4483 0.0000
0.0000 1.4828 0.0000
0.0000 1.5172 0.0000
0.0000 1.5517 0.0000
0.0000 1.5862 0.0000
0.0000 1.6207 0.0000
0.0000 1.6552 0.0000
0.0000 1.6897 0.0000
0.0000 1.7241 0.0000
0.0000 1.7586 0.0000
0.0000 1.7931 0.0000
0.0000 1.8276 0.0000
0.0000 1.8621 0.0000
0.0000 1.8966 0.0000
0.0000 1.9310 0.0000
0.0000 1.9655 0.0000
0.0000 2.0000 0.0000
0.0690 1.0000 0.0000
0.0690 1.0345 0.0000
0.0690 1.0690 0.0000
0.0690 1.1034 0.0000
0.0690 1.1379 0.0000
0.0690 1.1724 0.0000
0.0690 1.2069 0.0000
0.0690 1.2414 0.0000
0.0690 1.2759 0.0000
0.0690 1.3103 0.0000
0.0690 1.3448 0.0000
0.0690 1.3793 0.0000
0.0690 1.4138 0.0000
0.0690 1.4483 0.0000
0.0690 1.4828 0.0000
0.0690 1.5172 0.0000
0.0690 1.5517 0.0000
0.0690 1.5862 0.0000
0.0690 1.6207 0.0000
0.0690 1.6552 0.0000
0.0690 1.6897 0.0000
0.0690 1.7241 0.0000
0.0690 1.7586 0.0000
0.0690 1.7931 0.0000
0.0690 1.8276 0.0000
0.0690 1.8621 0.0000
0.0690 1.8966 0.0000
0.0690 1.9310 0.0000
0.0690 1.9655 0.0000
0.0690 2.0000 0.0000
0.1379 1.0000 0.0000
0.1379 1.0345 0.0000
0.1379 1.0690 0.0000
0.1379 1.1034 0.0000
0.1379 1.1379 0.0000
0.1379 1.1724 0.0000
0.1379 1.2069 0.0000
0.1379 1.2414 0.0000
0.1379 1.2759 0.0000
0.1379 1.3103 0.0000
0.1379 1.3448 0.0000
0.1379 1.3793 0.0000
0.1379 1.4138 0.0000
0.1379 1.4483 0.0000
0.1379 1.4828 0.0000
0.1379 1.5172 0.0000
0.1379 1.5517 0.0000
0.1379 1.5862 0.0000
0.1379 1.6207 0.0000
0.1379 1.6552 0.0000
0.1379 1.6897 0.0000
0.1379 1.7241 0.0000
0.1379 1.7586 0.0000
0.1379 1.7931 0.0000
0.1379 1.8276 0.0000
0.1379 1.8621 0.0000
0.1379 1.8966 0.0000
0.1379 1.9310 0.0000
0.1379 1.9655 0.0000
0.1379 2.0000 0.0000
0.2069 1.0000 0.0000
0.2069 1.0345 0.0000
0.2069 1.0690 0.0000
0.2069 1.1034 0.0000
0.2069 1.1379 0.0000
0.2069 1.1724 0.0000
0.2069 1.2069 0.0000
0.2069 1.2414 0.0000
0.2069 1.2759 0.0000
0.2069 1.3103 0.0000
0.2069 1.3448 0.0000
0.2069 1.3793 0.0000
0.2069 1.4138 0.0000
0.2069 1.4483 0.0000
0.2069 1.4828 0.0000
0.2069 1.5172 0.0000
0.2069 1.5517 0.0000
0.2069 1.5862 0.0000
0.2069 1.6207 0.0000
0.2069 1.6552 0.0000
0.2069 1.6897 0.0000
0.2069 1.7241 0.0000
0.2069 1.7586 0.0000
0.2069 1.7931 0.0000
0.2069 1.8276 0.0000
0.2069 1.8621 0.0000
0.2069 1.8966 0.0000
0.2069 1.9310 0.0000
0.2069 1.9655 0.0000
0.2069 2.0000 0.0000
0.2759 1.0000 0.0000
0.2759 1.0345 0.0000
0.2759 1.0690 0.0000
0.2759 1.1034 0.0000
0.2759 1.1379 0.0000
0.2759 1.1724 0.0000
0.2759 1.2069 0.0000
0.2759 1.2414 0.0000
0.2759 1.2759 0.0000
0.2759 1.3103 0.0000
0.2759 1.3448 0.0000
0.2759 1.3793 0.0000
0.2759 1.4138 0.0000
0.2759 1.4483 0.0000
0.2759 1.4828 0.0000
0.2759 1.5172 0.0000
0.2759 1.5517 0.0000
0.2759 1.5862 0.0000
0.2759 1.6207 0.0000
0.2759 1.6552 0.0000
0.2759 1.6897 0.0000
0.2759 1.7241 0.0000
0.2759 1.7586 0.0000
0.2759 1.7931 0.0000
0.2759 1.8276 0.0000
0.2759 1.8621 0.0000
0.2759 1.8966 0.0000
0.2759 1.9310 0.0000
0.2759 1.9655 0.0000
0.2759 2.0000 0.0000
0.3448 1.0000 0.0000
0.3448 1.0345 0.0000
0.3448 1.0690 0.0000
0.3448 1.1034 0.0000
0.3448 1.1379 0.0000
0.3448 1.1724 0.0000
0.3448 1.2069 0.0000
0.3448 1.2414 0.0000
0.3448 1.2759 0.0000
0.3448 1.3103 0.0000
0.3448 1.3448 0.0000
0.3448 1.3793 0.0000
0.3448 1.4138 0.0000
0.3448 1.4483 0.0000
0.3448 1.4828 0.0000
0.3448 1.5172 0.0000
0.3448 1.5517 0.0000
0.3448 1.5862 0.0000
0.3448 1.6207 0.0000
0.3448 1.6552 0.0000
0.3448 1.6897 0.0000
0.3448 1.7241 0.0000
0.3448 1.7586 0.0000
0.3448 1.7931 0.0000
0.3448 1.8276 0.0000
0.3448 1.8621 0.0000
0.3448 1.8966 0.0000
0.3448 1.9310 0.0000
0.3448 1.9655 0.0000
0.3448 2.0000 0.0000
0.4138 1.0000 0.0000
0.4138 1.0345 0.0000
0.4138 1.0690 0.0000
0.4138 1.1034 0.0000
0.4138 1.1379 0.0000
0.4138 1.1724 0.0000
0.4138 1.2069 0.0000
0.4138 1.2414 0.0000
0.4138 1.2759 0.0000
0.4138 1.3103 0.0000
0.4138 1.3448 0.0000
0.4138 1.3793 0.0000
0.4138 1.4138 0.0000
0.4138 1.4483 0.0000
0.4138 1.4828 0.0000
0.4138 1.5172 0.0000
0.4138 1.5517 0.0000
0.4138 1.5862 0.0000
0.4138 1.6207 0.0000
0.4138 1.6552 0.0000
0.4138 1.6897 0.0000
0.4138 1.7241 0.0000
0.4138 1.7586 0.0000
0.4138 1.7931 0.0000
0.4138 1.8276 0.0000
0.4138 1.8621 0.0000
0.4138 1.8966 0.0000
0.4138 1.9310 0.0000
0.4138 1.9655 0.0000
0.4138 2.0000 0.0000
0.4828 1.0000 0.0000
0.4828 1.0345 0.0000
0.4828 1.0690 0.0000
0.4828 1.1034 0.0000
0.4828 1.1379 0.0000
0.4828 1.1724 0.0000
0.4828 1.2069 0.0000
0.4828 1.2414 0.0000
0.4828 1.2759 0.0000
0.4828 1.3103 0.0000
0.4828 1.3448 0.0000
0.4828 1.3793 0.0000
0.4828 1.4138 0.0000
0.4828 1.4483 0.0000
0.4828 1.4828 0.0000
0.4828 1.5172 0.0000
0.4828 1.5517 0.0000
0.4828 1.5862 0.0000
0.4828 1.6207 0.0000
0.4828 1.6552 0.0000
0.4828 1.6897 0.0000
0.4828 1.7241 0.0000
0.4828 1.7586 0.0000
0.4828 1.7931 0.0000
0.4828 1.8276 0.0000
0.4828 1.8621 0.0000
0.4828 1.8966 0.0000
0.4828 1.9310 0.0000
0.4828 1.9655 0.0000
0.4828 2.0000 0.0000
0.5517 1.0000 0.0000
0.5517 1.0345 0.0000
0.5517 1.0690 0.0000
0.5517 1.1034 0.0000
0.5517 1.1379 0.0000
0.5517 1.1724 0.0000
0.5517 1.2069 0.0000
0.5517 1.2414 0.0000
0.5517 1.2759 0.0000
0.5517 1.3103 0.0000
0.5517 1.3448 0.0000
0.5517 1.3793 0.0000
0.5517 1.4138 0.0000
0.5517 1.4483 0.0000
0.5517 1.4828 0.0000
0.5517 1.5172 0.0000
0.5517 1.5517 0.0000
0.5517 1.5862 0.0000
0.5517 1.6207 0.0000
0.5517 1.6552 0.0000
0.5517 1.6897 0.0000
0.5517 1.7241 0.0000
0.5517 1.7586 0.0000
0.5517 1.7931 0.0000
0.5517 1.8276 0.0000
0.5517 1.8621 0.0000
0.5517 1.8966 0.0000
0.5517 1.9310 0.0000
0.5517 1.9655 0.0000
0.5517 2.0000 0.0000
0.6207 1.0000 0.0000
0.6207 1.0345 0.0000
0.6207 1.0690 0.0000
0.6207 1.1034 0.0000
0.6207 1.1379 0.0000
0.6207 1.1724 0.0000
0.6207 1.2069 0.0000
0.6207 1.2414 0.0000
0.6207 1.2759 0.0000
0.6207 1.3103 0.0000
0.6207 1.3448 0.0000
0.6207 1.3793 0.0000
0.6207 1.4138 0.0000
0.6207 1.4483 0.0000
0.6207 1.4828 0.0000
0.6207 1.5172 0.0000
0.6207 1.5517 0.0000
0.6207 1.5862 0.0000
0.6207 1.6207 0.0000
0.6207 1.6552 0.0000
0.6207 1.6897 0.0000
0.6207 1.7241 0.0000
0.6207 1.7586 0.0000
0.6207 1.7931 0.0000
0.6207 1.8276 0.0000
0.6207 1.8621 0.0000
0.6207 1.8966 0.0000
0.6207 1.9310 0.0000
0.6207 1.9655 0.0000
0.6207 2.0000 0.0000
0.6897 1.0000 0.0000
0.6897 1.0345 0.0000
0.6897 1.0690 0.0000
0.6897 1.1034 0.0000
0.6897 1.1379 0.0000
0.6897 1.1724 0.0000
0.6897 1.2069 0.0000
0.6897 1.2414 0.0000
0.6897 1.2759 0.0000
0.6897 1.3103 0.0000
0.6897 1.3448 0.0000
0.6897 1.3793 0.0000
0.6897 1.4138 0.0000
0.6897 1.4483 0.0000
0.6897 1.4828 0.0000
0.6897 1.5172 0.0000
0.6897 1.5517 0.0000
0.6897 1.5862 0.0000
0.6897 1.6207 0.0000
0.6897 1.6552 0.0000
0.6897 1.6897 0.0000
0.6897 1.7241 0.0000
0.6897 1.7586 0.0000
0.6897 1.7931 0.0000
0.6897 1.8276 0.0000
0.6897 1.8621 0.0000
0.6897 1.8966 0.0000
0.6897 1.9310 0.0000
0.6897 1.9655 0.0000
0.6897 2.0000 0.0000
0.7586 1.0000 0.0000
0.7586 1.0345 0.0000
0.7586 1.0690 0.0000
0.7586 1.1034 0.0000
0.7586 1.1379 0.0000
0.7586 1.1724 0.0000
0.7586 1.2069 0.0000
0.7586 1.2414 0.0000
0.7586 1.2759 0.0000
0.7586 1.3103 0.0000
0.7586 1.3448 0.0000
0.7586 1.3793 0.0000
0.7586 1.4138 0.0000
0.7586 1.4483 0.0000
0.7586 1.4828 0.0000
0.7586 1.5172 0.0000
0.7586 1.5517 0.0000
0.7586 1.5862 0.0000
0.7586 1.6207 0.0000
0.7586 1.6552 0.0000
0.7586 1.6897 0.0000
0.7586 1.7241 0.0000
0.7586 1.7586 0.0000
0.7586 1.7931 0.0000
0.7586 1.8276 0.0000
0.7586 1.8621 0.0000
0.7586 1.8966 0.0000
0.7586 1.9310 0.0000
0.7586 1.9655 0.0000
0.7586 2.0000 0.0000
0.8276 1.0000 0.0000
0.8276 1.0345 0.0000
0.8276 1.0690 0.0000
0.8276 1.1034 0.0000
0.8276 1.1379 0.0000
0.8276 1.1724 0.0000
0.8276 1.2069 0.0000
0.8276 1.2414 0.0000
0.8276 1.2759 0.0000
0.8276 1.3103 0.0000
0.8276 1.3448 0.0000
0.8276 1.3793 0.0000
0.8276 1.4138 0.0000
0.8276 1.4483 0.0000
0.8276 1.4828 0.0000
0.8276 1.5172 0.0000
0.8276 1.5517 0.0000
0.8276 1.5862 0.0000
0.8276 1.6207 0.0000
0.8276 1.6552 0.0000
0.8276 1.6897 0.0000
0.8276 1.7241 0.0000
0.8276 1.7586 0.0000
0.8276 1.7931 0.0000
0.8276 1.8276 0.0000
0.8276 1.8621 0.0000
0.8276 1.8966 0.0000
0.8276 1.9310 0.0000
0.8276 1.9655 0.0000
0.8276 2.0000 0.0000
0.8966 1.0000 0.0000
0.8966 1.0345 0.0000
0.8966 1.0690 0.0000
0.8966 1.1034 0.0000
0.8966 1.1379 0.0000
0.8966 1.1724 0.0000
0.8966 1.2069 0.0000
0.8966 1.2414 0.0000
0.8966 1.2759 0.0000
0.8966 1.3103 0.0000
0.8966 1.3448 0.0000
0.8966 1.3793 0.0000
0.8966 1.4138 0.0000
0.8966 1.4483 0.0000
0.8966 1.4828 0.0000
0.8966 1.5172 0.0000
0.8966 1.5517 0.0000
0.8966 1.5862 0.0000
0.8966 1.6207 0.0000
0.8966 1.6552 0.0000
0.8966 1.6897 0.0000
0.8966 1.7241 0.0000
0.8966 1.7586 0.0000
0.8966 1.7931 0.0000
0.8966 1.8276 0.0000
0.8966 1.8621 0.0000
0.8966 1.8966 0.0000
0.8966 1.9310 0.0000
0.8966 1.9655 0.0000
0.8966 2.0000 0.0000
0.9655 1.0000 0.0000
0.9655 1.0345 0.0000
0.9655 1.0690 0.0000
0.9655 1.1034 0.0000
0.9655 1.1379 0.0000
0.9655 1.1724 0.0000
0.9655 1.2069 0.0000
0.9655 1.2414 0.0000
0.9655 1.2759 0.0000
0.9655 1.3103 0.0000
0.9655 1.3448 0.0000
0.9655 1.3793 0.0000
0.9655 1.4138 0.0000
0.9655 1.4483 0.0000
0.9655 1.4828 0.0000
0.9655 1.5172 0.0000
0.9655 1.5517 0.0000
0.9655 1.5862 0.0000
0.9655 1.6207 0.0000
0.9655 1.6552 0.0000
0.9655 1.6897 0.0000
0.9655 1.7241 0.0000
0.9655 1.7586 0.0000
0.9655 1.7931 0.0000
0.9655 1.8276 0.0000
0.9655 1.8621 0.0000
0.9655 1.8966 0.0000
0.9655 1.9310 0.0000
0.9655 1.9655 0.0000
0.9655 2.0000 0.0000
1.0345 1.0000 0.0000
1.0345 1.0345 0.0000
1.0345 1.0690 0.0000
1.0345 1.1034 0.0000
1.0345 1.1379 0.0000
1.0345 1.1724 0.0000
1.0345 1.2069 0.0000
1.0345 1.2414 0.0000
1.0345 1.2759 0.0000
1.0345 1.3103 0.0000
1.0345 1.3448 0.0000
[...]
         <PointData>
            <DataArray Name="fValues" NumberOfComponents="3" format="ascii" type="Float64">
-3.60538e-43 -2.06205e-42        00000 
 4.86147e-43  2.90079e-42        00000 
-9.23470e-43 -5.91268e-42        00000 
 1.86716e-42  1.27498e-41        00000 
-3.68194e-42 -2.67085e-41        00000 
 6.94904e-42  5.34960e-41        00000 
-1.24997e-41 -1.02138e-40        00000 
 2.13992e-41  1.85726e-40        00000 
-3.48399e-41 -3.21499e-40        00000 
 5.39075e-41  5.29623e-40        00000 
-7.92228e-41 -8.30079e-40        00000 
 1.10516e-40  1.23749e-39        00000 
-1.46258e-40 -1.75454e-39        00000 
 1.83514e-40  2.36550e-39        00000 
-2.18168e-40 -3.03235e-39        00000 
 2.45568e-40  3.69575e-39        00000 
-2.61486e-40 -4.28226e-39        00000 
 2.63143e-40  4.71720e-39        00000 
-2.49962e-40 -4.94010e-39        00000 
 2.23779e-40  4.91858e-39        00000 
-1.88426e-40 -4.65611e-39        00000 
 1.48804e-40  4.19121e-39        00000 
-1.09764e-40 -3.58837e-39        00000 
 7.51424e-41  2.92387e-39        00000 
-4.72151e-41 -2.27086e-39        00000 
 2.66403e-41  1.68809e-39        00000 
-1.28137e-41 -1.21470e-39        00000 
 4.43749e-42  8.71198e-40        00000 
-1.08809e-43 -6.64792e-40        00000 
-1.20821e-42  5.96143e-40        00000 
 8.58901e-43  4.73580e-42        00000 
-1.17872e-42 -6.79774e-42        00000 
 2.30571e-42  1.43050e-41        00000 
-4.78513e-42 -3.17191e-41        00000 
 9.65889e-42  6.81330e-41        00000 
-1.86280e-41 -1.39689e-40        00000 
 3.41901e-41  2.72588e-40        00000 
-5.96388e-41 -5.05846e-40        00000 
 9.87821e-41  8.92241e-40        00000 
-1.55249e-40 -1.49531e-39        00000 
 2.31362e-40  2.38029e-39        00000 
-3.26723e-40 -3.59809e-39        00000 
 4.36936e-40  5.16380e-39        00000 
-5.52987e-40 -7.03485e-39        00000 
 6.61859e-40  9.09658e-39        00000 
-7.48564e-40 -1.11636e-38        00000 
 7.99306e-40  1.30020e-38        00000 
-8.04917e-40 -1.43710e-38        00000 
 7.63420e-40  1.50743e-38        00000 
-6.80789e-40 -1.50060e-38        00000 
 5.69524e-40  1.41776e-38        00000 
-4.45548e-40 -1.27145e-38        00000 
 3.24447e-40  1.08258e-38        00000 
-2.18303e-40 -8.75612e-39        00000 
 1.33964e-40  6.73702e-39        00000 
-7.29990e-41 -4.94993e-39        00000 
 3.29732e-41  3.51077e-39        00000 
-9.36873e-42 -2.47497e-39        00000 
-2.50838e-42  1.85657e-39        00000 
 6.05792e-42 -1.65164e-39        00000 
-3.66998e-42 -1.93034e-41        00000 
 5.15051e-42  2.84395e-41        00000 
-1.04477e-41 -6.22963e-41        00000 
 2.23861e-41  1.42999e-40        00000 
-4.64949e-41 -3.16844e-40        00000 
 9.20667e-41  6.68558e-40        00000 
-1.73178e-40 -1.34004e-39        00000 
 3.09017e-40  2.54925e-39        00000 
-5.22593e-40 -4.60041e-39        00000 
 8.36933e-40  7.87201e-39        00000 
-1.26836e-39 -1.27683e-38        00000 
 1.81766e-39  1.96255e-38        00000 
-2.46148e-39 -2.85795e-38        00000 
 3.14762e-39  3.94240e-38        00000 
-3.79787e-39 -5.15096e-38        00000 
 4.32017e-39  6.37382e-38        00000 
-4.62846e-39 -7.46917e-38        00000 
 4.66484e-39  8.28888e-38        00000 
-4.41633e-39 -8.71107e-38        00000 
 3.92001e-39  8.66987e-38        00000 
-3.25389e-39 -8.17232e-38        00000 
 2.51677e-39  7.29654e-38        00000 
-1.80415e-39 -6.17193e-38        00000 
 1.18825e-39  4.94839e-38        00000 
-7.07739e-40 -3.76517e-38        00000 
 3.68445e-40  2.72836e-38        00000 
-1.52159e-40 -1.90220e-38        00000 
 2.90463e-41  1.31355e-38        00000 
 3.06547e-41 -9.64944e-39        00000 
-4.80400e-41  8.49940e-39        00000 
 1.60282e-41  8.03093e-41        00000 
-2.30128e-41 -1.21525e-40        00000 
 4.84029e-41  2.77111e-40        00000 
-1.07067e-40 -6.58546e-40        00000 
 2.28853e-40  1.50561e-39        00000 
-4.65446e-40 -3.27109e-39        00000 
 8.97671e-40  6.73798e-39        00000 
-1.63940e-39 -1.31477e-38        00000 
 2.83221e-39  2.42883e-38        00000 
-4.62442e-39 -4.24589e-38        00000 
 7.13051e-39  7.02096e-38        00000 
-1.03747e-38 -1.09786e-37        00000 
 1.42330e-38  1.62297e-37        00000 
-1.83965e-38 -2.26785e-37        00000 
 2.23839e-38  2.99497e-37        00000 
-2.56152e-38 -3.73774e-37        00000 
 2.75394e-38  4.40796e-37        00000 
-2.77809e-38 -4.91209e-37        00000 
 2.62522e-38  5.17249e-37        00000 
-2.31898e-38 -5.14693e-37        00000 
 1.90935e-38  4.83997e-37        00000 
-1.45931e-38 -4.30158e-37        00000 
 1.02888e-38  3.61402e-37        00000 
-6.62287e-39 -2.87157e-37        00000 
 3.81761e-39  2.16017e-37        00000 
-1.88599e-39 -1.54340e-37        00000 
 6.94131e-40  1.05747e-37        00000 
-4.29107e-41 -7.14978e-38        00000 
-2.58867e-40  5.13921e-38        00000 
 3.43817e-40 -4.47925e-38        00000 
-6.86030e-41 -3.25861e-40        00000 
 1.00946e-40  5.07676e-40        00000 
-2.20584e-40 -1.20817e-39        00000 
 5.04576e-40  2.97893e-39        00000 
-1.11192e-39 -7.04268e-39        00000 
 2.32699e-39  1.57882e-38        00000 
-4.60974e-39 -3.34903e-38        00000 
 8.63118e-39  6.71593e-38        00000 
-1.52574e-38 -1.27235e-37        00000 
 2.54373e-38  2.27608e-37        00000 
-3.99616e-38 -3.84289e-37        00000 
 5.91043e-38  6.12158e-37        00000 
-8.22307e-38 -9.19782e-37        00000 
 1.07527e-37  1.30326e-36        00000 
-1.32030e-37 -1.74115e-36        00000 
 1.52077e-37  2.19308e-36        00000 
-1.64128e-37 -2.60411e-36        00000 
 1.65735e-37  2.91501e-36        00000 
-1.56307e-37 -3.07608e-36        00000 
 1.37354e-37  3.06018e-36        00000 
-1.12097e-37 -2.87025e-36        00000 
 8.45611e-38  2.53841e-36        00000 
-5.85318e-38 -2.11717e-36        00000 
 3.67162e-38  1.66599e-36        00000 
-2.03750e-38 -1.23805e-36        00000 
 9.43696e-39  8.71336e-37        00000 
-2.93857e-39 -5.86033e-37        00000 
-4.38052e-40  3.87381e-37        00000 
 1.91109e-39 -2.71922e-37        00000 
-2.30591e-39  2.34239e-37        00000 
 2.86535e-40  1.28219e-39        00000 
-4.32974e-40 -2.06268e-39        00000 
 9.85171e-40  5.13886e-39        00000 
-2.33510e-39 -1.31809e-38        00000 
 5.31636e-39  3.23078e-38        00000 
-1.14727e-38 -7.49236e-38        00000 
 2.33932e-38  1.64063e-37        00000 
-4.49971e-38 -3.38890e-37        00000 
 8.15428e-38  6.59844e-37        00000 
-1.39059e-37 -1.21029e-36        00000 
 2.22933e-37  2.09015e-36        00000 
-3.35654e-37 -3.39731e-36        00000 
 4.74181e-37  5.19544e-36        00000 
-6.27945e-37 -7.47371e-36        00000 
 7.78745e-37  1.01112e-35        00000 
-9.03412e-37 -1.28638e-35        00000 
 9.79121e-37  1.53890e-35        00000 
-9.89844e-37 -1.73105e-35        00000 
 9.31559e-37  1.83093e-35        00000 
-8.13973e-37 -1.82102e-35        00000 
 6.57887e-37  1.70321e-35        00000 
-4.89157e-37 -1.49825e-35        00000 
 3.31684e-37  1.23978e-35        00000 
-2.02016e-37 -9.65390e-36        00000 
 1.07170e-37  7.08010e-36        00000 
-4.56935e-38 -4.90298e-36        00000 
 1.07670e-38  3.23276e-36        00000 
 6.26232e-39 -2.08568e-36        00000 
-1.30838e-38  1.42652e-36        00000 
 1.47741e-38 -1.21279e-36        00000 
-1.16473e-39 -4.87171e-39        00000 
 1.81127e-39  8.11999e-39        00000 
-4.30151e-39 -2.12518e-38        00000 
 1.05877e-38  5.68746e-38        00000 
-2.49614e-38 -1.44961e-37        00000 
 5.56766e-38  3.48761e-37        00000 
-1.17126e-37 -7.90527e-37        00000 
 2.31965e-37  1.68638e-36        00000 
-4.31859e-37 -3.38278e-36        00000 
 7.54818e-37  6.37612e-36        00000 
-1.23711e-36 -1.12863e-35        00000 
 1.89920e-36  1.87521e-35        00000 
-2.72817e-36 -2.92346e-35        00000 
 3.66322e-36  4.27539e-35        00000 
-4.59270e-36 -5.86406e-35        00000 
 5.36987e-36  7.54242e-35        00000 
-5.84705e-36 -9.09660e-35        00000 
 5.91883e-36  1.02870e-34        00000 
-5.55767e-36 -1.09081e-34        00000 
 4.82615e-36  1.08461e-34        00000 
-3.85929e-36 -1.01134e-34        00000 
 2.82373e-36  8.84460e-35        00000 
-1.87075e-36 -7.25599e-35        00000 
 1.10124e-36  5.58602e-35        00000 
-5.53184e-37 -4.03861e-35        00000 
 2.10828e-37  2.74833e-35        00000 
-2.65154e-38 -1.77384e-35        00000 
-5.61225e-38  1.11489e-35        00000 
 8.51331e-38 -7.41133e-36        00000 
-9.13194e-38  6.20859e-36        00000 
 4.59447e-39  1.77849e-38        00000 
-7.36970e-39 -3.08343e-38        00000 
 1.83115e-38  8.51127e-38        00000 
-4.69132e-38 -2.38479e-37        00000 
 1.14819e-37  6.34184e-37        00000 
-2.65398e-37 -1.58808e-36        00000 
 5.77502e-37  3.73777e-36        00000 
-1.18058e-36 -8.25891e-36        00000 
 2.26347e-36  1.71148e-35        00000 
-4.06384e-36 -3.32353e-35        00000 
 6.82322e-36  6.04373e-35        00000 
-1.07003e-35 -1.02861e-34        00000 
 1.56548e-35  1.63777e-34        00000 
-2.13422e-35 -2.43880e-34        00000 
 2.70802e-35  3.39566e-34        00000 
-3.19378e-35 -4.42009e-34        00000 
 3.49562e-35  5.37852e-34        00000 
-3.54383e-35 -6.11792e-34        00000 
 3.31946e-35  6.50520e-34        00000 
-2.86302e-35 -6.46628e-34        00000 
 2.26258e-35  6.00932e-34        00000 
-1.62597e-35 -5.22194e-34        00000 
 1.04914e-35  4.24386e-34        00000 
-5.93405e-36 -3.22669e-34        00000 
 2.78454e-36  2.29683e-34        00000 
-8.99823e-37 -1.53371e-34        00000 
-4.97098e-38  9.67381e-35        00000 
 4.28351e-37 -5.91097e-35        00000 
-5.32941e-37  3.80827e-35        00000 
 5.47407e-37 -3.13756e-35        00000 
-1.75322e-38 -6.19941e-38        00000 
 2.90750e-38  1.12334e-37        00000 
-7.57686e-38 -3.28541e-37        00000 
 2.02543e-37  9.67615e-37        00000 
-5.16017e-37 -2.69510e-36        00000 
 1.23954e-36  7.05066e-36        00000 
-2.79796e-36 -1.72928e-35        00000 
 5.92076e-36  3.97110e-35        00000 
-1.17219e-35 -8.52834e-35        00000 
 2.16734e-35  1.71121e-34        00000 
-3.73668e-35 -3.20537e-34        00000 
 5.99867e-35  5.60155e-34        00000 
-8.95485e-35 -9.12807e-34        00000 
 1.24146e-34  1.38654e-33        00000 
-1.59625e-34 -1.96270e-33        00000 
 1.90072e-34  2.58867e-33        00000 
-2.09238e-34 -3.18094e-33        00000 
 2.12489e-34  3.64148e-33        00000 
-1.98512e-34 -3.88375e-33        00000 
 1.69939e-34  3.85923e-33        00000 
-1.32546e-34 -3.57332e-33        00000 
 9.33425e-35  3.08340e-33        00000 
-5.84272e-35 -2.48009e-33        00000 
 3.15077e-35  1.86008e-33        00000 
-1.35326e-35 -1.30169e-33        00000 
 3.30813e-36  8.51466e-34        00000 
 1.42480e-36 -5.23839e-34        00000 
-3.00108e-36  3.10452e-34        00000 
 3.23069e-36 -1.93240e-34        00000 
-3.19067e-36  1.56233e-34        00000 
 6.44959e-38  2.04682e-37        00000 
-1.10841e-37 -3.89949e-37        00000 
 3.03674e-37  1.21513e-36        00000 
-8.49190e-37 -3.77950e-36        00000 
 2.25862e-36  1.10756e-35        00000 
-5.65591e-36 -3.04007e-35        00000 
 1.32857e-35  7.80175e-35        00000 
-2.91938e-35 -1.86918e-34        00000 
 5.98662e-35  4.17530e-34        00000 
-1.14326e-34 -8.68567e-34        00000 
 2.02945e-34  1.68106e-33        00000 
-3.34323e-34 -3.02482e-33        00000 
 5.10327e-34  5.05702e-33        00000 
-7.20762e-34 -7.85206e-33        00000 
 9.40476e-34  1.13198e-32        00000 
-1.13190e-33 -1.51486e-32        00000 
 1.25411e-33  1.88169e-32        00000 
-1.27614e-33 -2.16941e-32        00000 
 1.18879e-33  2.32150e-32        00000 
-1.00929e-33 -2.30600e-32        00000 
 7.75721e-34  2.12648e-32        00000 
-5.33860e-34 -1.82075e-32        00000 
 3.22564e-34  1.44787e-32        00000 
-1.64095e-34 -1.06968e-32        00000 
 6.23974e-35  7.34681e-33        00000 
-7.98761e-36 -4.69839e-33        00000 
-1.44950e-35  2.81321e-33        00000 
 1.98783e-35 -1.61288e-33        00000 
-1.90282e-35  9.66487e-34        00000 
 1.80995e-35 -7.64836e-34        00000 
-2.27882e-37 -6.33064e-37        00000 
 4.06772e-37  1.27826e-36        00000 
-1.17433e-36 -4.27416e-36        00000 
 3.44423e-36  1.41210e-35        00000 
-9.59307e-36 -4.37696e-35        00000 
 2.51267e-35  1.26687e-34        00000 
-6.16373e-35 -3.41800e-34        00000 
 1.41143e-34  8.58217e-34        00000 
-3.00839e-34 -2.00238e-33        00000 
 5.95355e-34  4.33550e-33        00000 
-1.09152e-33 -8.70126e-33        00000 
 1.85038e-33  1.61726e-32        00000 
-2.89534e-33 -2.78185e-32        00000 
 4.17471e-33  4.42608e-32        00000 
-5.53751e-33 -6.51156e-32        00000 
 6.74482e-33  8.85597e-32        00000 
-7.52776e-33 -1.11333e-31        00000 
 7.67771e-33  1.29369e-31        00000 
-7.13009e-33 -1.38954e-31        00000 
 5.99797e-33  1.37968e-31        00000 
-4.53415e-33 -1.26653e-31        00000 
 3.03924e-33  1.07515e-31        00000 
-1.76123e-33 -8.44204e-32        00000 
 8.32485e-34  6.13371e-32        00000 
-2.63559e-34 -4.12639e-32        00000 
-1.85216e-35  2.57404e-32        00000 
 1.17391e-34 -1.49618e-32        00000 
-1.26231e-34  8.27381e-33        00000 
 1.09035e-34 -4.75397e-33        00000 
-9.98794e-35  3.67129e-33        00000 
 7.70296e-37  1.80435e-36        00000 
-1.43116e-36 -3.90740e-36        00000 
 4.36273e-36  1.41580e-35        00000 
-1.34552e-35 -5.00548e-35        00000 
 3.93698e-35  1.65184e-34        00000 
-1.08247e-34 -5.07181e-34        00000 
 2.78367e-34  1.44664e-33        00000 
-6.66904e-34 -3.82678e-33        00000 
 1.48334e-33  9.37213e-33        00000 
-3.05367e-33 -2.12177e-32        00000 
 5.80310e-33  4.43434e-32        00000 
-1.01567e-32 -8.54588e-32        00000 
 1.63384e-32  1.51746e-31        00000 
-2.41100e-32 -2.48110e-31        00000 
 3.25756e-32  3.73387e-31        00000 
-4.02165e-32 -5.17071e-31        00000 
 4.52576e-32  6.58813e-31        00000 
-4.62844e-32 -7.72288e-31        00000 
 4.28385e-32  8.32950e-31        00000 
-3.56668e-32 -8.26656e-31        00000 
 2.64594e-32  7.55035e-31        00000 
-1.72016e-32 -6.34807e-31        00000 
 9.47924e-33  4.91454e-31        00000 
-4.06779e-33 -3.50491e-31        00000 
 9.32023e-34  2.30415e-31        00000 
 4.76985e-34 -1.39823e-31        00000 
-8.52871e-34  7.86619e-32        00000 
 7.73846e-34 -4.18162e-32        00000 
-6.07773e-34  2.29352e-32        00000 
 5.35340e-34 -1.72235e-32        00000 
-2.48086e-36 -4.60920e-36        00000 
 4.80631e-36  1.09256e-35        00000 
-1.54973e-35 -4.35583e-35        00000 
 5.03829e-35  1.66510e-34        00000 
-1.55362e-34 -5.89987e-34        00000 
 4.50087e-34  1.93585e-33        00000 
-1.21842e-33 -5.87677e-33        00000 
 3.06750e-33  1.64802e-32        00000 
-7.15171e-33 -4.26143e-32        00000 
 1.53831e-32  1.01423e-31        00000 
-3.04287e-32 -2.21829e-31        00000 
 5.51967e-32  4.45271e-31        00000 
-9.15953e-32 -8.19432e-31        00000 
 1.38738e-31  1.38154e-30        00000 
-1.91398e-31 -2.13284e-30        00000 
 2.39934e-31  3.01419e-30        00000 
-2.72574e-31 -3.89881e-30        00000 
 2.79651e-31  4.61564e-30        00000 
-2.57881e-31 -5.00141e-30        00000 
 2.12227e-31  4.96099e-30        00000 
-1.54080e-31 -4.50547e-30        00000 
 9.66345e-32  3.74733e-30        00000 
-5.00460e-32 -2.85540e-30        00000 
 1.87593e-32  1.99430e-30        00000 
-1.82116e-33 -1.27764e-30        00000 
-4.82769e-33  7.51814e-31        00000 
 5.78879e-33 -4.07926e-31        00000 
-4.59392e-33  2.07651e-31        00000 
 3.29088e-33 -1.08169e-31        00000 
-2.77943e-33  7.86648e-32        00000 
 7.58130e-36  9.95987e-36        00000 
-1.53366e-35 -2.70060e-35        00000 
 5.23702e-35  1.21833e-34        00000 
-1.79858e-34 -5.11812e-34        00000 
 5.86272e-34  1.97027e-33        00000 
-1.79636e-33 -6.97495e-33        00000 
 5.14165e-33  2.27240e-32        00000 
-1.36690e-32 -6.80673e-32        00000 
 3.35746e-32  1.87134e-31        00000 
-7.58412e-32 -4.71271e-31        00000 
 1.56916e-31  1.08514e-30        00000 
-2.96353e-31 -2.28091e-30        00000 
 5.09382e-31  4.37110e-30        00000 
-7.94739e-31 -7.63031e-30        00000 
 1.12269e-30  1.21255e-29        00000 
-1.43220e-30 -1.75350e-29        00000 
 1.64485e-30  2.30722e-29        00000 
-1.69399e-30 -2.76208e-29        00000 
 1.55583e-30  3.00873e-29        00000 
-1.26361e-30 -2.98260e-29        00000 
 8.94752e-31  2.69133e-29        00000 
-5.37599e-31 -2.21124e-29        00000 
 2.57223e-31  1.65493e-29        00000 
-7.82275e-32 -1.12888e-29        00000 
-1.06982e-32  7.02446e-30        00000 
 3.91567e-32 -3.99286e-30        00000 
-3.73536e-32  2.08075e-30        00000 
 2.64225e-32 -1.00968e-30        00000 
-1.72635e-32  4.96697e-31        00000 
 1.39236e-32 -3.48113e-31        00000 
-2.18935e-35 -1.52615e-35        00000 
 4.62842e-35  5.46299e-35        00000 
-1.67470e-34 -2.98041e-34        00000 
 6.08567e-34  1.41843e-33        00000 
-2.10252e-33 -6.04506e-33        00000 
 6.83839e-33  2.34031e-32        00000 
-2.07890e-32 -8.27204e-32        00000 
 5.86649e-32  2.67173e-31        00000 
-1.52675e-31 -7.87653e-31        00000 
 3.64301e-31  2.11545e-30        00000 
-7.92948e-31 -5.16519e-30        00000 
 1.56764e-30  1.14434e-29        00000 
-2.80465e-30 -2.29691e-29        00000 
 4.52645e-30  4.17212e-29        00000 
-6.57054e-30 -6.85287e-29        00000 
 8.55245e-30  1.01743e-28        00000 
-9.94729e-30 -1.36510e-28        00000 
 1.02915e-29  1.65519e-28        00000 
-9.41039e-30 -1.81385e-28        00000 
 7.52824e-30  1.79683e-28        00000 
-5.17672e-30 -1.60946e-28        00000 
 2.95194e-30  1.30402e-28        00000 
-1.27082e-30 -9.56156e-29        00000 
 2.61534e-31  6.34918e-29        00000 
 1.85954e-31 -3.82195e-29        00000 
-2.84892e-31  2.08892e-29        00000 
 2.30922e-31 -1.04024e-29        00000 
-1.47009e-31  4.78646e-30        00000 
 8.73889e-32 -2.20944e-30        00000 
-6.69442e-32  1.48392e-30        00000 
 5.95176e-35 -4.03281e-37        00000 
-1.31506e-34 -6.78392e-35        00000 
 5.04075e-34  5.81952e-34        00000 
-1.93988e-33 -3.38478e-33        00000 
 7.11772e-33  1.65627e-32        00000 
-2.46525e-32 -7.16810e-32        00000 
 7.99486e-32  2.79188e-31        00000 
-2.40787e-31 -9.84472e-31        00000 
 6.68113e-31  3.14597e-30        00000 
-1.69530e-30 -9.09901e-30        00000 
 3.90829e-30  2.37682e-29        00000 
-8.14074e-30 -5.59497e-29        00000 
 1.52499e-29  1.18462e-28        00000 
-2.55914e-29 -2.25278e-28        00000 
 3.83359e-29  3.84424e-28        00000 
-5.10819e-29 -5.88335e-28        00000 
 6.03014e-29  8.07353e-28        00000 
-6.27357e-29 -9.93409e-28        00000 
 5.70852e-29  1.09618e-27        00000 
-4.48761e-29 -1.08499e-27        00000 
 2.98013e-29  9.63637e-28        00000 
-1.59184e-29 -7.68295e-28        00000 
 5.89387e-30  5.50212e-28        00000 
-3.19641e-31 -3.54231e-28        00000 
-1.78291e-30  2.05274e-28        00000 
 1.93151e-30 -1.07275e-28        00000 
-1.37093e-30  5.07391e-29        00000 
 7.88375e-31 -2.20000e-29        00000 
-4.24482e-31  9.46124e-30        00000 
 3.06771e-31 -6.04994e-30        00000 
-1.51778e-34  1.23504e-34        00000 
 3.50279e-34 -8.77116e-35        00000 
-1.42071e-33 -6.12764e-34        00000 
 5.78984e-33  6.18246e-33        00000 
-2.25855e-32 -3.83270e-32        00000 
 8.34988e-32  1.93876e-31        00000 
-2.89985e-31 -8.53917e-31        00000 
 9.37132e-31  3.34722e-30        00000 
-2.79086e-30 -1.17618e-29        00000 
 7.58783e-30  3.70914e-29        00000 
-1.86748e-29 -1.04816e-28        00000 
 4.13047e-29  2.64799e-28        00000 
-8.16073e-29 -5.96697e-28        00000 
 1.43312e-28  1.19718e-27        00000 
-2.22729e-28 -2.13602e-27        00000 
 3.05068e-28  3.38692e-27        00000 
-3.66530e-28 -4.77143e-27        00000 