<?xml version="1.0" encoding="utf-8"?>
<VTKFile byte_order="LittleEndian" type="UnstructuredGrid" version="0.1">
   <UnstructuredGrid>
      <Piece NumberOfCells="3364" NumberOfPoints="1741">
         <Points>
            <DataArray Name="Points" NumberOfComponents="3" format="ascii" type="Float32">
0.0000 1.0000 0.0000
0.0000 1.0345 0.0000
0.0000 1.0690 0.0000
0.0000 1.1034 0.0000
0.0000 1.1379 0.0000
0.0000 1.1724 0.0000
0.0000 1.2069 0.0000
0.0000 1.2414 0.0000
0.0000 1.2759 0.0000
0.0000 1.3103 0.0000
0.0000 1.3448 0.0000
0.0000 1.3793 0.0000
0.0000 1.4138 0.0000
0.0000 1.4483 0.0000
0.0000 1.4828 0.0000
0.0000 1.5172 0.0000
0.0000 1.5517 0.0000
0.0000 1.5862 0.0000
0.0000 1.6207 0.0000
0.0000 1.6552 0.0000
0.0000 1.6897 0.0000
0.0000 1.7241 0.0000
0.0000 1.7586 0.0000
0.0000 1.7931 0.0000
0.0000 1.8276 0.0000
0.0000 1.8621 0.0000
0.0000 1.8966 0.0000
0.0000 1.9310 0.0000
0.0000 1.9655 0.0000
0.0000 2.0000 0.0000
0.0690 1.0000 0.0000
0.0690 1.0345 0.0000
0.0690 1.0690 0.0000
0.0690 1.1034 0.0000
0.0690 1.1379 0.0000
0.0690 1.1724 0.0000
0.0690 1.2069 0.0000
0.0690 1.2414 0.0000
0.0690 1.2759 0.0000
0.0690 1.3103 0.0000
0.0690 1.3448 0.0000
0.0690 1.3793 0.0000
0.0690 1.4138 0.0000
0.0690 1.4483 0.0000
0.0690 1.4828 0.0000
0.0690 1.5172 0.0000
0.0690 1.5517 0.0000
0.0690 1.5862 0.0000
0.0690 1.6207 0.0000
0.0690 1.6552 0.0000
0.0690 1.6897 0.0000
0.0690 1.7241 0.0000
0.0690 1.7586 0.0000
0.0690 1.7931 0.0000
0.0690 1.8276 0.0000
0.0690 1.8621 0.0000
0.0690 1.8966 0.0000
0.0690 1.9310 0.0000
0.0690 1.9655 0.0000
0.0690 2.0000 0.0000
0.1379 1.0000 0.0000
0.1379 1.0345 0.0000
0.1379 1.0690 0.0000
0.1379 1.1034 0.0000
0.1379 1.1379 0.0000
0.1379 1.1724 0.0000
0.1379 1.2069 0.0000
0.1379 1.2414 0.0000
0.1379 1.2759 0.0000
0.1379 1.3103 0.0000
0.1379 1.3448 0.0000
0.1379 1.3793 0.0000
0.1379 1.4138 0.0000
0.1379 1.4483 0.0000
0.1379 1.4828 0.0000
0.1379 1.5172 0.0000
0.1379 1.5517 0.0000
0.1379 1.5862 0.0000
0.1379 1.6207 0.0000
0.1379 1.6552 0.0000
0.1379 1.6897 0.0000
0.1379 1.7241 0.0000
0.1379 1.7586 0.0000
0.1379 1.7931 0.0000
0.1379 1.8276 0.0000
0.1379 1.8621 0.0000
0.1379 1.8966 0.0000
0.1379 1.9310 0.0000
0.1379 1.9655 0.0000
0.1379 2.0000 0.0000
0.2069 1.0000 0.0000
0.2069 1.0345 0.0000
0.2069 1.0690 0.0000
0.2069 1.1034 0.0000
0.2069 1.1379 0.0000
0.2069 1.1724 0.0000
0.2069 1.2069 0.0000
0.2069 1.2414 0.0000
0.2069 1.2759 0.0000
0.2069 1.3103 0.0000
0.2069 1.3448 0.0000
0.2069 1.3793 0.0000
0.2069 1.4138 0.0000
0.2069 1.4483 0.0000
0.2069 1.4828 0.0000
0.2069 1.5172 0.0000
0.2069 1.5517 0.0000
0.2069 1.5862 0.0000
0.2069 1.6207 0.0000
0.2069 1.6552 0.0000
0.2069 1.6897 0.0000
0.2069 1.7241 0.0000
0.2069 1.7586 0.0000
0.2069 1.7931 0.0000
0.2069 1.8276 0.0000
0.2069 1.8621 0.0000
0.2069 1.8966 0.0000
0.2069 1.9310 0.0000
0.2069 1.9655 0.0000
0.2069 2.0000 0.0000
0.2759 1.0000 0.0000
0.2759 1.0345 0.0000
0.2759 1.0690 0.0000
0.2759 1.1034 0.0000
0.2759 1.1379 0.0000
0.2759 1.1724 0.0000
0.2759 1.2069 0.0000
0.2759 1.2414 0.0000
0.2759 1.2759 0.0000
0.2759 1.3103 0.0000
0.2759 1.3448 0.0000
0.2759 1.3793 0.0000
0.2759 1.4138 0.0000
0.2759 1.4483 0.0000
0.2759 1.4828 0.0000
0.2759 1.5172 0.0000
0.2759 1.5517 0.0000
0.2759 1.5862 0.0000
0.2759 1.6207 0.0000
0.2759 1.6552 0.0000
0.2759 1.6897 0.0000
0.2759 1.7241 0.0000
0.2759 1.7586 0.0000
0.2759 1.7931 0.0000
0.2759 1.8276 0.0000
0.2759 1.8621 0.0000
0.2759 1.8966 0.0000
0.2759 1.9310 0.0000
0.2759 1.9655 0.0000
0.2759 2.0000 0.0000
0.3448 1.0000 0.0000
0.3448 1.0345 0.0000
0.3448 1.0690 0.0000
0.3448 1.1034 0.0000
0.3448 1.1379 0.0000
0.3448 1.1724 0.0000
0.3448 1.2069 0.0000
0.3448 1.2414 0.0000
0.3448 1.2759 0.0000
0.3448 1.3103 0.0000
0.3448 1.3448 0.0000
0.3448 1.3793 0.0000
0.3448 1.4138 0.0000
0.3448 1.4483 0.0000
0.3448 1.4828 0.0000
0.3448 1.5172 0.0000
0.3448 1.5517 0.0000
0.3448 1.5862 0.0000
0.3448 1.6207 0.0000
0.3448 1.6552 0.0000
0.3448 1.6897 0.0000
0.3448 1.7241 0.0000
0.3448 1.7586 0.0000
0.3448 1.7931 0.0000
0.3448 1.8276 0.0000
0.3448 1.8621 0.0000
0.3448 1.8966 0.0000
0.3448 1.9310 0.0000
0.3448 1.9655 0.0000
0.3448 2.0000 0.0000
0.4138 1.0000 0.0000
0.4138 1.0345 0.0000
0.4138 1.0690 0.0000
0.4138 1.1034 0.0000
0.4138 1.1379 0.0000
0.4138 1.1724 0.0000
0.4138 1.2069 0.0000
0.4138 1.2414 0.0000
0.4138 1.2759 0.0000
0.4138 1.3103 0.0000
0.4138 1.3448 0.0000
0.4138 1.3793 0.0000
0.4138 1.4138 0.0000
0.4138 1.4483 0.0000
0.4138 1.4828 0.0000
0.4138 1.5172 0.0000
0.4138 1.5517 0.0000
0.4138 1.5862 0.0000
0.4138 1.6207 0.0000
0.4138 1.6552 0.0000
0.4138 1.6897 0.0000
0.4138 1.7241 0.0000
0.4138 1.7586 0.0000
0.4138 1.7931 0.0000
0.4138 1.8276 0.0000
0.4138 1.8621 0.0000
0.4138 1.8966 0.0000
0.4138 1.9310 0.0000
0.4138 1.9655 0.0000
0.4138 2.0000 0.0000
0.4828 1.0000 0.0000
0.4828 1.0345 0.0000
0.4828 1.0690 0.0000
0.4828 1.1034 0.0000
0.4828 1.1379 0.0000
0.4828 1.1724 0.0000
0.4828 1.2069 0.0000
0.4828 1.2414 0.0000
0.4828 1.2759 0.0000
0.4828 1.3103 0.0000
0.4828 1.3448 0.0000
0.4828 1.3793 0.0000
0.4828 1.4138 0.0000
0.4828 1.4483 0.0000
0.4828 1.4828 0.0000
0.4828 1.5172 0.0000
0.4828 1.5517 0.0000
0.4828 1.5862 0.0000
0.4828 1.6207 0.0000
0.4828 1.6552 0.0000
0.4828 1.6897 0.0000
0.4828 1.7241 0.0000
0.4828 1.7586 0.0000
0.4828 1.7931 0.0000
0.4828 1.8276 0.0000
0.4828 1.8621 0.0000
0.4828 1.8966 0.0000
0.4828 1.9310 0.0000
0.4828 1.9655 0.0000
0.4828 2.0000 0.0000
0.5517 1.0000 0.0000
0.5517 1.0345 0.0000
0.5517 1.0690 0.0000
0.5517 1.1034 0.0000
0.5517 1.1379 0.0000
0.5517 1.1724 0.0000
0.5517 1.2069 0.0000
0.5517 1.2414 0.0000
0.5517 1.2759 0.0000
0.5517 1.3103 0.0000
0.5517 1.3448 0.0000
0.5517 1.3793 0.0000
0.5517 1.4138 0.0000
0.5517 1.4483 0.0000
0.5517 1.4828 0.0000
0.5517 1.5172 0.0000
0.5517 1.5517 0.0000
0.5517 1.5862 0.0000
0.5517 1.6207 0.0000
0.5517 1.6552 0.0000
0.5517 1.6897 0.0000
0.5517 1.7241 0.0000
0.5517 1.7586 0.0000
0.5517 1.7931 0.0000
0.5517 1.8276 0.0000
0.5517 1.8621 0.0000
0.5517 1.8966 0.0000
0.5517 1.9310 0.0000
0.5517 1.9655 0.0000
0.5517 2.0000 0.0000
0.6207 1.0000 0.0000
0.6207 1.0345 0.0000
0.6207 1.0690 0.0000
0.6207 1.1034 0.0000
0.6207 1.1379 0.0000
0.6207 1.1724 0.0000
0.6207 1.2069 0.0000
0.6207 1.2414 0.0000
0.6207 1.2759 0.0000
0.6207 1.3103 0.0000
0.6207 1.3448 0.0000
0.6207 1.3793 0.0000
0.6207 1.4138 0.0000
0.6207 1.4483 0.0000
0.6207 1.4828 0.0000
0.6207 1.5172 0.0000
0.6207 1.5517 0.0000
0.6207 1.5862 0.0000
0.6207 1.6207 0.0000
0.6207 1.6552 0.0000
0.6207 1.6897 0.0000
0.6207 1.7241 0.0000
0.6207 1.7586 0.0000
0.6207 1.7931 0.0000
0.6207 1.8276 0.0000
0.6207 1.8621 0.0000
0.6207 1.8966 0.0000
0.6207 1.9310 0.0000
0.6207 1.9655 0.0000
0.6207 2.0000 0.0000
0.6897 1.0000 0.0000
0.6897 1.0345 0.0000
0.6897 1.0690 0.0000
0.6897 1.1034 0.0000
0.6897 1.1379 0.0000
0.6897 1.1724 0.0000
0.6897 1.2069 0.0000
0.6897 1.2414 0.0000
0.6897 1.2759 0.0000
0.6897 1.3103 0.0000
0.6897 1.3448 0.0000
0.6897 1.3793 0.0000
0.6897 1.4138 0.0000
0.6897 1.4483 0.0000
0.6897 1.4828 0.0000
0.6897 1.5172 0.0000
0.6897 1.5517 0.0000
0.6897 1.5862 0.0000
0.6897 1.6207 0.0000
0.6897 1.6552 0.0000
0.6897 1.6897 0.0000
0.6897 1.7241 0.0000
0.6897 1.7586 0.0000
0.6897 1.7931 0.0000
0.6897 1.8276 0.0000
0.6897 1.8621 0.0000
0.6897 1.8966 0.0000
0.6897 1.9310 0.0000
0.6897 1.9655 0.0000
0.6897 2.0000 0.0000
0.7586 1.0000 0.0000
0.7586 1.0345 0.0000
0.7586 1.0690 0.0000
0.7586 1.1034 0.0000
0.7586 1.1379 0.0000
0.7586 1.1724 0.0000
0.7586 1.2069 0.0000
0.7586 1.2414 0.0000
0.7586 1.2759 0.0000
0.7586 1.3103 0.0000
0.7586 1.3448 0.0000
0.7586 1.3793 0.0000
0.7586 1.4138 0.0000
0.7586 1.4483 0.0000
0.7586 1.4828 0.0000
0.7586 1.5172 0.0000
0.7586 1.5517 0.0000
0.7586 1.5862 0.0000
0.7586 1.6207 0.0000
0.7586 1.6552 0.0000
0.7586 1.6897 0.0000
0.7586 1.7241 0.0000
0.7586 1.7586 0.0000
0.7586 1.7931 0.0000
0.7586 1.8276 0.0000
0.7586 1.8621 0.0000
0.7586 1.8966 0.0000
0.7586 1.9310 0.0000
0.7586 1.9655 0.0000
0.7586 2.0000 0.0000
0.8276 1.0000 0.0000
0.8276 1.0345 0.0000
0.8276 1.0690 0.0000
0.8276 1.1034 0.0000
0.8276 1.1379 0.0000
0.8276 1.1724 0.0000
0.8276 1.2069 0.0000
0.8276 1.2414 0.0000
0.8276 1.2759 0.0000
0.8276 1.3103 0.0000
0.8276 1.3448 0.0000
0.8276 1.3793 0.0000
0.8276 1.4138 0.0000
0.8276 1.4483 0.0000
0.8276 1.4828 0.0000
0.8276 1.5172 0.0000
0.8276 1.5517 0.0000
0.8276 1.5862 0.0000
0.8276 1.6207 0.0000
0.8276 1.6552 0.0000
0.8276 1.6897 0.0000
0.8276 1.7241 0.0000
0.8276 1.7586 0.0000
0.8276 1.7931 0.0000
0.8276 1.8276 0.0000
0.8276 1.8621 0.0000
0.8276 1.8966 0.0000
0.8276 1.9310 0.0000
0.8276 1.9655 0.0000
0.8276 2.0000 0.0000
0.8966 1.0000 0.0000
0.8966 1.0345 0.0000
0.8966 1.0690 0.0000
0.8966 1.1034 0.0000
0.8966 1.1379 0.0000
0.8966 1.1724 0.0000
0.8966 1.2069 0.0000
0.8966 1.2414 0.0000
0.8966 1.2759 0.0000
0.8966 1.3103 0.0000
0.8966 1.3448 0.0000
0.8966 1.3793 0.0000
0.8966 1.4138 0.0000
0.8966 1.4483 0.0000
0.8966 1.4828 0.0000
0.8966 1.5172 0.0000
0.8966 1.5517 0.0000
0.8966 1.5862 0.0000
0.8966 1.6207 0.0000
0.8966 1.6552 0.0000
0.8966 1.6897 0.0000
0.8966 1.7241 0.0000
0.8966 1.7586 0.0000
0.8966 1.7931 0.0000
0.8966 1.8276 0.0000
0.8966 1.8621 0.0000
0.8966 1.8966 0.0000
0.8966 1.9310 0.0000
0.8966 1.9655 0.0000
0.8966 2.0000 0.0000
0.9655 1.0000 0.0000
0.9655 1.0345 0.0000
0.9655 1.0690 0.0000
0.9655 1.1034 0.0000
0.9655 1.1379 0.0000
0.9655 1.1724 0.0000
0.9655 1.2069 0.0000
0.9655 1.2414 0.0000
0.9655 1.2759 0.0000
0.9655 1.3103 0.0000
0.9655 1.3448 0.0000
0.9655 1.3793 0.0000
0.9655 1.4138 0.0000
0.9655 1.4483 0.0000
0.9655 1.4828 0.0000
0.9655 1.5172 0.0000
0.9655 1.5517 0.0000
0.9655 1.5862 0.0000
0.9655 1.6207 0.0000
0.9655 1.6552 0.0000
0.9655 1.6897 0.0000
0.9655 1.7241 0.0000
0.9655 1.7586 0.0000
0.9655 1.7931 0.0000
0.9655 1.8276 0.0000
0.9655 1.8621 0.0000
0.9655 1.8966 0.0000
0.9655 1.9310 0.0000
0.9655 1.9655 0.0000
0.9655 2.0000 0.0000
1.0345 1.0000 0.0000
1.0345 1.0345 0.0000
1.0345 1.0690 0.0000
1.0345 1.1034 0.0000
1.0345 1.1379 0.0000
1.0345 1.1724 0.0000
1.0345 1.2069 0.0000
1.0345 1.2414 0.0000
1.0345 1.2759 0.0000
1.0345 1.3103 0.0000
1.0345 1.3448 0.0000
[...]
         <PointData>
            <DataArray Name="fValues" NumberOfComponents="3" format="ascii" type="Float64">
 1.48101e-20  3.91387e-21        00000 
-7.80013e-20  5.36054e-21        00000 
 8.32578e-19  5.95407e-20        00000 
-7.68053e-18 -1.46296e-18        00000 
 4.07533e-17  8.73285e-18        00000 
-5.26748e-17  2.07421e-17        00000 
 1.74657e-17 -2.91095e-18        00000 
-2.92592e-18  1.82870e-19        00000 
 4.07124e-19 -2.69227e-20        00000 
-4.02645e-20 -1.39897e-20        00000 
 6.23275e-21  1.36900e-21        00000 
-1.04205e-21 -1.73366e-22        00000 
 1.71950e-22  2.44453e-23        00000 
-2.77706e-23 -1.31573e-23        00000 
 3.99421e-24  1.60410e-24        00000 
-6.42557e-25 -2.11414e-25        00000 
 1.04817e-25  2.93470e-26        00000 
-1.72271e-26 -4.17531e-27        00000 
 2.84333e-27  6.04002e-28        00000 
-4.70153e-28 -8.91884e-29        00000 
 7.66591e-29  1.32757e-29        00000 
-2.06556e-30 -4.13480e-30        00000 
 8.45764e-31  1.44498e-31        00000 
-1.52089e-31 -2.20408e-33        00000 
 2.62520e-32 -3.16809e-34        00000 
-4.49997e-33  4.81449e-35        00000 
 7.69279e-34 -2.67199e-36        00000 
-1.31359e-34 -5.18173e-37        00000 
 2.30050e-35  2.38149e-37        00000 
-7.60801e-36 -1.13416e-37        00000 
-3.04090e-21 -6.01455e-21        00000 
 2.26288e-20  2.67431e-20        00000 
-3.09632e-19 -1.62964e-19        00000 
 3.25567e-18 -9.76700e-19        00000 
-2.13623e-01 -1.47736e-01        00000 
-2.13623e-01  1.47736e-01        00000 
-1.76159e-17        00000        00000 
 1.95318e-18 -6.51061e-20        00000 
-3.73741e-19  7.31233e-20        00000 
 3.28890e-20  3.31451e-21        00000 
-6.03460e-21 -7.86639e-22        00000 
 9.93677e-22  1.15102e-22        00000 
-1.62056e-22 -1.68417e-23        00000 
 1.96932e-23  6.92543e-24        00000 
-3.60885e-24 -1.00723e-24        00000 
 5.94823e-25  1.48718e-25        00000 
-9.82790e-26 -2.16908e-26        00000 
 1.62725e-26  3.16882e-27        00000 
-2.69495e-27 -4.74953e-28        00000 
 4.47007e-28  7.27910e-29        00000 
-7.31888e-29 -1.08254e-29        00000 
 7.62295e-30 -1.90574e-30        00000 
-9.23073e-31  1.01210e-31        00000 
 1.53953e-31 -5.87993e-33        00000 
-2.62527e-32  3.54104e-34        00000 
 4.48090e-33 -3.11963e-36        00000 
-7.63784e-34 -5.79688e-36        00000 
 1.30111e-34  1.74464e-36        00000 
-2.27411e-35 -4.02088e-37        00000 
 7.50998e-36  1.53673e-37        00000 
-1.80518e-20  7.49457e-21        00000 
 7.74446e-20 -2.46696e-20        00000 
-8.35280e-19  1.54081e-19        00000 
 7.19391e-18 -3.43493e-18        00000 
-2.13623e-01  1.47736e-01        00000 
-2.13623e-01 -1.47736e-01        00000 
 8.42460e-18 -6.45854e-18        00000 
-1.12044e-18  5.70063e-19        00000 
 1.70423e-19 -4.24564e-20        00000 
-3.62621e-20  1.50074e-21        00000 
 5.17637e-21 -1.14446e-22        00000 
-8.16606e-22  4.76989e-24        00000 
 1.31261e-22 -2.88822e-25        00000 
-1.79688e-23  2.55401e-24        00000 
 2.80938e-24  5.45463e-27        00000 
-4.82665e-25 -2.02350e-26        00000 
 8.19317e-26  4.06879e-27        00000 
-1.36736e-26 -9.13724e-28        00000 
 2.28930e-27  1.97626e-28        00000 
-3.83525e-28 -3.39796e-29        00000 
 6.32712e-29  5.35236e-30        00000 
-4.42198e-30  3.21866e-30        00000 
 9.04084e-31 -1.08396e-31        00000 
-1.52930e-31  1.19247e-33        00000 
 2.58998e-32  6.81844e-34        00000 
-4.38455e-33 -1.57650e-34        00000 
 7.41931e-34  2.78921e-35        00000 
-1.25634e-34 -4.59924e-36        00000 
 2.18524e-35  7.59034e-37        00000 
-7.19217e-36 -2.36646e-37        00000 
 2.64492e-20 -5.19447e-21        00000 
-9.70563e-20  1.76326e-20        00000 
 5.99153e-19 -1.04674e-19        00000 
-5.31002e-18  8.99501e-19        00000 
 9.13276e-18 -5.82909e-18        00000 
 2.50570e-18 -5.03444e-18        00000 
-1.20235e-18 -6.22239e-19        00000 
 4.38588e-19 -3.26458e-19        00000 
-7.04363e-20  6.10806e-20        00000 
 1.83391e-20 -3.69219e-21        00000 
-2.99919e-21  6.95866e-22        00000 
 4.91377e-22 -1.12434e-22        00000 
-8.37442e-23  1.70391e-23        00000 
 9.79866e-24 -2.63811e-24        00000 
-2.04476e-24  5.64067e-25        00000 
 3.65757e-25 -1.02091e-25        00000 
-5.89479e-26  1.05723e-26        00000 
 1.01054e-26 -4.04190e-28        00000 
-1.74036e-27  7.12552e-29        00000 
 2.90701e-28 -6.69232e-30        00000 
-4.96455e-29  1.24958e-30        00000 
 4.70003e-30  4.99969e-30        00000 
-8.47552e-31 -2.48385e-31        00000 
 1.46349e-31  2.21829e-32        00000 
-2.45805e-32 -2.61253e-33        00000 
 4.11726e-33  3.44636e-34        00000 
-6.90805e-34 -4.74766e-35        00000 
 1.16250e-34  6.67203e-36        00000 
-2.01287e-35 -9.67447e-37        00000 
 6.60578e-36  2.71762e-37        00000 
-1.93319e-20  1.74208e-21        00000 
 6.13480e-20 -3.55104e-21        00000 
-3.16122e-19  5.42179e-20        00000 
 9.03059e-19 -1.78018e-19        00000 
-7.97466e-19  2.23551e-19        00000 
-5.51771e-20  2.14156e-19        00000 
 7.88183e-20 -4.10535e-19        00000 
 3.75371e-19  2.90156e-19        00000 
-3.09652e-20 -4.78893e-20        00000 
 1.87826e-21  7.54490e-21        00000 
 3.05484e-22 -1.20634e-21        00000 
-1.52131e-22  1.83021e-22        00000 
 4.21016e-23 -2.56844e-23        00000 
-9.05529e-24  4.65986e-24        00000 
 1.81864e-24 -1.49798e-24        00000 
-1.61788e-25  1.34790e-25        00000 
 3.49036e-26  8.30712e-27        00000 
-7.02093e-27  2.14582e-27        00000 
 1.06060e-27 -1.39488e-28        00000 
-1.59967e-28  9.15401e-29        00000 
 5.94780e-29  9.25526e-30        00000 
-5.85791e-30  3.89199e-32        00000 
 8.33108e-31  1.82195e-31        00000 
-1.31493e-31 -2.22044e-32        00000 
 2.15659e-32  2.62040e-33        00000 
-3.58242e-33 -3.21760e-34        00000 
 5.99158e-34  4.08301e-35        00000 
-1.00734e-34 -5.27620e-36        00000 
 1.74478e-35  6.96689e-37        00000 
-5.73111e-36 -1.77405e-37        00000 
 9.67829e-21 -9.65937e-22        00000 
-2.29138e-20  3.39711e-21        00000 
 6.87773e-20 -1.27207e-20        00000 
-1.18618e-19  2.52779e-20        00000 
 1.03041e-19 -1.88028e-20        00000 
-3.09855e-20 -2.48423e-20        00000 
 1.06662e-20  5.30383e-20        00000 
-2.76592e-20 -4.30058e-20        00000 
 1.82686e-20  1.78676e-20        00000 
-2.74081e-21 -3.84914e-21        00000 
 2.92040e-22  7.15333e-22        00000 
-6.97653e-24 -1.25552e-22        00000 
-7.20078e-24  2.09572e-23        00000 
 2.70359e-24 -3.44932e-24        00000 
-6.80725e-25  6.42929e-25        00000 
 1.37004e-25 -1.29726e-25        00000 
-2.10617e-26  1.73331e-26        00000 
 3.87245e-27 -1.76617e-27        00000 
-7.18900e-28  3.20354e-28        00000 
 1.22368e-28 -4.95521e-29        00000 
-9.99499e-30  6.64533e-30        00000 
 3.51959e-30 -2.96665e-31        00000 
-5.94383e-31  4.35486e-32        00000 
 9.83882e-32  7.98682e-36        00000 
-1.64521e-32 -2.60821e-34        00000 
 2.77486e-33  3.68309e-35        00000 
-4.70113e-34 -3.05656e-36        00000 
 7.99118e-35 -3.48248e-38        00000 
-1.39781e-35  9.48866e-38        00000 
 4.62735e-36 -5.40272e-38        00000 
-3.28653e-21  4.73972e-22        00000 
 5.70213e-21 -9.61799e-22        00000 
-1.18332e-20  2.28609e-21        00000 
 1.66823e-20 -3.29211e-21        00000 
-1.27747e-20  2.05974e-21        00000 
 7.66056e-21  3.41738e-21        00000 
-3.78937e-21 -7.04215e-21        00000 
 3.56668e-21  6.49162e-21        00000 
-2.77624e-21 -3.59061e-21        00000 
 1.10718e-21  1.26401e-21        00000 
-2.14501e-22 -3.05980e-22        00000 
 3.02083e-23  6.33606e-23        00000 
-2.59377e-24 -1.20972e-23        00000 
-1.74085e-25  2.19414e-24        00000 
 1.52141e-25 -3.93075e-25        00000 
-4.64002e-26  7.30245e-26        00000 
 1.04793e-26 -1.34284e-26        00000 
-1.99928e-27  2.13851e-27        00000 
 3.83570e-28 -3.16591e-28        00000 
-7.10489e-29  5.04296e-29        00000 
 2.82628e-30 -2.69807e-30        00000 
-1.11298e-30  7.41010e-31        00000 
 2.90428e-31 -1.08383e-31        00000 
-5.73201e-32  1.59436e-32        00000 
 1.04724e-32 -2.15432e-33        00000 
-1.86128e-33  3.01309e-34        00000 
 3.26885e-34 -4.43039e-35        00000 
-5.70894e-35  6.78836e-36        00000 
 1.02109e-35 -1.09704e-36        00000 
-3.43692e-36  3.43658e-37        00000 
 8.37086e-22 -1.38543e-22        00000 
-1.17802e-21  2.10419e-22        00000 
 1.94396e-21 -3.69959e-22        00000 
-2.40853e-21  4.35840e-22        00000 
 2.07238e-21 -1.66451e-22        00000 
-1.38766e-21 -4.92876e-22        00000 
 8.41892e-22  9.82395e-22        00000 
-5.99432e-22 -9.79928e-22        00000 
 4.41853e-22  6.40022e-22        00000 
-2.29471e-22 -2.91026e-22        00000 
 7.66028e-23  9.58618e-23        00000 
-1.67195e-23 -2.45994e-23        00000 
 2.80682e-24  5.48653e-24        00000 
-3.52829e-25 -1.12507e-24        00000 
 1.85612e-26  2.19884e-25        00000 
 6.87774e-27 -4.20414e-26        00000 
-2.97592e-27  7.99702e-27        00000 
 7.90528e-28 -1.47432e-27        00000 
-1.71727e-28  2.56848e-28        00000 
 3.27151e-29 -4.22345e-29        00000 
-5.78827e-30  6.03013e-30        00000 
 6.89991e-31 -8.43429e-31        00000 
-1.33157e-31  1.36172e-31        00000 
 2.83570e-32 -2.13033e-32        00000 
-5.67818e-33  3.29605e-33        00000 
 1.08327e-33 -5.02125e-34        00000 
-2.00624e-34  7.66392e-35        00000 
 3.65093e-35 -1.18187e-35        00000 
-6.75684e-36  1.88767e-36        00000 
 2.33289e-36 -5.80536e-37        00000 
-1.67168e-22  3.74650e-23        00000 
 2.07329e-22 -4.55264e-23        00000 
-3.16725e-22  6.25505e-23        00000 
 3.66152e-22 -6.96302e-23        00000 
-3.84673e-22 -1.16506e-24        00000 
 2.80470e-22  9.49941e-23        00000 
-1.95106e-22 -1.60310e-22        00000 
 1.22126e-22  1.52520e-22        00000 
-7.82658e-23 -1.11807e-22        00000 
 4.31950e-23  5.84400e-23        00000 
-1.85059e-23 -2.36645e-23        00000 
 5.89625e-24  7.77795e-24        00000 
-1.51627e-24 -2.06615e-24        00000 
 2.95763e-25  5.14671e-25        00000 
-2.71880e-26 -1.14966e-25        00000 
 2.43875e-27  2.46237e-26        00000 
 3.92677e-28 -4.63095e-27        00000 
-2.84661e-28  9.79798e-28        00000 
 1.60948e-29 -1.60668e-28        00000 
-7.55588e-30  3.53927e-29        00000 
 1.29191e-30 -5.20750e-30        00000 
-3.85965e-31  8.28706e-31        00000 
 7.03891e-32 -1.30017e-31        00000 
-1.37917e-32  2.08805e-32        00000 
 2.81319e-33 -3.35390e-33        00000 
-5.64432e-34  5.36759e-34        00000 
 1.10159e-34 -8.54739e-35        00000 
-2.10063e-35  1.35990e-35        00000 
 4.05373e-36 -2.21978e-36        00000 
-1.44525e-36  6.91674e-37        00000 
 3.33077e-23 -7.30697e-24        00000 
-3.91837e-23  8.25750e-24        00000 
 5.14170e-23 -9.91247e-24        00000 
-6.02138e-23  7.76280e-24        00000 
 5.63155e-23  2.76810e-24        00000 
-4.83077e-23 -1.47563e-23        00000 
 3.42300e-23  2.35451e-23        00000 
-2.25347e-23 -2.41461e-23        00000 
 1.41468e-23  1.87947e-23        00000 
-8.05339e-24 -1.10111e-23        00000 
 3.87838e-24  5.14259e-24        00000 
-1.50278e-24 -1.96121e-24        00000 
 4.67467e-25  6.25595e-25        00000 
-1.18711e-25 -1.72463e-25        00000 
 2.33861e-26  4.35091e-26        00000 
-3.31712e-27 -1.01049e-26        00000 
 3.81136e-28  2.20120e-27        00000 
-6.80050e-30 -4.51949e-28        00000 
-9.27848e-30  9.16337e-29        00000 
 1.70642e-30 -1.74302e-29        00000 
-5.10819e-31  3.39966e-30        00000 
 1.20005e-31 -5.88097e-31        00000 
-3.01777e-32  9.97339e-32        00000 
 6.36047e-33 -1.66640e-32        00000 
-1.31441e-33  2.77618e-33        00000 
 2.71242e-34 -4.60650e-34        00000 
-5.51509e-35  7.60820e-35        00000 
 1.09921e-35 -1.25173e-35        00000 
-2.21716e-36  2.10482e-36        00000 
 8.19201e-37 -6.70849e-37        00000 
-6.36379e-24  1.35146e-24        00000 
 7.07940e-24 -1.43972e-24        00000 
-8.62110e-24  1.47206e-24        00000 
 9.62709e-24 -8.66973e-25        00000 
-8.94450e-24 -7.82056e-25        00000 
 7.94092e-24  2.35943e-24        00000 
-5.97791e-24 -3.58588e-24        00000 
 4.04946e-24  3.79408e-24        00000 
-2.51773e-24 -3.07895e-24        00000 
 1.49635e-24  1.98549e-24        00000 
-7.72510e-25 -1.03430e-24        00000 
 3.38005e-25  4.46817e-25        00000 
-1.23093e-25 -1.63094e-25        00000 
 3.73458e-26  5.13988e-26        00000 
-9.43985e-27 -1.43992e-26        00000 
 1.95170e-27  3.69573e-27        00000 
-3.28852e-28 -8.80676e-28        00000 
 4.58365e-29  1.97423e-28        00000 
-4.26636e-30 -4.21637e-29        00000 
 5.16430e-32  8.70916e-30        00000 
 7.24197e-32 -1.73519e-30        00000 
-3.12163e-32  3.37794e-31        00000 
 9.06952e-33 -6.22439e-32        00000 
-2.35606e-33  1.11242e-32        00000 
 5.41564e-34 -1.94861e-33        00000 
-1.18346e-34  3.37179e-34        00000 
 2.52007e-35 -5.78153e-35        00000 
-5.25374e-36  9.84673e-36        00000 
 1.10963e-36 -1.71083e-36        00000 
-4.25869e-37  5.59963e-37        00000 
 1.17712e-24 -2.37217e-25        00000 
-1.26567e-24  2.39341e-25        00000 
 1.45281e-24 -2.14722e-25        00000 
-1.57511e-24  9.03661e-26        00000 
 1.66421e-24  1.70213e-25        00000 
-1.32448e-24 -3.86302e-25        00000 
 1.02695e-24  5.59458e-25        00000 
-7.19904e-25 -5.99822e-25        00000 
 4.80591e-25  5.13376e-25        00000 
-2.77372e-25 -3.48249e-25        00000 
 1.50026e-25  1.97829e-25        00000 
-7.12097e-26 -9.45321e-26        00000 
 2.90700e-26  3.85739e-26        00000 
-1.01287e-26 -1.36525e-26        00000 
 3.01314e-27  4.27113e-27        00000 
-7.65023e-28 -1.20748e-27        00000 
 1.65439e-28  3.14664e-28        00000 
-3.06926e-29 -7.65829e-29        00000 
 4.90305e-30  1.76100e-29        00000 
-6.45967e-31 -3.86804e-30        00000 
 6.52759e-32  8.18953e-31        00000 
-2.93950e-33 -1.67752e-31        00000 
-1.22593e-33  3.33183e-32        00000 
 5.68649e-34 -6.37571e-33        00000 
-1.71206e-34  1.18503e-33        00000 
 4.33900e-35 -2.15497e-34        00000 
-1.01196e-35  3.85634e-35        00000 
 2.25401e-36 -6.82153e-36        00000 
-5.04272e-37  1.22823e-36        00000 
 2.02271e-37 -4.13926e-37        00000 
-2.34451e-25  5.23748e-26        00000 
 2.70696e-25  1.19290e-27        00000 
-2.59291e-25  4.47097e-26        00000 
 2.59083e-25 -1.37619e-26        00000 
-2.71821e-25 -5.49534e-26        00000 
 2.25059e-25  5.53032e-26        00000 
-1.76929e-25 -1.04758e-25        00000 
 1.40823e-25  1.02499e-25        00000 
-8.90732e-26 -8.66101e-26        00000 
 5.22081e-26  6.05576e-26        00000 
-2.87685e-26 -3.66039e-26        00000 
 1.44444e-26  1.89795e-26        00000 
-6.40964e-27 -8.49694e-27        00000 
 2.48336e-27  3.32201e-27        00000 
-8.37106e-28 -1.14952e-27        00000 
 2.45692e-28  3.57636e-28        00000 
-6.29069e-29 -1.01731e-28        00000 
 1.41079e-29  2.68513e-29        00000 
-2.79417e-30 -6.65276e-30        00000 
 4.91357e-31  1.56297e-30        00000 
-7.63120e-32 -3.51342e-31        00000 
 1.03449e-32  7.61053e-32        00000 
-1.12613e-33 -1.59519e-32        00000 
 4.65651e-35  3.24103e-33        00000 
 2.39518e-35 -6.38282e-34        00000 
-1.08258e-35  1.22359e-34        00000 
 3.20764e-36 -2.29453e-35        00000 
-8.18814e-37  4.23135e-36        00000 
 2.01612e-37 -7.92151e-37        00000 
-8.61350e-38  2.75560e-37        00000 
 4.35026e-26 -4.33792e-27        00000 
-4.43704e-26  4.07173e-27        00000 
 4.49077e-26 -4.02047e-27        00000 
-4.48790e-26  4.26100e-28        00000 
 4.36723e-26  6.34120e-27        00000 
-3.83364e-26 -1.14718e-26        00000 
 3.08724e-26  1.54645e-26        00000 
-2.34758e-26 -1.66188e-26        00000 
 1.58294e-26  1.39438e-26        00000 
-9.72981e-27 -1.04501e-26        00000 
 5.49294e-27  6.63679e-27        00000 
-2.86399e-27 -3.67181e-27        00000 
 1.35175e-27  1.77570e-27        00000 
-5.68377e-28 -7.55858e-28        00000 
 2.11460e-28  2.85944e-28        00000 
-6.95166e-29 -9.72482e-29        00000 
 2.02275e-29  3.01196e-29        00000 
-5.22799e-30 -8.60732e-30        00000 
 1.20729e-30  2.29632e-30        00000 
-2.51071e-31 -5.77634e-31        00000 
 4.73397e-32  1.38202e-31        00000 
-8.12264e-33 -3.16886e-32        00000 
 1.26642e-33  7.00493e-33        00000 
-1.74394e-34 -1.49881e-33        00000 
 1.86870e-35  3.11126e-34        00000 
-5.53467e-37 -6.27689e-35        00000 
-4.92746e-37  1.23464e-35        00000 
 2.09374e-37 -2.37879e-36        00000 
-6.48985e-38  4.64305e-37        00000 
 3.12262e-38 -1.67077e-37        00000 
-7.54844e-27  7.15421e-28        00000 
 7.60008e-27 -6.90140e-28        00000 
-7.66829e-27  4.97374e-28        00000 
 7.61855e-27  9.57102e-29        00000 
-7.26861e-27 -1.01387e-27        00000 
 6.45144e-27  1.89074e-27        00000 
-5.29002e-27 -2.48672e-27        00000 
 4.03096e-27  2.64344e-27        00000 
-2.91861e-27 -2.37043e-27        00000 
 1.78707e-27  1.77884e-27        00000 
-1.03917e-27 -1.18528e-27        00000 
 5.59654e-28  6.91954e-28        00000 
-2.76723e-28 -3.56806e-28        00000 
 1.24008e-28  1.63315e-28        00000 
-4.99194e-29 -6.67975e-29        00000 
 1.79866e-29  2.46212e-29        00000 
-5.80126e-30 -8.25925e-30        00000 
 1.67902e-30  2.54845e-30        00000 
-4.37958e-31 -7.30964e-31        00000 
 1.03590e-31  1.96783e-31        00000 
-2.23809e-32 -5.01459e-32        00000 
 4.44772e-33  1.21870e-32        00000 
-8.17485e-34 -2.84300e-33        00000 
 1.39163e-34  6.39907e-34        00000 
-2.16904e-35 -1.39494e-34        00000 
 2.96239e-36  2.95292e-35        00000 
-3.04586e-37 -6.08457e-36        00000 
 3.28329e-39  1.22516e-36        00000 
 1.14469e-38 -2.49683e-37        00000 
-8.17663e-39  9.30703e-38        00000 
 1.30035e-27 -1.18295e-28        00000 
-1.30457e-27  1.07668e-28        00000 
 1.30822e-27 -6.28302e-29        00000 
-1.28906e-27 -3.44833e-29        00000 
 1.22120e-27  1.72233e-28        00000 
-1.08970e-27 -3.08330e-28        00000 
 9.04830e-28  4.01336e-28        00000 
-6.99383e-28 -4.28950e-28        00000 
 4.92689e-28  3.96773e-28        00000 
-3.26643e-28 -3.04653e-28        00000 
 1.94469e-28  2.09102e-28        00000 
-1.07971e-28 -1.27853e-28        00000 
 5.54705e-29  6.96080e-29        00000 
-2.61482e-29 -3.39005e-29        00000 
 1.12173e-29  1.48422e-29        00000 
-4.35738e-30 -5.87807e-30        00000 
 1.53029e-30  2.12157e-30        00000 
-4.86393e-31 -7.03753e-31        00000 
 1.40328e-31  2.16461e-31        00000 
-3.69166e-32 -6.22762e-32        00000 
 8.90783e-33  1.68951e-32        00000 
-1.98460e-33 -4.35368e-33        00000 
 4.10917e-34  1.07257e-33        00000 
-7.95038e-35 -2.54032e-34        00000 
 1.44094e-35  5.81078e-35        00000 
-2.43506e-36 -1.28828e-35        00000 
 3.76474e-37  2.77613e-36        00000 
-5.04462e-38 -5.83713e-37        00000 
 4.67934e-39  1.24239e-37        00000 
 1.33637e-40 -4.79954e-38        00000 
-2.23500e-28  1.88621e-29        00000 
 2.23705e-28 -1.63728e-29        00000 
-2.23024e-28  7.77435e-30        00000 
 2.18007e-28  8.22364e-30        00000 
-2.01872e-28 -3.01384e-29        00000 
 2.07177e-28  5.42161e-29        00000 
-1.81707e-28 -6.54732e-29        00000 
 1.24055e-28  7.00741e-29        00000 
-8.73123e-29 -6.47203e-29        00000 
 5.82143e-29  5.18755e-29        00000 
-3.60216e-29 -3.66682e-29        00000 
 2.05808e-29  2.32696e-29        00000 
-1.09352e-29 -1.32731e-29        00000 
 5.37562e-30  6.81972e-30        00000 
-2.42964e-30 -3.16850e-30        00000 
 1.00450e-30  1.33744e-30        00000 
-3.78871e-31 -5.15824e-31        00000 