<?xml version="1.0" encoding="utf-8"?>
<VTKFile byte_order="LittleEndian" type="UnstructuredGrid" version="0.1">
   <UnstructuredGrid>
      <Piece NumberOfCells="3364" NumberOfPoints="1741">
         <Points>
            <DataArray Name="Points" NumberOfComponents="3" format="ascii" type="Float32">
0.0000 1.0000 0.0000
0.0000 1.0345 0.0000
0.0000 1.0690 0.0000
0.0000 1.1034 0.0000
0.0000 1.1379 0.0000
0.0000 1.1724 0.0000
0.0000 1.2069 0.0000
0.0000 1.2414 0.0000
0.0000 1.2759 0.0000
0.0000 1.3103 0.0000
0.0000 1.3448 0.0000
0.0000 1.3793 0.0000
0.0000 1.4138 0.0000
0.0000 1.4483 0.0000
0.0000 1.4828 0.0000
0.0000 1.5172 0.0000
0.0000 1.5517 0.0000
0.0000 1.5862 0.0000
0.0000 1.6207 0.0000
0.0000 1.6552 0.0000
0.0000 1.6897 0.0000
0.0000 1.7241 0.0000
0.0000 1.7586 0.0000
0.0000 1.7931 0.0000
0.0000 1.8276 0.0000
0.0000 1.8621 0.0000
0.0000 1.8966 0.0000
0.0000 1.9310 0.0000
0.0000 1.9655 0.0000
0.0000 2.0000 0.0000
0.0690 1.0000 0.0000
0.0690 1.0345 0.0000
0.0690 1.0690 0.0000
0.0690 1.1034 0.0000
0.0690 1.1379 0.0000
0.0690 1.1724 0.0000
0.0690 1.2069 0.0000
0.0690 1.2414 0.0000
0.0690 1.2759 0.0000
0.0690 1.3103 0.0000
0.0690 1.3448 0.0000
0.0690 1.3793 0.0000
0.0690 1.4138 0.0000
0.0690 1.4483 0.0000
0.0690 1.4828 0.0000
0.0690 1.5172 0.0000
0.0690 1.5517 0.0000
0.0690 1.5862 0.0000
0.0690 1.6207 0.0000
0.0690 1.6552 0.0000
0.0690 1.6897 0.0000
0.0690 1.7241 0.0000
0.0690 1.7586 0.0000
0.0690 1.7931 0.0000
0.0690 1.8276 0.0000
0.0690 1.8621 0.0000
0.0690 1.8966 0.0000
0.0690 1.9310 0.0000
0.0690 1.9655 0.0000
0.0690 2.0000 0.0000
0.1379 1.0000 0.0000
0.1379 1.0345 0.0000
0.1379 1.0690 0.0000
0.1379 1.1034 0.0000
0.1379 1.1379 0.0000
0.1379 1.1724 0.0000
0.1379 1.2069 0.0000
0.1379 1.2414 0.0000
0.1379 1.2759 0.0000
0.1379 1.3103 0.0000
0.1379 1.3448 0.0000
0.1379 1.3793 0.0000
0.1379 1.4138 0.0000
0.1379 1.4483 0.0000
0.1379 1.4828 0.0000
0.1379 1.5172 0.0000
0.1379 1.5517 0.0000
0.1379 1.5862 0.0000
0.1379 1.6207 0.0000
0.1379 1.6552 0.0000
0.1379 1.6897 0.0000
0.1379 1.7241 0.0000
0.1379 1.7586 0.0000
0.1379 1.7931 0.0000
0.1379 1.8276 0.0000
0.1379 1.8621 0.0000
0.1379 1.8966 0.0000
0.1379 1.9310 0.0000
0.1379 1.9655 0.0000
0.1379 2.0000 0.0000
0.2069 1.0000 0.0000
0.2069 1.0345 0.0000
0.2069 1.0690 0.0000
0.2069 1.1034 0.0000
0.2069 1.1379 0.0000
0.2069 1.1724 0.0000
0.2069 1.2069 0.0000
0.2069 1.2414 0.0000
0.2069 1.2759 0.0000
0.2069 1.3103 0.0000
0.2069 1.3448 0.0000
0.2069 1.3793 0.0000
0.2069 1.4138 0.0000
0.2069 1.4483 0.0000
0.2069 1.4828 0.0000
0.2069 1.5172 0.0000
0.2069 1.5517 0.0000
0.2069 1.5862 0.0000
0.2069 1.6207 0.0000
0.2069 1.6552 0.0000
0.2069 1.6897 0.0000
0.2069 1.7241 0.0000
0.2069 1.7586 0.0000
0.2069 1.7931 0.0000
0.2069 1.8276 0.0000
0.2069 1.8621 0.0000
0.2069 1.8966 0.0000
0.2069 1.9310 0.0000
0.2069 1.9655 0.0000
0.2069 2.0000 0.0000
0.2759 1.0000 0.0000
0.2759 1.0345 0.0000
0.2759 1.0690 0.0000
0.2759 1.1034 0.0000
0.2759 1.1379 0.0000
0.2759 1.1724 0.0000
0.2759 1.2069 0.0000
0.2759 1.2414 0.0000
0.2759 1.2759 0.0000
0.2759 1.3103 0.0000
0.2759 1.3448 0.0000
0.2759 1.3793 0.0000
0.2759 1.4138 0.0000
0.2759 1.4483 0.0000
0.2759 1.4828 0.0000
0.2759 1.5172 0.0000
0.2759 1.5517 0.0000
0.2759 1.5862 0.0000
0.2759 1.6207 0.0000
0.2759 1.6552 0.0000
0.2759 1.6897 0.0000
0.2759 1.7241 0.0000
0.2759 1.7586 0.0000
0.2759 1.7931 0.0000
0.2759 1.8276 0.0000
0.2759 1.8621 0.0000
0.2759 1.8966 0.0000
0.2759 1.9310 0.0000
0.2759 1.9655 0.0000
0.2759 2.0000 0.0000
0.3448 1.0000 0.0000
0.3448 1.0345 0.0000
0.3448 1.0690 0.0000
0.3448 1.1034 0.0000
0.3448 1.1379 0.0000
0.3448 1.1724 0.0000
0.3448 1.2069 0.0000
0.3448 1.2414 0.0000
0.3448 1.2759 0.0000
0.3448 1.3103 0.0000
0.3448 1.3448 0.0000
0.3448 1.3793 0.0000
0.3448 1.4138 0.0000
0.3448 1.4483 0.0000
0.3448 1.4828 0.0000
0.3448 1.5172 0.0000
0.3448 1.5517 0.0000
0.3448 1.5862 0.0000
0.3448 1.6207 0.0000
0.3448 1.6552 0.0000
0.3448 1.6897 0.0000
0.3448 1.7241 0.0000
0.3448 1.7586 0.0000
0.3448 1.7931 0.0000
0.3448 1.8276 0.0000
0.3448 1.8621 0.0000
0.3448 1.8966 0.0000
0.3448 1.9310 0.0000
0.3448 1.9655 0.0000
0.3448 2.0000 0.0000
0.4138 1.0000 0.0000
0.4138 1.0345 0.0000
0.4138 1.0690 0.0000
0.4138 1.1034 0.0000
0.4138 1.1379 0.0000
0.4138 1.1724 0.0000
0.4138 1.2069 0.0000
0.4138 1.2414 0.0000
0.4138 1.2759 0.0000
0.4138 1.3103 0.0000
0.4138 1.3448 0.0000
0.4138 1.3793 0.0000
0.4138 1.4138 0.0000
0.4138 1.4483 0.0000
0.4138 1.4828 0.0000
0.4138 1.5172 0.0000
0.4138 1.5517 0.0000
0.4138 1.5862 0.0000
0.4138 1.6207 0.0000
0.4138 1.6552 0.0000
0.4138 1.6897 0.0000
0.4138 1.7241 0.0000
0.4138 1.7586 0.0000
0.4138 1.7931 0.0000
0.4138 1.8276 0.0000
0.4138 1.8621 0.0000
0.4138 1.8966 0.0000
0.4138 1.9310 0.0000
0.4138 1.9655 0.0000
0.4138 2.0000 0.0000
0.4828 1.0000 0.0000
0.4828 1.0345 0.0000
0.4828 1.0690 0.0000
0.4828 1.1034 0.0000
0.4828 1.1379 0.0000
0.4828 1.1724 0.0000
0.4828 1.2069 0.0000
0.4828 1.2414 0.0000
0.4828 1.2759 0.0000
0.4828 1.3103 0.0000
0.4828 1.3448 0.0000
0.4828 1.3793 0.0000
0.4828 1.4138 0.0000
0.4828 1.4483 0.0000
0.4828 1.4828 0.0000
0.4828 1.5172 0.0000
0.4828 1.5517 0.0000
0.4828 1.5862 0.0000
0.4828 1.6207 0.0000
0.4828 1.6552 0.0000
0.4828 1.6897 0.0000
0.4828 1.7241 0.0000
0.4828 1.7586 0.0000
0.4828 1.7931 0.0000
0.4828 1.8276 0.0000
0.4828 1.8621 0.0000
0.4828 1.8966 0.0000
0.4828 1.9310 0.0000
0.4828 1.9655 0.0000
0.4828 2.0000 0.0000
0.5517 1.0000 0.0000
0.5517 1.0345 0.0000
0.5517 1.0690 0.0000
0.5517 1.1034 0.0000
0.5517 1.1379 0.0000
0.5517 1.1724 0.0000
0.5517 1.2069 0.0000
0.5517 1.2414 0.0000
0.5517 1.2759 0.0000
0.5517 1.3103 0.0000
0.5517 1.3448 0.0000
0.5517 1.3793 0.0000
0.5517 1.4138 0.0000
0.5517 1.4483 0.0000
0.5517 1.4828 0.0000
0.5517 1.5172 0.0000
0.5517 1.5517 0.0000
0.5517 1.5862 0.0000
0.5517 1.6207 0.0000
0.5517 1.6552 0.0000
0.5517 1.6897 0.0000
0.5517 1.7241 0.0000
0.5517 1.7586 0.0000
0.5517 1.7931 0.0000
0.5517 1.8276 0.0000
0.5517 1.8621 0.0000
0.5517 1.8966 0.0000
0.5517 1.9310 0.0000
0.5517 1.9655 0.0000
0.5517 2.0000 0.0000
0.6207 1.0000 0.0000
0.6207 1.0345 0.0000
0.6207 1.0690 0.0000
0.6207 1.1034 0.0000
0.6207 1.1379 0.0000
0.6207 1.1724 0.0000
0.6207 1.2069 0.0000
0.6207 1.2414 0.0000
0.6207 1.2759 0.0000
0.6207 1.3103 0.0000
0.6207 1.3448 0.0000
0.6207 1.3793 0.0000
0.6207 1.4138 0.0000
0.6207 1.4483 0.0000
0.6207 1.4828 0.0000
0.6207 1.5172 0.0000
0.6207 1.5517 0.0000
0.6207 1.5862 0.0000
0.6207 1.6207 0.0000
0.6207 1.6552 0.0000
0.6207 1.6897 0.0000
0.6207 1.7241 0.0000
0.6207 1.7586 0.0000
0.6207 1.7931 0.0000
0.6207 1.8276 0.0000
0.6207 1.8621 0.0000
0.6207 1.8966 0.0000
0.6207 1.9310 0.0000
0.6207 1.9655 0.0000
0.6207 2.0000 0.0000
0.6897 1.0000 0.0000
0.6897 1.0345 0.0000
0.6897 1.0690 0.0000
0.6897 1.1034 0.0000
0.6897 1.1379 0.0000
0.6897 1.1724 0.0000
0.6897 1.2069 0.0000
0.6897 1.2414 0.0000
0.6897 1.2759 0.0000
0.6897 1.3103 0.0000
0.6897 1.3448 0.0000
0.6897 1.3793 0.0000
0.6897 1.4138 0.0000
0.6897 1.4483 0.0000
0.6897 1.4828 0.0000
0.6897 1.5172 0.0000
0.6897 1.5517 0.0000
0.6897 1.5862 0.0000
0.6897 1.6207 0.0000
0.6897 1.6552 0.0000
0.6897 1.6897 0.0000
0.6897 1.7241 0.0000
0.6897 1.7586 0.0000
0.6897 1.7931 0.0000
0.6897 1.8276 0.0000
0.6897 1.8621 0.0000
0.6897 1.8966 0.0000
0.6897 1.9310 0.0000
0.6897 1.9655 0.0000
0.6897 2.0000 0.0000
0.7586 1.0000 0.0000
0.7586 1.0345 0.0000
0.7586 1.0690 0.0000
0.7586 1.1034 0.0000
0.7586 1.1379 0.0000
0.7586 1.1724 0.0000
0.7586 1.2069 0.0000
0.7586 1.2414 0.0000
0.7586 1.2759 0.0000
0.7586 1.3103 0.0000
0.7586 1.3448 0.0000
0.7586 1.3793 0.0000
0.7586 1.4138 0.0000
0.7586 1.4483 0.0000
0.7586 1.4828 0.0000
0.7586 1.5172 0.0000
0.7586 1.5517 0.0000
0.7586 1.5862 0.0000
0.7586 1.6207 0.0000
0.7586 1.6552 0.0000
0.7586 1.6897 0.0000
0.7586 1.7241 0.0000
0.7586 1.7586 0.0000
0.7586 1.7931 0.0000
0.7586 1.8276 0.0000
0.7586 1.8621 0.0000
0.7586 1.8966 0.0000
0.7586 1.9310 0.0000
0.7586 1.9655 0.0000
0.7586 2.0000 0.0000
0.8276 1.0000 0.0000
0.8276 1.0345 0.0000
0.8276 1.0690 0.0000
0.8276 1.1034 0.0000
0.8276 1.1379 0.0000
0.8276 1.1724 0.0000
0.8276 1.2069 0.0000
0.8276 1.2414 0.0000
0.8276 1.2759 0.0000
0.8276 1.3103 0.0000
0.8276 1.3448 0.0000
0.8276 1.3793 0.0000
0.8276 1.4138 0.0000
0.8276 1.4483 0.0000
0.8276 1.4828 0.0000
0.8276 1.5172 0.0000
0.8276 1.5517 0.0000
0.8276 1.5862 0.0000
0.8276 1.6207 0.0000
0.8276 1.6552 0.0000
0.8276 1.6897 0.0000
0.8276 1.7241 0.0000
0.8276 1.7586 0.0000
0.8276 1.7931 0.0000
0.8276 1.8276 0.0000
0.8276 1.8621 0.0000
0.8276 1.8966 0.0000
0.8276 1.9310 0.0000
0.8276 1.9655 0.0000
0.8276 2.0000 0.0000
0.8966 1.0000 0.0000
0.8966 1.0345 0.0000
0.8966 1.0690 0.0000
0.8966 1.1034 0.0000
0.8966 1.1379 0.0000
0.8966 1.1724 0.0000
0.8966 1.2069 0.0000
0.8966 1.2414 0.0000
0.8966 1.2759 0.0000
0.8966 1.3103 0.0000
0.8966 1.3448 0.0000
0.8966 1.3793 0.0000
0.8966 1.4138 0.0000
0.8966 1.4483 0.0000
0.8966 1.4828 0.0000
0.8966 1.5172 0.0000
0.8966 1.5517 0.0000
0.8966 1.5862 0.0000
0.8966 1.6207 0.0000
0.8966 1.6552 0.0000
0.8966 1.6897 0.0000
0.8966 1.7241 0.0000
0.8966 1.7586 0.0000
0.8966 1.7931 0.0000
0.8966 1.8276 0.0000
0.8966 1.8621 0.0000
0.8966 1.8966 0.0000
0.8966 1.9310 0.0000
0.8966 1.9655 0.0000
0.8966 2.0000 0.0000
0.9655 1.0000 0.0000
0.9655 1.0345 0.0000
0.9655 1.0690 0.0000
0.9655 1.1034 0.0000
0.9655 1.1379 0.0000
0.9655 1.1724 0.0000
0.9655 1.2069 0.0000
0.9655 1.2414 0.0000
0.9655 1.2759 0.0000
0.9655 1.3103 0.0000
0.9655 1.3448 0.0000
0.9655 1.3793 0.0000
0.9655 1.4138 0.0000
0.9655 1.4483 0.0000
0.9655 1.4828 0.0000
0.9655 1.5172 0.0000
0.9655 1.5517 0.0000
0.9655 1.5862 0.0000
0.9655 1.6207 0.0000
0.9655 1.6552 0.0000
0.9655 1.6897 0.0000
0.9655 1.7241 0.0000
0.9655 1.7586 0.0000
0.9655 1.7931 0.0000
0.9655 1.8276 0.0000
0.9655 1.8621 0.0000
0.9655 1.8966 0.0000
0.9655 1.9310 0.0000
0.9655 1.9655 0.0000
0.9655 2.0000 0.0000
1.0345 1.0000 0.0000
1.0345 1.0345 0.0000
1.0345 1.0690 0.0000
1.0345 1.1034 0.0000
1.0345 1.1379 0.0000
1.0345 1.1724 0.0000
1.0345 1.2069 0.0000
1.0345 1.2414 0.0000
1.0345 1.2759 0.0000
1.0345 1.3103 0.0000
1.0345 1.3448 0.0000
[...]
         <PointData>
            <DataArray Name="fValues" NumberOfComponents="3" format="ascii" type="Float64">
-9.43814e-20  1.28689e-18        00000 
-2.31192e-18 -5.14291e-18        00000 
 1.45548e-18 -2.03767e-17        00000 
-1.46292e-18  4.31078e-19        00000 
 2.18788e-18 -9.60180e-18        00000 
-4.24304e-20  8.81092e-19        00000 
 5.83411e-21 -1.69272e-19        00000 
-6.36874e-22  2.96575e-20        00000 
 6.79253e-23 -5.02863e-21        00000 
-6.84994e-24  8.41863e-22        00000 
 5.96198e-25 -1.40241e-22        00000 
-3.02986e-26  2.33241e-23        00000 
-3.97867e-27 -3.87878e-24        00000 
 1.87626e-27  6.45454e-25        00000 
-4.79716e-28 -1.07513e-25        00000 
 1.03445e-28  1.79283e-26        00000 
-2.06102e-29 -2.99308e-27        00000 
 3.92689e-30  5.00258e-28        00000 
-7.27443e-31 -8.37039e-29        00000 
 1.32223e-31  1.40201e-29        00000 
-2.37127e-32 -2.35061e-30        00000 
 4.21083e-33  3.94467e-31        00000 
-7.42199e-34 -6.62546e-32        00000 
 1.30070e-34  1.11371e-32        00000 
-2.26920e-35 -1.87351e-33        00000 
 3.94461e-36  3.15390e-34        00000 
-6.83727e-37 -5.31295e-35        00000 
 1.18328e-37  8.96244e-36        00000 
-2.10079e-38 -1.55337e-36        00000 
 7.03079e-39  5.09735e-37        00000 
 3.31007e-19 -1.71193e-18        00000 
-2.64158e-18  2.15337e-18        00000 
-7.50427e-02 -2.21074e-01        00000 
 7.50427e-02 -2.21074e-01        00000 
 5.25655e-21  5.10456e-18        00000 
 3.34019e-20 -1.07506e-18        00000 
-2.47555e-21  1.77321e-19        00000 
 2.57230e-22 -2.93582e-20        00000 
-2.41910e-23  4.86777e-21        00000 
 1.61843e-24 -8.07661e-22        00000 
 5.01208e-26  1.34118e-22        00000 
-5.16621e-26 -2.22944e-23        00000 
 1.45935e-26  3.71038e-24        00000 
-3.27464e-27 -6.18265e-25        00000 
 6.66503e-28  1.03149e-25        00000 
-1.28675e-28 -1.72297e-26        00000 
 2.40487e-29  2.88129e-27        00000 
-4.39878e-30 -4.82353e-28        00000 
 7.92539e-31  8.08324e-29        00000 
-1.41234e-31 -1.35588e-29        00000 
 2.49623e-32  2.27637e-30        00000 
-4.38414e-33 -3.82496e-31        00000 
 7.66190e-34  6.43205e-32        00000 
-1.33378e-34 -1.08240e-32        00000 
 2.31449e-35  1.82274e-33        00000 
-4.00600e-36 -3.07143e-34        00000 
 6.91922e-37  5.17875e-35        00000 
-1.19398e-37 -8.74355e-36        00000 
 2.11446e-38  1.51671e-36        00000 
-7.06305e-39 -4.98061e-37        00000 
-4.38593e-19  2.32382e-18        00000 
 1.12987e-18 -1.09066e-17        00000 
 7.50427e-02 -2.21074e-01        00000 
-7.50427e-02 -2.21074e-01        00000 
-1.05271e-19 -1.02767e-17        00000 
 4.43650e-20  1.14593e-18        00000 
-3.94635e-21 -1.67350e-19        00000 
 4.80829e-22  2.62204e-20        00000 
-6.48209e-23 -4.24515e-21        00000 
 9.45250e-24  6.98538e-22        00000 
-1.46100e-24 -1.15925e-22        00000 
 2.35053e-25  1.93306e-23        00000 
-3.88192e-26 -3.23284e-24        00000 
 6.51732e-27  5.41713e-25        00000 
-1.10522e-27 -9.09008e-26        00000 
 1.88543e-28  1.52701e-26        00000 
-3.22734e-29 -2.56751e-27        00000 
 5.53432e-30  4.32038e-28        00000 
-9.49843e-31 -7.27503e-29        00000 
 1.63062e-31  1.22581e-29        00000 
-2.79911e-32 -2.06664e-30        00000 
 4.80360e-33  3.48614e-31        00000 
-8.24045e-34 -5.88364e-32        00000 
 1.41303e-34  9.93474e-33        00000 
-2.42196e-35 -1.67828e-33        00000 
 4.14953e-36  2.83636e-34        00000 
-7.10669e-37 -4.79562e-35        00000 
 1.21766e-37  8.11771e-36        00000 
-2.14304e-38 -1.41173e-36        00000 
 7.12443e-39  4.64588e-37        00000 
 2.23274e-19 -1.77180e-18        00000 
-6.84690e-19  5.08318e-18        00000 
 2.00743e-18 -1.10837e-17        00000 
-1.45316e-18 -2.14677e-18        00000 
 4.45821e-19  2.23177e-18        00000 
-4.53909e-20 -6.43744e-19        00000 
 6.57265e-21  1.10136e-19        00000 
-8.80216e-22 -1.84244e-20        00000 
 1.21987e-22  3.08996e-21        00000 
-1.74612e-23 -5.20820e-22        00000 
 2.57435e-24  8.81100e-23        00000 
-3.89585e-25 -1.49390e-23        00000 
 6.02910e-26  2.53587e-24        00000 
-9.50675e-27 -4.30699e-25        00000 
 1.52227e-27  7.31663e-26        00000 
-2.46814e-28 -1.24297e-26        00000 
 4.04209e-29  2.11149e-27        00000 
-6.67310e-30 -3.58659e-28        00000 
 1.10874e-30  6.09175e-29        00000 
-1.85158e-31 -1.03461e-29        00000 
 3.10472e-32  1.75708e-30        00000 
-5.22288e-33 -2.98400e-31        00000 
 8.80900e-34  5.06770e-32        00000 
-1.48884e-34 -8.60666e-33        00000 
 2.52059e-35  1.46177e-33        00000 
-4.27313e-36 -2.48283e-34        00000 
 7.25240e-37  4.21755e-35        00000 
-1.23297e-37 -7.17051e-36        00000 
 2.15489e-38  1.25236e-36        00000 
-7.12472e-39 -4.13638e-37        00000 
-8.24824e-20  3.58467e-19        00000 
 1.05502e-19 -1.04993e-18        00000 
-2.64468e-19  1.07937e-18        00000 
 2.22283e-19 -2.30397e-19        00000 
-1.06205e-19 -2.53302e-19        00000 
 2.86687e-20  1.53456e-19        00000 
-4.66737e-21 -4.49063e-20        00000 
 7.50201e-22  9.36004e-21        00000 
-1.16162e-22 -1.76888e-21        00000 
 1.78458e-23  3.21277e-22        00000 
-2.74917e-24 -5.72386e-23        00000 
 4.26598e-25  1.00879e-23        00000 
-6.67993e-26 -1.76576e-24        00000 
 1.05596e-26  3.07593e-25        00000 
-1.68469e-27 -5.33901e-26        00000 
 2.71088e-28  9.24101e-27        00000 
-4.39605e-29 -1.59583e-27        00000 
 7.17801e-30  2.75068e-28        00000 
-1.17915e-30 -4.73384e-29        00000 
 1.94724e-31  8.13606e-30        00000 
-3.23033e-32 -1.39679e-30        00000 
 5.37994e-33  2.39573e-31        00000 
-8.99025e-34 -4.10579e-32        00000 
 1.50669e-34  7.03163e-33        00000 
-2.53134e-35 -1.20354e-33        00000 
 4.26191e-36  2.05896e-34        00000 
-7.18888e-37 -3.52095e-35        00000 
 1.21545e-37  6.02365e-36        00000 
-2.11345e-38 -1.05849e-36        00000 
 6.95908e-39  3.51408e-37        00000 
 1.74856e-20 -1.25196e-19        00000 
-2.43497e-20  1.48555e-19        00000 
 3.54748e-20 -1.40135e-19        00000 
-3.37638e-20  5.65598e-20        00000 
 2.00141e-20  1.26448e-20        00000 
-7.85262e-21 -2.35431e-20        00000 
 2.08342e-21  1.12126e-20        00000 
-4.12730e-22 -3.33505e-21        00000 
 7.46272e-23  7.72991e-22        00000 
-1.28052e-23 -1.59844e-22        00000 
 2.13768e-24  3.11357e-23        00000 
-3.51892e-25 -5.85746e-24        00000 
 5.75533e-26  1.07795e-24        00000 
-9.39340e-27 -1.95438e-25        00000 
 1.53382e-27  3.50581e-26        00000 
-2.50932e-28 -6.23884e-27        00000 
 4.11638e-29  1.10341e-27        00000 
-6.77355e-30 -1.94195e-28        00000 
 1.11817e-30  3.40412e-29        00000 
-1.85171e-31 -5.94758e-30        00000 
 3.07574e-32  1.03628e-30        00000 
-5.12338e-33 -1.80136e-31        00000 
 8.55651e-34  3.12506e-32        00000 
-1.43243e-34 -5.41216e-33        00000 
 2.40319e-35  9.35922e-34        00000 
-4.03969e-36 -1.61640e-34        00000 
 6.80266e-37  2.78855e-35        00000 
-1.14822e-37 -4.80991e-36        00000 
 1.99312e-38  8.51981e-37        00000 
-6.55323e-39 -2.84758e-37        00000 
-3.72160e-21  2.35073e-20        00000 
 4.39385e-21 -2.37396e-20        00000 
-5.40788e-21  2.01963e-20        00000 
 5.13794e-21 -1.03586e-20        00000 
-3.48614e-21  9.18916e-22        00000 
 1.69135e-21  2.62315e-21        00000 
-5.99711e-22 -2.04472e-21        00000 
 1.60743e-22  8.56318e-22        00000 
-3.52105e-23 -2.57490e-22        00000 
 6.95605e-24  6.35837e-23        00000 
-1.29156e-24 -1.40373e-23        00000 
 2.30769e-25  2.89605e-24        00000 
-4.02431e-26 -5.71992e-25        00000 
 6.90992e-27  1.09674e-25        00000 
-1.17483e-27 -2.05899e-26        00000 
 1.98524e-28  3.80570e-27        00000 
-3.34242e-29 -6.95097e-28        00000 
 5.61626e-30  1.25777e-28        00000 
-9.42886e-31 -2.25894e-29        00000 
 1.58280e-31  4.03230e-30        00000 
-2.65807e-32 -7.16142e-31        00000 
 4.46702e-33  1.26647e-31        00000 
-7.51391e-34 -2.23160e-32        00000 
 1.26519e-34  3.92005e-33        00000 
-2.13260e-35 -6.86755e-34        00000 
 3.59856e-36  1.20032e-34        00000 
-6.07874e-37 -2.09372e-35        00000 
 1.02867e-37  3.64861e-36        00000 
-1.78954e-38 -6.52753e-37        00000 
 5.89375e-39  2.20001e-37        00000 
 7.08477e-22 -4.01792e-21        00000 
-7.70923e-22  3.85407e-21        00000 
 8.58659e-22 -3.13345e-21        00000 
-8.05663e-22  1.79593e-21        00000 
 5.87635e-22 -4.74236e-22        00000 
-3.27589e-22 -2.12639e-22        00000 
 1.40410e-22  3.01785e-22        00000 
-4.71182e-23 -1.73777e-22        00000 
 1.28054e-23  6.74266e-23        00000 
-2.97836e-24 -2.04006e-23        00000 
 6.27643e-25  5.24778e-24        00000 
-1.23933e-25 -1.21586e-24        00000 
 2.34160e-26  2.62781e-25        00000 
-4.29119e-27 -5.41300e-26        00000 
 7.69669e-28  1.07728e-26        00000 
-1.35949e-28 -2.09000e-27        00000 
 2.37500e-29  3.97678e-28        00000 
-4.11626e-30 -7.45299e-29        00000 
 7.09341e-31  1.38000e-29        00000 
-1.21737e-31 -2.53027e-30        00000 
 2.08313e-32  4.60191e-31        00000 
-3.55732e-33 -8.31326e-32        00000 
 6.06628e-34  1.49320e-32        00000 
-1.03353e-34 -2.66897e-33        00000 
 1.75989e-35  4.75051e-34        00000 
-2.99583e-36 -8.42456e-35        00000 
 5.09936e-37  1.48928e-35        00000 
-8.68710e-38 -2.62767e-36        00000 
 1.52051e-38  4.75793e-37        00000 
-5.03216e-39 -1.61980e-37        00000 
-1.27972e-22  6.67261e-22        00000 
 1.33408e-22 -6.28570e-22        00000 
-1.39603e-22  5.04038e-22        00000 
 1.29101e-22 -3.09023e-22        00000 
-9.82667e-23  1.16091e-22        00000 
 6.00794e-23  2.41893e-24        00000 
-2.94215e-23 -3.79520e-23        00000 
 1.16346e-23  2.99222e-23        00000 
-3.78157e-24 -1.46823e-23        00000 
 1.04022e-24  5.42311e-24        00000 
-2.51792e-25 -1.64607e-24        00000 
 5.56700e-26  4.35431e-25        00000 
-1.15403e-26 -1.04629e-25        00000 
 2.28354e-27  2.34809e-26        00000 
-4.36693e-28 -5.01365e-27        00000 
 8.14155e-29  1.03143e-27        00000 
-1.48907e-29 -2.06235e-28        00000 
 2.68397e-30  4.03296e-29        00000 
-4.78371e-31 -7.74790e-30        00000 
 8.45233e-32  1.46725e-30        00000 
-1.48337e-32 -2.74592e-31        00000 
 2.58953e-33  5.08854e-32        00000 
-4.50185e-34 -9.35165e-33        00000 
 7.80089e-35  1.70651e-33        00000 
-1.34829e-35 -3.09518e-34        00000 
 2.32564e-36  5.58434e-35        00000 
-4.00521e-37 -1.00293e-35        00000 
 6.89477e-38  1.79563e-36        00000 
-1.21860e-38 -3.29778e-37        00000 
 4.06494e-39  1.13603e-37        00000 
 2.24975e-23 -1.09734e-22        00000 
-2.28915e-23  1.02797e-22        00000 
 2.30199e-23 -8.25286e-23        00000 
-2.10169e-23  5.31392e-23        00000 
 1.64290e-23 -2.40550e-23        00000 
-1.07093e-23  4.31816e-24        00000 
 5.77634e-24  3.87092e-24        00000 
-2.58376e-24 -4.56209e-24        00000 
 9.67404e-25  2.79088e-24        00000 
-3.08261e-25 -1.24039e-24        00000 
 8.56228e-26  4.42852e-25        00000 
-2.13273e-26 -1.34614e-25        00000 
 4.89155e-27  3.63293e-26        00000 
-1.05436e-27 -8.97873e-27        00000 
 2.16826e-28  2.07789e-27        00000 
-4.30126e-29 -4.57464e-28        00000 
 8.29804e-30  9.69035e-29        00000 
-1.56633e-30 -1.99136e-29        00000 
 2.90608e-31  3.99416e-30        00000 
-5.31821e-32 -7.85511e-31        00000 
 9.62568e-33  1.52000e-31        00000 
-1.72672e-33 -2.90184e-32        00000 
 3.07510e-34  5.47729e-33        00000 
-5.44398e-35 -1.02390e-33        00000 
 9.59079e-36  1.89818e-34        00000 
-1.68284e-36 -3.49381e-35        00000 
 2.94302e-37  6.39077e-36        00000 
-5.13698e-38 -1.16371e-36        00000 
 9.19863e-39  2.17253e-37        00000 
-3.10139e-39 -7.58642e-38        00000 
-3.89536e-24  1.79970e-23        00000 
 3.90663e-24 -1.68528e-23        00000 
-3.82864e-24  1.36368e-23        00000 
 3.46066e-24 -9.13245e-24        00000 
-2.75328e-24  4.65265e-24        00000 
 1.87953e-24 -1.40221e-24        00000 
-1.08964e-24 -2.17503e-25        00000 
 5.35730e-25  6.20108e-25        00000 
-2.24380e-25 -4.78542e-25        00000 
 8.08324e-26  2.52614e-25        00000 
-2.54215e-26 -1.04999e-25        00000 
 7.11599e-27  3.65721e-26        00000 
-1.81117e-27 -1.11221e-26        00000 
 4.27542e-28  3.04658e-27        00000 
-9.51349e-29 -7.69868e-28        00000 
 2.02084e-29  1.82742e-28        00000 
-4.13775e-30 -4.12986e-29        00000 
 8.22751e-31  8.97617e-30        00000 
-1.59783e-31 -1.89065e-30        00000 
 3.04432e-32  3.88162e-31        00000 
-5.71031e-33 -7.80266e-32        00000 
 1.05740e-33  1.54106e-32        00000 
-1.93728e-34 -2.99875e-33        00000 
 3.51792e-35  5.76199e-34        00000 
-6.34083e-36 -1.09519e-34        00000 
 1.13575e-36  2.06221e-35        00000 
-2.02362e-37 -3.85158e-36        00000 
 3.59258e-38  7.14963e-37        00000 
-6.53768e-39 -1.35987e-37        00000 
 2.23357e-39  4.82227e-38        00000 
 6.68387e-25 -2.95215e-24        00000 
-6.64334e-25  2.76957e-24        00000 
 6.40207e-25 -2.26473e-24        00000 
-5.74521e-25  1.56759e-24        00000 
 4.62798e-25 -8.67860e-25        00000 
-3.26991e-25  3.34358e-25        00000 
 2.00360e-25 -3.46721e-26        00000 
-1.06085e-25 -7.22383e-26        00000 
 4.86074e-26  7.51394e-26        00000 
-1.93805e-26 -4.69808e-26        00000 
 6.78732e-27  2.24979e-26        00000 
-2.11511e-27 -8.91163e-27        00000 
 5.95771e-28  3.04630e-27        00000 
-1.54220e-28 -9.26359e-28        00000 
 3.72581e-29  2.56654e-28        00000 
-8.51171e-30 -6.60255e-29        00000 
 1.85848e-30  1.60074e-29        00000 
-3.91137e-31 -3.69982e-30        00000 
 7.98829e-32  8.22576e-31        00000 
-1.59166e-32 -1.77143e-31        00000 
 3.10716e-33  3.71528e-32        00000 
-5.96317e-34 -7.62157e-33        00000 
 1.12820e-34  1.53453e-33        00000 
-2.10892e-35 -3.04078e-34        00000 
 3.90210e-36  5.94358e-35        00000 
-7.15741e-37 -1.14806e-35        00000 
 1.30314e-37  2.19491e-36        00000 
-2.35969e-38 -4.16314e-37        00000 
 4.37613e-39  8.08562e-38        00000 
-1.51852e-39 -2.91696e-38        00000 
-1.14044e-25  4.84948e-25        00000 
 1.12709e-25 -4.56210e-25        00000 
-1.07424e-25  3.77271e-25        00000 
 9.59413e-26 -2.68657e-25        00000 
-7.80148e-26  1.58347e-25        00000 
 5.66002e-26 -7.08584e-26        00000 
-3.62222e-26  1.73171e-26        00000 
 2.03478e-26  6.01021e-27        00000 
-1.00291e-26 -1.07738e-26        00000 
 4.34982e-27  8.10097e-27        00000 
-1.66998e-27 -4.44334e-27        00000 
 5.72485e-28  1.98524e-27        00000 
-1.77209e-28 -7.58424e-28        00000 
 5.01716e-29  2.55465e-28        00000 
-1.31651e-29 -7.76563e-29        00000 
 3.24158e-30  2.17082e-29        00000 
-7.57092e-31 -5.66679e-30        00000 
 1.69250e-31  1.39860e-30        00000 
-3.64863e-32 -3.29605e-31        00000 
 7.63094e-33  7.47612e-32        00000 
-1.55601e-33 -1.64240e-32        00000 
 3.10582e-34  3.51239e-33        00000 
-6.08823e-35 -7.34211e-34        00000 
 1.17525e-35  1.50513e-34        00000 
-2.23901e-36 -3.03417e-35        00000 
 4.21770e-37  6.02827e-36        00000 
-7.86819e-38 -1.18266e-36        00000 
 1.45695e-38  2.29729e-37        00000 
-2.76073e-39 -4.56629e-38        00000 
 9.75062e-40  1.67886e-38        00000 
 1.93899e-26 -7.98151e-26        00000 
-1.90927e-26  7.53155e-26        00000 
 1.80675e-26 -6.29767e-26        00000 
-1.60898e-26  4.59685e-26        00000 
 1.31836e-26 -2.84672e-26        00000 
-9.76767e-27  1.41213e-26        00000 
 6.47282e-27 -4.75071e-27        00000 
-3.81529e-27  9.48880e-29        00000 
 1.99693e-27  1.36918e-27        00000 
-9.29239e-28 -1.30239e-27        00000 
 3.85834e-28  8.19932e-28        00000 
-1.43790e-28 -4.10718e-28        00000 
 4.84795e-29  1.74225e-28        00000 
-1.49304e-29 -6.47128e-29        00000 
 4.24517e-30  2.15405e-29        00000 
-1.12646e-30 -6.54441e-30        00000 
 2.81798e-31  1.84258e-30        00000 
-6.70631e-32 -4.86869e-31        00000 
 1.53010e-32  1.22002e-31        00000 
-3.36886e-33 -2.92424e-32        00000 
 7.19674e-34  6.75136e-33        00000 
-1.49844e-34 -1.51003e-33        00000 
 3.05228e-35  3.28719e-34        00000 
-6.10162e-36 -6.99169e-35        00000 
 1.20014e-36  1.45758e-35        00000 
-2.32775e-37 -2.98625e-36        00000 
 4.46035e-38  6.02606e-37        00000 
-8.46585e-39 -1.20146e-37        00000 
 1.64297e-39  2.44947e-38        00000 
-5.91780e-40 -9.19397e-39        00000 
-3.28918e-27  1.31636e-26        00000 
 3.23114e-27 -1.24598e-26        00000 
-3.04366e-27  1.05284e-26        00000 
 2.70669e-27 -7.85362e-27        00000 
-2.23236e-27  5.06389e-27        00000 
 1.68252e-27 -2.71120e-27        00000 
-1.14724e-27  1.09265e-27        00000 
 7.03616e-28 -2.08566e-28        00000 
-3.87197e-28 -1.38820e-28        00000 
 1.91193e-28  1.94217e-28        00000 
-8.48920e-29 -1.42455e-28        00000 
 3.40272e-29  7.98440e-29        00000 
-1.23820e-29 -3.74029e-29        00000 
 4.11969e-30  1.52400e-29        00000 
-1.26373e-30 -5.53480e-30        00000 
 3.60612e-31  1.82442e-30        00000 
-9.65878e-32 -5.53954e-31        00000 
 2.44894e-32  1.56879e-31        00000 
-5.92286e-33 -4.18784e-32        00000 
 1.37559e-33  1.06321e-32        00000 
-3.08569e-34 -2.58641e-33        00000 
 6.71806e-35  6.06627e-34        00000 
-1.42548e-35 -1.37893e-34        00000 
 2.95814e-36  3.05089e-35        00000 
-6.02143e-37 -6.59389e-36        00000 
 1.20528e-37  1.39635e-36        00000 
-2.37749e-38 -2.90478e-37        00000 
 4.63537e-39  5.95692e-38        00000 
-9.23394e-40 -1.24834e-38        00000 
 3.39787e-40  4.79136e-39        00000 
 5.57143e-28 -2.17552e-27        00000 
-5.46495e-28  2.06531e-27        00000 
 5.13346e-28 -1.76224e-27        00000 
-4.56372e-28  1.34001e-27        00000 
 3.78609e-28 -8.93697e-28        00000 
-2.89479e-28  5.07775e-28        00000 
 2.02132e-28 -2.30701e-28        00000 
-1.28163e-28  6.79786e-29        00000 
 7.35739e-29  5.76176e-30        00000 
-3.82128e-29 -2.62591e-29        00000 
 1.79750e-29  2.33446e-29        00000 
-7.67759e-30 -1.46997e-29        00000 
 2.98955e-30  7.57982e-30        00000 
-1.06685e-30 -3.37196e-30        00000 
 3.51150e-31  1.33048e-30        00000 
-1.07374e-31 -4.74408e-31        00000 
 3.07345e-32  1.55103e-31        00000 
-8.29770e-33 -4.70640e-32        00000 
 2.12822e-33  1.33930e-32        00000 
-5.21975e-34 -3.60649e-33        00000 
 1.23138e-34  9.26061e-34        00000 
-2.80837e-35 -2.28236e-34        00000 
 6.21944e-36  5.42905e-35        00000 
-1.34253e-36 -1.25226e-35        00000 
 2.83390e-37  2.81204e-36        00000 
-5.86586e-38 -6.16823e-37        00000 
 1.19350e-38  1.32549e-37        00000 
-2.39495e-39 -2.80141e-38        00000 
 4.90708e-40  6.04671e-39        00000 
-1.84768e-40 -2.37689e-39        00000 
-9.42861e-29  3.60254e-28        00000 
 9.23999e-29 -3.42957e-28        00000 
-8.66591e-29  2.95265e-28        00000 
 7.70801e-29 -2.28381e-28        00000 
-6.42930e-29  1.56765e-28        00000 
 4.97652e-29 -9.34433e-29        00000 
-3.54563e-29  4.63129e-29        00000 
 2.31248e-29 -1.69857e-29        00000 
-1.37630e-29  2.27300e-30        00000 
 7.46540e-30  3.00863e-30        00000 
-3.69171e-30 -3.58850e-30        00000 
 1.66701e-30  2.57344e-30        00000 
-6.89283e-31 -1.46071e-30        00000 
 2.61999e-31  7.07010e-31        00000 
-9.19958e-32 -3.01855e-31        00000 
 3.00109e-32  1.16021e-31        00000 
-9.15289e-33 -4.07425e-32        00000 