<?xml version="1.0" encoding="utf-8"?>
<VTKFile byte_order="LittleEndian" type="UnstructuredGrid" version="0.1">
   <UnstructuredGrid>
      <Piece NumberOfCells="3364" NumberOfPoints="1741">
         <Points>
            <DataArray Name="Points" NumberOfComponents="3" format="ascii" type="Float32">
0.0000 1.0000 0.0000
0.0000 1.0345 0.0000
0.0000 1.0690 0.0000
0.0000 1.1034 0.0000
0.0000 1.1379 0.0000
0.0000 1.1724 0.0000
0.0000 1.2069 0.0000
0.0000 1.2414 0.0000
0.0000 1.2759 0.0000
0.0000 1.3103 0.0000
0.0000 1.3448 0.0000
0.0000 1.3793 0.0000
0.0000 1.4138 0.0000
0.0000 1.4483 0.0000
0.0000 1.4828 0.0000
0.0000 1.5172 0.0000
0.0000 1.5517 0.0000
0.0000 1.5862 0.0000
0.0000 1.6207 0.0000
0.0000 1.6552 0.0000
0.0000 1.6897 0.0000
0.0000 1.7241 0.0000
0.0000 1.7586 0.0000
0.0000 1.7931 0.0000
0.0000 1.8276 0.0000
0.0000 1.8621 0.0000
0.0000 1.8966 0.0000
0.0000 1.9310 0.0000
0.0000 1.9655 0.0000
0.0000 2.0000 0.0000
0.0690 1.0000 0.0000
0.0690 1.0345 0.0000
0.0690 1.0690 0.0000
0.0690 1.1034 0.0000
0.0690 1.1379 0.0000
0.0690 1.1724 0.0000
0.0690 1.2069 0.0000
0.0690 1.2414 0.0000
0.0690 1.2759 0.0000
0.0690 1.3103 0.0000
0.0690 1.3448 0.0000
0.0690 1.3793 0.0000
0.0690 1.4138 0.0000
0.0690 1.4483 0.0000
0.0690 1.4828 0.0000
0.0690 1.5172 0.0000
0.0690 1.5517 0.0000
0.0690 1.5862 0.0000
0.0690 1.6207 0.0000
0.0690 1.6552 0.0000
0.0690 1.6897 0.0000
0.0690 1.7241 0.0000
0.0690 1.7586 0.0000
0.0690 1.7931 0.0000
0.0690 1.8276 0.0000
0.0690 1.8621 0.0000
0.0690 1.8966 0.0000
0.0690 1.9310 0.0000
0.0690 1.9655 0.0000
0.0690 2.0000 0.0000
0.1379 1.0000 0.0000
0.1379 1.0345 0.0000
0.1379 1.0690 0.0000
0.1379 1.1034 0.0000
0.1379 1.1379 0.0000
0.1379 1.1724 0.0000
0.1379 1.2069 0.0000
0.1379 1.2414 0.0000
0.1379 1.2759 0.0000
0.1379 1.3103 0.0000
0.1379 1.3448 0.0000
0.1379 1.3793 0.0000
0.1379 1.4138 0.0000
0.1379 1.4483 0.0000
0.1379 1.4828 0.0000
0.1379 1.5172 0.0000
0.1379 1.5517 0.0000
0.1379 1.5862 0.0000
0.1379 1.6207 0.0000
0.1379 1.6552 0.0000
0.1379 1.6897 0.0000
0.1379 1.7241 0.0000
0.1379 1.7586 0.0000
0.1379 1.7931 0.0000
0.1379 1.8276 0.0000
0.1379 1.8621 0.0000
0.1379 1.8966 0.0000
0.1379 1.9310 0.0000
0.1379 1.9655 0.0000
0.1379 2.0000 0.0000
0.2069 1.0000 0.0000
0.2069 1.0345 0.0000
0.2069 1.0690 0.0000
0.2069 1.1034 0.0000
0.2069 1.1379 0.0000
0.2069 1.1724 0.0000
0.2069 1.2069 0.0000
0.2069 1.2414 0.0000
0.2069 1.2759 0.0000
0.2069 1.3103 0.0000
0.2069 1.3448 0.0000
0.2069 1.3793 0.0000
0.2069 1.4138 0.0000
0.2069 1.4483 0.0000
0.2069 1.4828 0.0000
0.2069 1.5172 0.0000
0.2069 1.5517 0.0000
0.2069 1.5862 0.0000
0.2069 1.6207 0.0000
0.2069 1.6552 0.0000
0.2069 1.6897 0.0000
0.2069 1.7241 0.0000
0.2069 1.7586 0.0000
0.2069 1.7931 0.0000
0.2069 1.8276 0.0000
0.2069 1.8621 0.0000
0.2069 1.8966 0.0000
0.2069 1.9310 0.0000
0.2069 1.9655 0.0000
0.2069 2.0000 0.0000
0.2759 1.0000 0.0000
0.2759 1.0345 0.0000
0.2759 1.0690 0.0000
0.2759 1.1034 0.0000
0.2759 1.1379 0.0000
0.2759 1.1724 0.0000
0.2759 1.2069 0.0000
0.2759 1.2414 0.0000
0.2759 1.2759 0.0000
0.2759 1.3103 0.0000
0.2759 1.3448 0.0000
0.2759 1.3793 0.0000
0.2759 1.4138 0.0000
0.2759 1.4483 0.0000
0.2759 1.4828 0.0000
0.2759 1.5172 0.0000
0.2759 1.5517 0.0000
0.2759 1.5862 0.0000
0.2759 1.6207 0.0000
0.2759 1.6552 0.0000
0.2759 1.6897 0.0000
0.2759 1.7241 0.0000
0.2759 1.7586 0.0000
0.2759 1.7931 0.0000
0.2759 1.8276 0.0000
0.2759 1.8621 0.0000
0.2759 1.8966 0.0000
0.2759 1.9310 0.0000
0.2759 1.9655 0.0000
0.2759 2.0000 0.0000
0.3448 1.0000 0.0000
0.3448 1.0345 0.0000
0.3448 1.0690 0.0000
0.3448 1.1034 0.0000
0.3448 1.1379 0.0000
0.3448 1.1724 0.0000
0.3448 1.2069 0.0000
0.3448 1.2414 0.0000
0.3448 1.2759 0.0000
0.3448 1.3103 0.0000
0.3448 1.3448 0.0000
0.3448 1.3793 0.0000
0.3448 1.4138 0.0000
0.3448 1.4483 0.0000
0.3448 1.4828 0.0000
0.3448 1.5172 0.0000
0.3448 1.5517 0.0000
0.3448 1.5862 0.0000
0.3448 1.6207 0.0000
0.3448 1.6552 0.0000
0.3448 1.6897 0.0000
0.3448 1.7241 0.0000
0.3448 1.7586 0.0000
0.3448 1.7931 0.0000
0.3448 1.8276 0.0000
0.3448 1.8621 0.0000
0.3448 1.8966 0.0000
0.3448 1.9310 0.0000
0.3448 1.9655 0.0000
0.3448 2.0000 0.0000
0.4138 1.0000 0.0000
0.4138 1.0345 0.0000
0.4138 1.0690 0.0000
0.4138 1.1034 0.0000
0.4138 1.1379 0.0000
0.4138 1.1724 0.0000
0.4138 1.2069 0.0000
0.4138 1.2414 0.0000
0.4138 1.2759 0.0000
0.4138 1.3103 0.0000
0.4138 1.3448 0.0000
0.4138 1.3793 0.0000
0.4138 1.4138 0.0000
0.4138 1.4483 0.0000
0.4138 1.4828 0.0000
0.4138 1.5172 0.0000
0.4138 1.5517 0.0000
0.4138 1.5862 0.0000
0.4138 1.6207 0.0000
0.4138 1.6552 0.0000
0.4138 1.6897 0.0000
0.4138 1.7241 0.0000
0.4138 1.7586 0.0000
0.4138 1.7931 0.0000
0.4138 1.8276 0.0000
0.4138 1.8621 0.0000
0.4138 1.8966 0.0000
0.4138 1.9310 0.0000
0.4138 1.9655 0.0000
0.4138 2.0000 0.0000
0.4828 1.0000 0.0000
0.4828 1.0345 0.0000
0.4828 1.0690 0.0000
0.4828 1.1034 0.0000
0.4828 1.1379 0.0000
0.4828 1.1724 0.0000
0.4828 1.2069 0.0000
0.4828 1.2414 0.0000
0.4828 1.2759 0.0000
0.4828 1.3103 0.0000
0.4828 1.3448 0.0000
0.4828 1.3793 0.0000
0.4828 1.4138 0.0000
0.4828 1.4483 0.0000
0.4828 1.4828 0.0000
0.4828 1.5172 0.0000
0.4828 1.5517 0.0000
0.4828 1.5862 0.0000
0.4828 1.6207 0.0000
0.4828 1.6552 0.0000
0.4828 1.6897 0.0000
0.4828 1.7241 0.0000
0.4828 1.7586 0.0000
0.4828 1.7931 0.0000
0.4828 1.8276 0.0000
0.4828 1.8621 0.0000
0.4828 1.8966 0.0000
0.4828 1.9310 0.0000
0.4828 1.9655 0.0000
0.4828 2.0000 0.0000
0.5517 1.0000 0.0000
0.5517 1.0345 0.0000
0.5517 1.0690 0.0000
0.5517 1.1034 0.0000
0.5517 1.1379 0.0000
0.5517 1.1724 0.0000
0.5517 1.2069 0.0000
0.5517 1.2414 0.0000
0.5517 1.2759 0.0000
0.5517 1.3103 0.0000
0.5517 1.3448 0.0000
0.5517 1.3793 0.0000
0.5517 1.4138 0.0000
0.5517 1.4483 0.0000
0.5517 1.4828 0.0000
0.5517 1.5172 0.0000
0.5517 1.5517 0.0000
0.5517 1.5862 0.0000
0.5517 1.6207 0.0000
0.5517 1.6552 0.0000
0.5517 1.6897 0.0000
0.5517 1.7241 0.0000
0.5517 1.7586 0.0000
0.5517 1.7931 0.0000
0.5517 1.8276 0.0000
0.5517 1.8621 0.0000
0.5517 1.8966 0.0000
0.5517 1.9310 0.0000
0.5517 1.9655 0.0000
0.5517 2.0000 0.0000
0.6207 1.0000 0.0000
0.6207 1.0345 0.0000
0.6207 1.0690 0.0000
0.6207 1.1034 0.0000
0.6207 1.1379 0.0000
0.6207 1.1724 0.0000
0.6207 1.2069 0.0000
0.6207 1.2414 0.0000
0.6207 1.2759 0.0000
0.6207 1.3103 0.0000
0.6207 1.3448 0.0000
0.6207 1.3793 0.0000
0.6207 1.4138 0.0000
0.6207 1.4483 0.0000
0.6207 1.4828 0.0000
0.6207 1.5172 0.0000
0.6207 1.5517 0.0000
0.6207 1.5862 0.0000
0.6207 1.6207 0.0000
0.6207 1.6552 0.0000
0.6207 1.6897 0.0000
0.6207 1.7241 0.0000
0.6207 1.7586 0.0000
0.6207 1.7931 0.0000
0.6207 1.8276 0.0000
0.6207 1.8621 0.0000
0.6207 1.8966 0.0000
0.6207 1.9310 0.0000
0.6207 1.9655 0.0000
0.6207 2.0000 0.0000
0.6897 1.0000 0.0000
0.6897 1.0345 0.0000
0.6897 1.0690 0.0000
0.6897 1.1034 0.0000
0.6897 1.1379 0.0000
0.6897 1.1724 0.0000
0.6897 1.2069 0.0000
0.6897 1.2414 0.0000
0.6897 1.2759 0.0000
0.6897 1.3103 0.0000
0.6897 1.3448 0.0000
0.6897 1.3793 0.0000
0.6897 1.4138 0.0000
0.6897 1.4483 0.0000
0.6897 1.4828 0.0000
0.6897 1.5172 0.0000
0.6897 1.5517 0.0000
0.6897 1.5862 0.0000
0.6897 1.6207 0.0000
0.6897 1.6552 0.0000
0.6897 1.6897 0.0000
0.6897 1.7241 0.0000
0.6897 1.7586 0.0000
0.6897 1.7931 0.0000
0.6897 1.8276 0.0000
0.6897 1.8621 0.0000
0.6897 1.8966 0.0000
0.6897 1.9310 0.0000
0.6897 1.9655 0.0000
0.6897 2.0000 0.0000
0.7586 1.0000 0.0000
0.7586 1.0345 0.0000
0.7586 1.0690 0.0000
0.7586 1.1034 0.0000
0.7586 1.1379 0.0000
0.7586 1.1724 0.0000
0.7586 1.2069 0.0000
0.7586 1.2414 0.0000
0.7586 1.2759 0.0000
0.7586 1.3103 0.0000
0.7586 1.3448 0.0000
0.7586 1.3793 0.0000
0.7586 1.4138 0.0000
0.7586 1.4483 0.0000
0.7586 1.4828 0.0000
0.7586 1.5172 0.0000
0.7586 1.5517 0.0000
0.7586 1.5862 0.0000
0.7586 1.6207 0.0000
0.7586 1.6552 0.0000
0.7586 1.6897 0.0000
0.7586 1.7241 0.0000
0.7586 1.7586 0.0000
0.7586 1.7931 0.0000
0.7586 1.8276 0.0000
0.7586 1.8621 0.0000
0.7586 1.8966 0.0000
0.7586 1.9310 0.0000
0.7586 1.9655 0.0000
0.7586 2.0000 0.0000
0.8276 1.0000 0.0000
0.8276 1.0345 0.0000
0.8276 1.0690 0.0000
0.8276 1.1034 0.0000
0.8276 1.1379 0.0000
0.8276 1.1724 0.0000
0.8276 1.2069 0.0000
0.8276 1.2414 0.0000
0.8276 1.2759 0.0000
0.8276 1.3103 0.0000
0.8276 1.3448 0.0000
0.8276 1.3793 0.0000
0.8276 1.4138 0.0000
0.8276 1.4483 0.0000
0.8276 1.4828 0.0000
0.8276 1.5172 0.0000
0.8276 1.5517 0.0000
0.8276 1.5862 0.0000
0.8276 1.6207 0.0000
0.8276 1.6552 0.0000
0.8276 1.6897 0.0000
0.8276 1.7241 0.0000
0.8276 1.7586 0.0000
0.8276 1.7931 0.0000
0.8276 1.8276 0.0000
0.8276 1.8621 0.0000
0.8276 1.8966 0.0000
0.8276 1.9310 0.0000
0.8276 1.9655 0.0000
0.8276 2.0000 0.0000
0.8966 1.0000 0.0000
0.8966 1.0345 0.0000
0.8966 1.0690 0.0000
0.8966 1.1034 0.0000
0.8966 1.1379 0.0000
0.8966 1.1724 0.0000
0.8966 1.2069 0.0000
0.8966 1.2414 0.0000
0.8966 1.2759 0.0000
0.8966 1.3103 0.0000
0.8966 1.3448 0.0000
0.8966 1.3793 0.0000
0.8966 1.4138 0.0000
0.8966 1.4483 0.0000
0.8966 1.4828 0.0000
0.8966 1.5172 0.0000
0.8966 1.5517 0.0000
0.8966 1.5862 0.0000
0.8966 1.6207 0.0000
0.8966 1.6552 0.0000
0.8966 1.6897 0.0000
0.8966 1.7241 0.0000
0.8966 1.7586 0.0000
0.8966 1.7931 0.0000
0.8966 1.8276 0.0000
0.8966 1.8621 0.0000
0.8966 1.8966 0.0000
0.8966 1.9310 0.0000
0.8966 1.9655 0.0000
0.8966 2.0000 0.0000
0.9655 1.0000 0.0000
0.9655 1.0345 0.0000
0.9655 1.0690 0.0000
0.9655 1.1034 0.0000
0.9655 1.1379 0.0000
0.9655 1.1724 0.0000
0.9655 1.2069 0.0000
0.9655 1.2414 0.0000
0.9655 1.2759 0.0000
0.9655 1.3103 0.0000
0.9655 1.3448 0.0000
0.9655 1.3793 0.0000
0.9655 1.4138 0.0000
0.9655 1.4483 0.0000
0.9655 1.4828 0.0000
0.9655 1.5172 0.0000
0.9655 1.5517 0.0000
0.9655 1.5862 0.0000
0.9655 1.6207 0.0000
0.9655 1.6552 0.0000
0.9655 1.6897 0.0000
0.9655 1.7241 0.0000
0.9655 1.7586 0.0000
0.9655 1.7931 0.0000
0.9655 1.8276 0.0000
0.9655 1.8621 0.0000
0.9655 1.8966 0.0000
0.9655 1.9310 0.0000
0.9655 1.9655 0.0000
0.9655 2.0000 0.0000
1.0345 1.0000 0.0000
1.0345 1.0345 0.0000
1.0345 1.0690 0.0000
1.0345 1.1034 0.0000
1.0345 1.1379 0.0000
1.0345 1.1724 0.0000
1.0345 1.2069 0.0000
1.0345 1.2414 0.0000
1.0345 1.2759 0.0000
1.0345 1.3103 0.0000
1.0345 1.3448 0.0000
[...]
         <PointData>
            <DataArray Name="fValues" NumberOfComponents="3" format="ascii" type="Float64">
 1.69977e-31  1.64622e-30        00000 
-5.21333e-31 -5.01696e-30        00000 
 3.03058e-30  2.89399e-29        00000 
-1.81014e-29 -1.71451e-28        00000 
 1.08302e-28  1.01661e-27        00000 
-6.48605e-28 -6.02766e-27        00000 
 3.88780e-27  3.57283e-26        00000 
-2.33208e-26 -2.11634e-25        00000 
 1.39947e-25  1.25206e-24        00000 
-8.39695e-25 -7.39159e-24        00000 
 5.03218e-24  4.34799e-23        00000 
-3.00612e-23 -2.54205e-22        00000 
 1.78324e-22  1.47046e-21        00000 
-1.04225e-21 -8.34106e-21        00000 
 5.89899e-21  4.54933e-20        00000 
-3.09777e-20 -2.26416e-19        00000 
 1.33978e-19  8.46395e-19        00000 
-4.83066e-19 -2.05054e-18        00000 
 3.95216e-19  2.67684e-18        00000 
-1.34942e-19 -1.56772e-18        00000 
 4.70874e-21  2.01083e-19        00000 
 3.25965e-21  1.90921e-19        00000 
-1.86655e-21 -3.79616e-20        00000 
-1.42828e-22  8.06745e-21        00000 
 6.73147e-23 -1.56211e-21        00000 
-1.53292e-23  2.87037e-22        00000 
 2.95998e-24 -5.12051e-23        00000 
-5.35516e-25  8.98177e-24        00000 
 9.64108e-26 -1.60125e-24        00000 
-3.22316e-26  5.35312e-25        00000 
-1.64521e-31 -1.60800e-30        00000 
 5.03985e-31  4.89855e-30        00000 
-2.92561e-30 -2.82462e-29        00000 
 1.74502e-29  1.67300e-28        00000 
-1.04260e-28 -9.91916e-28        00000 
 6.23552e-28  5.88227e-27        00000 
-3.73300e-27 -3.48859e-26        00000 
 2.23703e-26  2.06880e-25        00000 
-1.34182e-25 -1.22645e-24        00000 
 8.05511e-25  7.26582e-24        00000 
-4.83840e-24 -4.29923e-23        00000 
 2.90672e-23  2.53871e-22        00000 
-1.74528e-22 -1.49420e-21        00000 
 1.04611e-21  8.74887e-21        00000 
-6.24739e-21 -5.08192e-20        00000 
 3.70251e-20  2.91762e-19        00000 
-2.13513e-19 -1.64359e-18        00000 
 8.97593e-19  5.99362e-18        00000 
-2.25918e-18 -1.17770e-17        00000 
-5.00932e-19  4.30989e-18        00000 
-2.31952e-19  1.32662e-18        00000 
-2.87314e-20 -2.18297e-19        00000 
-2.57941e-21  5.22244e-20        00000 
 5.57708e-22 -9.72765e-21        00000 
-1.03993e-22  1.74090e-21        00000 
 1.85544e-23 -3.05629e-22        00000 
-3.23246e-24  5.30404e-23        00000 
 5.55586e-25 -9.14339e-24        00000 
-9.72066e-26  1.61117e-24        00000 
 3.20035e-26 -5.34753e-25        00000 
 1.49078e-31  1.49722e-30        00000 
-4.54936e-31 -4.55458e-30        00000 
 2.62913e-30  2.62246e-29        00000 
-1.56117e-29 -1.55145e-28        00000 
 9.28456e-29  9.19101e-28        00000 
-5.52677e-28 -5.44883e-27        00000 
 3.29342e-27  3.23310e-26        00000 
-1.96517e-26 -1.92050e-25        00000 
 1.17465e-25  1.14249e-24        00000 
-7.03840e-25 -6.81078e-24        00000 
 4.23249e-24  4.07263e-23        00000 
-2.55958e-23 -2.44692e-22        00000 
 1.56246e-22  1.48155e-21        00000 
-9.69384e-22 -9.08813e-21        00000 
 6.19043e-21  5.70378e-20        00000 
-4.16164e-20 -3.73009e-19        00000 
 3.05926e-19  2.63273e-18        00000 
-2.67366e-18 -2.38416e-17        00000 
-7.50427e-02 -2.21074e-01        00000 
 7.50427e-02 -2.21074e-01        00000 
       00000 -3.12011e-18        00000 
-1.15607e-19  5.56126e-19        00000 
 9.34002e-21 -8.12194e-20        00000 
-1.13385e-21  1.27559e-20        00000 
 1.54892e-22 -2.05381e-21        00000 
-2.28534e-23  3.36398e-22        00000 
 3.54222e-24 -5.57264e-23        00000 
-5.66393e-25  9.30613e-24        00000 
 9.46495e-26 -1.60322e-24        00000 
-3.03437e-26  5.24417e-25        00000 
-1.26210e-31 -1.32545e-30        00000 
 3.82505e-31  4.01988e-30        00000 
-2.19248e-30 -2.30681e-29        00000 
 1.29094e-29  1.36042e-28        00000 
-7.60816e-29 -8.03509e-28        00000 
 4.48504e-28  4.75042e-27        00000 
-2.64498e-27 -2.81203e-26        00000 
 1.56086e-26  1.66744e-25        00000 
-9.22117e-26 -9.91053e-25        00000 
 5.45774e-25  5.90972e-24        00000 
-3.24024e-24 -3.54035e-23        00000 
 1.93346e-23  2.13492e-22        00000 
-1.16315e-22 -1.29951e-21        00000 
 7.08726e-22  8.01397e-21        00000 
-4.40151e-21 -5.02904e-20        00000 
 2.80828e-20  3.22121e-19        00000 
-1.86648e-19 -2.09227e-18        00000 
 1.37235e-18  1.12079e-17        00000 
 7.50427e-02 -2.21074e-01        00000 
-7.50427e-02 -2.21074e-01        00000 
-4.81390e-19  4.88113e-18        00000 
 3.62518e-20 -6.13621e-19        00000 
-6.92693e-21  8.84817e-20        00000 
 9.48421e-22 -1.33198e-20        00000 
-1.35397e-22  2.07779e-21        00000 
 2.01035e-23 -3.31642e-22        00000 
-3.08825e-24  5.37986e-23        00000 
 4.87774e-25 -8.83658e-24        00000 
-8.06331e-26  1.50246e-24        00000 
 2.56691e-26 -4.87012e-25        00000 
 9.95131e-32  1.11159e-30        00000 
-2.98397e-31 -3.35317e-30        00000 
 1.68836e-30  1.91207e-29        00000 
-9.80568e-30 -1.12039e-28        00000 
 5.69167e-29  6.57202e-28        00000 
-3.29839e-28 -3.85672e-27        00000 
 1.90777e-27  2.26456e-26        00000 
-1.10086e-26 -1.33072e-25        00000 
 6.33401e-26  7.82761e-25        00000 
-3.63051e-25 -4.61015e-24        00000 
 2.06970e-24  2.71897e-23        00000 
-1.16987e-23 -1.60548e-22        00000 
 6.51221e-23  9.48028e-22        00000 
-3.51281e-22 -5.57871e-21        00000 
 1.75555e-21  3.24102e-20        00000 
-6.83037e-21 -1.81290e-19        00000 
-6.54693e-21  9.03494e-19        00000 
 8.95589e-19 -4.05511e-18        00000 
-5.29156e-19  4.59336e-18        00000 
 6.76514e-19  1.10902e-17        00000 
-2.12425e-19 -9.65116e-19        00000 
 1.63072e-20  3.59786e-19        00000 
 9.01360e-23 -6.12012e-20        00000 
-2.59969e-22  1.00979e-20        00000 
 5.84362e-23 -1.65308e-21        00000 
-1.07437e-23  2.71312e-22        00000 
 1.86189e-24 -4.47539e-23        00000 
-3.16674e-25  7.42743e-24        00000 
 5.50222e-26 -1.27160e-24        00000 
-1.80860e-26  4.14008e-25        00000 
-7.27741e-32 -8.79581e-31        00000 
 2.14902e-31  2.63097e-30        00000 
-1.19307e-30 -1.48493e-29        00000 
 6.78808e-30  8.60694e-29        00000 
-3.84869e-29 -4.98783e-28        00000 
 2.17039e-28  2.88705e-27        00000 
-1.21550e-27 -1.66849e-26        00000 
 6.74540e-27  9.62281e-26        00000 
-3.69659e-26 -5.53401e-25        00000 
 1.98921e-25  3.16928e-24        00000 
-1.04056e-24 -1.80334e-23        00000 
 5.18716e-24  1.01549e-22        00000 
-2.35420e-23 -5.61887e-22        00000 
 8.44964e-23  3.01447e-21        00000 
-6.67124e-23 -1.52789e-20        00000 
-3.02036e-21  6.94592e-20        00000 
 4.04077e-20 -2.63328e-19        00000 
-9.56861e-20  5.14394e-19        00000 
 1.09265e-19 -6.20924e-20        00000 
-8.79693e-20 -7.05341e-19        00000 
 4.83566e-20  5.45470e-19        00000 
-1.29092e-20 -1.08913e-19        00000 
 1.69297e-21  2.77592e-20        00000 
-1.40652e-22 -5.52999e-21        00000 
 2.89861e-24  1.01552e-21        00000 
 1.91865e-24 -1.79711e-22        00000 
-5.96619e-25  3.12310e-23        00000 
 1.32481e-25 -5.38172e-24        00000 
-2.70526e-26  9.48354e-25        00000 
 9.80536e-27 -3.15076e-25        00000 
 4.91122e-32  6.54181e-31        00000 
-1.42013e-31 -1.93326e-30        00000 
 7.67750e-31  1.07499e-29        00000 
-4.24178e-30 -6.13146e-29        00000 
 2.32384e-29  3.48898e-28        00000 
-1.25783e-28 -1.97743e-27        00000 
 6.69944e-28  1.11500e-26        00000 
-3.48955e-27 -6.24492e-26        00000 
 1.75941e-26  3.46614e-25        00000 
-8.42958e-26 -1.89980e-24        00000 
 3.69408e-25  1.02271e-23        00000 
-1.33906e-24 -5.36084e-23        00000 
 2.43866e-24  2.69771e-22        00000 
 1.96308e-23 -1.27233e-21        00000 
-3.01021e-22  5.39350e-21        00000 
 2.33140e-21 -1.91123e-20        00000 
-7.79362e-21  4.55415e-20        00000 
 1.42318e-20 -5.19010e-20        00000 
-1.67254e-20 -4.23400e-21        00000 
 1.40213e-20  7.45614e-20        00000 
-8.52026e-21 -7.72372e-20        00000 
 3.49663e-21  3.53866e-20        00000 
-8.94685e-22 -9.21429e-21        00000 
 1.50468e-22  2.26943e-21        00000 
-1.94269e-23 -4.87041e-22        00000 
 1.95741e-24  9.63621e-23        00000 
-1.17513e-25 -1.81719e-23        00000 
-1.13471e-26  3.33039e-24        00000 
 6.68512e-27 -6.16529e-25        00000 
-3.37657e-27  2.12217e-25        00000 
-3.03987e-32 -4.55822e-31        00000 
 8.54703e-32  1.32563e-30        00000 
-4.45640e-31 -7.22525e-30        00000 
 2.36354e-30  4.03268e-29        00000 
-1.23286e-29 -2.23861e-28        00000 
 6.28058e-29  1.23294e-27        00000 
-3.09538e-28 -6.72272e-27        00000 
 1.45244e-27  3.61826e-26        00000 
-6.29259e-27 -1.91420e-25        00000 
 2.34277e-26  9.89383e-25        00000 
-5.77678e-26 -4.95132e-24        00000 
-1.09458e-25  2.36650e-23        00000 
 2.91810e-24 -1.05738e-22        00000 
-2.59559e-23  4.26780e-22        00000 
 1.56915e-22 -1.46982e-21        00000 
-5.84295e-22  3.85091e-21        00000 
 1.38275e-21 -6.57771e-21        00000 
-2.22328e-21  5.61967e-21        00000 
 2.57698e-21  1.41376e-21        00000 
-2.24232e-21 -9.26091e-21        00000 
 1.48271e-21  1.07810e-20        00000 
-7.31881e-22 -6.72908e-21        00000 
 2.61292e-22  2.62536e-21        00000 
-6.67698e-23 -7.46655e-22        00000 
 1.28765e-23  1.87895e-22        00000 
-2.04835e-24 -4.23899e-23        00000 
 2.80713e-25  8.86092e-24        00000 
-3.28478e-26 -1.76096e-24        00000 
 2.85149e-27  3.48572e-25        00000 
-1.04645e-28 -1.25982e-25        00000 
 1.71231e-32  2.96814e-31        00000 
-4.63937e-32 -8.45991e-31        00000 
 2.30293e-31  4.49608e-30        00000 
-1.15362e-30 -2.44164e-29        00000 
 5.60327e-30  1.31370e-28        00000 
-2.60016e-29 -6.97886e-28        00000 
 1.12476e-28  3.64832e-27        00000 
-4.30402e-28 -1.86837e-26        00000 
 1.24765e-27  9.31506e-26        00000 
-5.33102e-28 -4.48160e-25        00000 
-3.00514e-26  2.05448e-24        00000 
 3.13046e-25 -8.80879e-24        00000 
-2.17419e-24  3.43539e-23        00000 
 1.15003e-23 -1.16768e-22        00000 
-4.40821e-23  3.22892e-22        00000 
 1.20371e-22 -6.65485e-22        00000 
-2.38671e-22  9.16874e-22        00000 
 3.53877e-22 -6.39271e-22        00000 
-4.03227e-22 -2.81904e-22        00000 
 3.60072e-22  1.24972e-21        00000 
-2.53991e-22 -1.54049e-21        00000 
 1.40886e-22  1.13498e-21        00000 
-6.07001e-23 -5.66294e-22        00000 
 2.01347e-23  2.06416e-22        00000 
-5.20047e-24 -6.05289e-23        00000 
 1.09150e-24  1.56364e-23        00000 
-1.96701e-25 -3.66529e-24        00000 
 3.15673e-26  8.00720e-25        00000 
-4.63954e-27 -1.71902e-25        00000 
 1.18421e-27  6.59540e-26        00000 
-8.68169e-33 -1.80311e-31        00000 
 2.23860e-32  5.01645e-31        00000 
-1.03758e-31 -2.58604e-30        00000 
 4.77984e-31  1.35887e-29        00000 
-2.07323e-30 -7.04236e-29        00000 
 8.13007e-30  3.58333e-28        00000 
-2.60731e-29 -1.78188e-27        00000 
 4.19303e-29  8.60663e-27        00000 
 2.85937e-28 -4.00441e-26        00000 
-3.92827e-27  1.77429e-25        00000 
 3.02392e-26 -7.36803e-25        00000 
-1.81511e-25  2.80361e-24        00000 
 8.84290e-25 -9.46607e-24        00000 
-3.39910e-24  2.70998e-23        00000 
 1.00682e-23 -6.22191e-23        00000 
-2.29399e-23  1.07585e-22        00000 
 4.06624e-23 -1.27301e-22        00000 
-5.69426e-23  7.47791e-23        00000 
 6.39175e-23  5.05081e-23        00000 
-5.81316e-23 -1.77435e-22        00000 
 4.30624e-23  2.25414e-22        00000 
-2.59653e-23 -1.84098e-22        00000 
 1.26823e-23  1.07678e-22        00000 
-4.99437e-24 -4.75427e-23        00000 
 1.58962e-24  1.66878e-23        00000 
-4.15906e-25 -4.95044e-24        00000 
 9.24250e-26  1.30713e-24        00000 
-1.81124e-26 -3.16395e-25        00000 
 3.29268e-27  7.44337e-26        00000 
-1.05106e-27 -3.05636e-26        00000 
 3.89247e-33  1.02094e-31        00000 
-9.36237e-33 -2.76169e-31        00000 
 3.91069e-32  1.37404e-30        00000 
-1.56306e-31 -6.94962e-30        00000 
 5.37073e-31  3.44925e-29        00000 
-1.24202e-30 -1.67041e-28        00000 
-1.75434e-30  7.84681e-28        00000 
 4.91632e-29 -3.54811e-27        00000 
-4.27073e-28  1.52863e-26        00000 
 2.78904e-27 -6.18977e-26        00000 
-1.51986e-26  2.31279e-25        00000 
 7.00173e-26 -7.78041e-25        00000 
-2.67675e-25  2.28197e-24        00000 
 8.31831e-25 -5.61670e-24        00000 
-2.08168e-24  1.11273e-23        00000 
 4.20012e-24 -1.68586e-23        00000 
-6.88036e-24  1.77493e-23        00000 
 9.23288e-24 -8.83962e-24        00000 
-1.02355e-23 -8.71351e-24        00000 
 9.43494e-24  2.60700e-23        00000 
-7.25765e-24 -3.36521e-23        00000 
 4.66138e-24  2.94606e-23        00000 
-2.49528e-24 -1.92396e-23        00000 
 1.11089e-24  9.78196e-24        00000 
-4.11569e-25 -4.00479e-24        00000 
 1.27831e-25  1.37088e-24        00000 
-3.38553e-26 -4.08693e-25        00000 
 7.84765e-27  1.10027e-25        00000 
-1.68439e-27 -2.85542e-26        00000 
 6.21263e-28  1.26131e-26        00000 
-1.49136e-33 -5.38652e-32        00000 
 3.21078e-33  1.41159e-31        00000 
-1.10230e-32 -6.74630e-31        00000 
 3.05132e-32  3.26864e-30        00000 
-1.92200e-32 -1.54571e-29        00000 
-5.82084e-31  7.08571e-29        00000 
 6.05031e-30 -3.12648e-28        00000 
-4.28032e-29  1.31589e-27        00000 
 2.51255e-28 -5.22153e-27        00000 
-1.27811e-27  1.92417e-26        00000 
 5.65283e-27 -6.45933e-26        00000 
-2.14459e-26  1.92865e-25        00000 
 6.86411e-26 -4.98230e-25        00000 
-1.83284e-25  1.08081e-24        00000 
 4.06704e-25 -1.90449e-24        00000 
-7.51143e-25  2.60165e-24        00000 
 1.15989e-24 -2.48914e-24        00000 
-1.50582e-24  1.03837e-24        00000 
 1.65227e-24  1.47906e-24        00000 
-1.53868e-24 -3.92562e-24        00000 
 1.21926e-24  5.10727e-24        00000 
-8.22803e-25 -4.69735e-24        00000 
 4.72653e-25  3.32497e-24        00000 
-2.30921e-25 -1.87972e-24        00000 
 9.59900e-26  8.70557e-25        00000 
-3.40755e-26 -3.38677e-25        00000 
 1.04253e-26  1.13844e-25        00000 
-2.79580e-27 -3.41268e-26        00000 
 6.95500e-28  9.80642e-27        00000 
-2.89654e-28 -4.67106e-27        00000 
 4.47870e-34  2.64916e-32        00000 
-7.54789e-34 -6.70389e-32        00000 
 1.19162e-33  3.06435e-31        00000 
 5.82504e-33 -1.41628e-30        00000 
-8.44519e-32  6.35366e-30        00000 
 6.56445e-31 -2.74490e-29        00000 
-4.10560e-30  1.13281e-28        00000 
 2.23408e-29 -4.42139e-28        00000 
-1.07938e-28  1.61176e-27        00000 
 4.62729e-28 -5.40367e-27        00000 
-1.74182e-27  1.63576e-26        00000 
 5.68128e-27 -4.37833e-26        00000 
-1.58847e-26  1.01328e-25        00000 
 3.78411e-26 -1.97973e-25        00000 
-7.66786e-26  3.17288e-25        00000 
 1.32344e-25 -3.98448e-25        00000 
-1.95150e-25  3.50910e-25        00000 
 2.46743e-25 -1.18702e-25        00000 
-2.68435e-25 -2.49168e-25        00000 
 2.51990e-25  6.02093e-25        00000 
-2.04501e-25 -7.85656e-25        00000 
 1.43603e-25  7.49374e-25        00000 
-8.72617e-26 -5.63885e-25        00000 
 4.58772e-26  3.46042e-25        00000 
-2.08767e-26 -1.76846e-25        00000 
 8.24078e-27  7.66600e-26        00000 
-2.83705e-27 -2.87541e-26        00000 
 8.61978e-28  9.57222e-27        00000 
-2.44912e-28 -3.04884e-27        00000 
 1.13584e-28  1.56593e-27        00000 
-7.14390e-35 -1.21568e-32        00000 
-1.29754e-35  2.96234e-32        00000 
 1.12628e-33 -1.29017e-31        00000 
-9.99859e-33  5.66818e-31        00000 
 6.67264e-32 -2.40407e-30        00000 
-3.83531e-31  9.75715e-30        00000 
 1.97131e-30 -3.75648e-29        00000 
-9.15041e-30  1.35756e-28        00000 
 3.82708e-29 -4.54783e-28        00000 
-1.43004e-28  1.39174e-27        00000 
 4.72322e-28 -3.82761e-27        00000 
-1.36567e-27  9.29714e-27        00000 
 3.43365e-27 -1.95849e-26        00000 
-7.48125e-27  3.50660e-26        00000 
 1.41151e-26 -5.19600e-26        00000 
-2.30863e-26  6.07973e-26        00000 
 3.28020e-26 -4.96652e-26        00000 
-4.05876e-26  1.27588e-26        00000 
 4.38402e-26  4.18256e-26        00000 
-4.14195e-26 -9.36706e-26        00000 
 3.42776e-26  1.22219e-25        00000 
-2.48681e-26 -1.19832e-25        00000 
 1.58215e-26  9.45848e-26        00000 
-8.82839e-27 -6.19465e-26        00000 
 4.32263e-27  3.42801e-26        00000 
-1.85992e-27 -1.62641e-26        00000 
 7.05785e-28  6.71532e-27        00000 
-2.38481e-28 -2.46435e-27        00000 
 7.62887e-29  8.68188e-28        00000 
-3.89020e-29 -4.79712e-28        00000 
-2.75932e-35  5.21297e-33        00000 
 1.48970e-34 -1.22043e-32        00000 
-1.07716e-33  5.04817e-32        00000 
 6.52248e-33 -2.10247e-31        00000 
-3.52225e-32  8.41073e-31        00000 
 1.73139e-31 -3.20108e-30        00000 
-7.78341e-31  1.14870e-29        00000 
 3.19064e-30 -3.84624e-29        00000 
-1.18426e-29  1.18748e-28        00000 
 3.94517e-29 -3.33641e-28        00000 
-1.16970e-28  8.41325e-28        00000 
 3.06622e-28 -1.87684e-27        00000 
-7.07613e-28  3.64785e-27        00000 
 1.43472e-27 -6.06707e-27        00000 
-2.55493e-27  8.41378e-27        00000 
 3.99944e-27 -9.26108e-27        00000 
-5.51155e-27  7.04556e-27        00000 
 6.69820e-27 -1.19279e-27        00000 
-7.19104e-27 -7.00971e-27        00000 
 6.82980e-27  1.47386e-26        00000 
-5.74494e-27 -1.91918e-26        00000 
 4.28291e-27  1.92222e-26        00000 
-2.83105e-27 -1.57633e-26        00000 
 1.65973e-27  1.08825e-26        00000 
-8.63420e-28 -6.42849e-27        00000 
 3.99020e-28  3.28935e-27        00000 
-1.64256e-28 -1.47553e-27        00000 
 6.07797e-29  5.91278e-28        00000 
-2.15961e-29 -2.29200e-28        00000 
 1.19588e-29  1.35630e-28        00000 
 3.45007e-35 -2.09305e-33        00000 
-1.12327e-34  4.69980e-33        00000 
 6.21707e-34 -1.84168e-32        00000 
-3.19762e-33  7.25776e-32        00000 
 1.51631e-32 -2.73501e-31        00000 
-6.64019e-32  9.75702e-31        00000 
 2.67702e-31 -3.26601e-30        00000 
-9.87636e-31  1.01573e-29        00000 
 3.31003e-30 -2.90362e-29        00000 
-1.00044e-29  7.54345e-29        00000 
 2.71006e-29 -1.76033e-28        00000 
-6.54978e-29  3.64547e-28        00000 
 1.40839e-28 -6.61075e-28        00000 
-2.69101e-28  1.03224e-27        00000 
 4.56824e-28 -1.35214e-27        00000 
-6.89450e-28  1.40974e-27        00000 
 9.26079e-28 -1.00000e-27        00000 
-1.10849e-27  7.16673e-29        00000 
 1.18385e-27  1.17416e-27        00000 
-1.12932e-27 -2.34044e-27        00000 
 9.63093e-28  3.03769e-27        00000 
-7.34726e-28 -3.09380e-27        00000 
 5.01621e-28  2.61730e-27        00000 
-3.06600e-28 -1.88712e-27        00000 
 1.67852e-28  1.17702e-27        00000 
-8.23860e-29 -6.41906e-28        00000 
 3.63375e-29  3.09269e-28        00000 
-1.45422e-29 -1.34045e-28        00000 
 5.66985e-30  5.67676e-29        00000 
-3.37011e-30 -3.57554e-29        00000 
-2.17501e-35  7.88799e-34        00000 
 6.00424e-35 -1.69698e-33        00000 
-2.88228e-34  6.28856e-33        00000 
 1.32564e-33 -2.34270e-32        00000 
-5.67953e-33  8.31478e-32        00000 
 2.25776e-32 -2.78271e-31        00000 
-8.28447e-32  8.70762e-31        00000 
 2.78851e-31 -2.52493e-30        00000 
-8.55571e-31  6.72081e-30        00000 
 2.37934e-30 -1.62634e-29        00000 
-5.97059e-30  3.54248e-29        00000 
 1.34762e-29 -6.87321e-29        00000 
-2.73077e-29  1.17354e-28        00000 
 4.96375e-29 -1.73481e-28        00000 
-8.09332e-29  2.16168e-28        00000 
 1.18426e-28 -2.14541e-28        00000 
-1.55640e-28  1.41722e-28        00000 