<?xml version="1.0" encoding="utf-8"?>
<VTKFile byte_order="LittleEndian" type="UnstructuredGrid" version="0.1">
   <UnstructuredGrid>
      <Piece NumberOfCells="3364" NumberOfPoints="1741">
         <Points>
            <DataArray Name="Points" NumberOfComponents="3" format="ascii" type="Float32">
0.0000 1.0000 0.0000
0.0000 1.0345 0.0000
0.0000 1.0690 0.0000
0.0000 1.1034 0.0000
0.0000 1.1379 0.0000
0.0000 1.1724 0.0000
0.0000 1.2069 0.0000
0.0000 1.2414 0.0000
0.0000 1.2759 0.0000
0.0000 1.3103 0.0000
0.0000 1.3448 0.0000
0.0000 1.3793 0.0000
0.0000 1.4138 0.0000
0.0000 1.4483 0.0000
0.0000 1.4828 0.0000
0.0000 1.5172 0.0000
0.0000 1.5517 0.0000
0.0000 1.5862 0.0000
0.0000 1.6207 0.0000
0.0000 1.6552 0.0000
0.0000 1.6897 0.0000
0.0000 1.7241 0.0000
0.0000 1.7586 0.0000
0.0000 1.7931 0.0000
0.0000 1.8276 0.0000
0.0000 1.8621 0.0000
0.0000 1.8966 0.0000
0.0000 1.9310 0.0000
0.0000 1.9655 0.0000
0.0000 2.0000 0.0000
0.0690 1.0000 0.0000
0.0690 1.0345 0.0000
0.0690 1.0690 0.0000
0.0690 1.1034 0.0000
0.0690 1.1379 0.0000
0.0690 1.1724 0.0000
0.0690 1.2069 0.0000
0.0690 1.2414 0.0000
0.0690 1.2759 0.0000
0.0690 1.3103 0.0000
0.0690 1.3448 0.0000
0.0690 1.3793 0.0000
0.0690 1.4138 0.0000
0.0690 1.4483 0.0000
0.0690 1.4828 0.0000
0.0690 1.5172 0.0000
0.0690 1.5517 0.0000
0.0690 1.5862 0.0000
0.0690 1.6207 0.0000
0.0690 1.6552 0.0000
0.0690 1.6897 0.0000
0.0690 1.7241 0.0000
0.0690 1.7586 0.0000
0.0690 1.7931 0.0000
0.0690 1.8276 0.0000
0.0690 1.8621 0.0000
0.0690 1.8966 0.0000
0.0690 1.9310 0.0000
0.0690 1.9655 0.0000
0.0690 2.0000 0.0000
0.1379 1.0000 0.0000
0.1379 1.0345 0.0000
0.1379 1.0690 0.0000
0.1379 1.1034 0.0000
0.1379 1.1379 0.0000
0.1379 1.1724 0.0000
0.1379 1.2069 0.0000
0.1379 1.2414 0.0000
0.1379 1.2759 0.0000
0.1379 1.3103 0.0000
0.1379 1.3448 0.0000
0.1379 1.3793 0.0000
0.1379 1.4138 0.0000
0.1379 1.4483 0.0000
0.1379 1.4828 0.0000
0.1379 1.5172 0.0000
0.1379 1.5517 0.0000
0.1379 1.5862 0.0000
0.1379 1.6207 0.0000
0.1379 1.6552 0.0000
0.1379 1.6897 0.0000
0.1379 1.7241 0.0000
0.1379 1.7586 0.0000
0.1379 1.7931 0.0000
0.1379 1.8276 0.0000
0.1379 1.8621 0.0000
0.1379 1.8966 0.0000
0.1379 1.9310 0.0000
0.1379 1.9655 0.0000
0.1379 2.0000 0.0000
0.2069 1.0000 0.0000
0.2069 1.0345 0.0000
0.2069 1.0690 0.0000
0.2069 1.1034 0.0000
0.2069 1.1379 0.0000
0.2069 1.1724 0.0000
0.2069 1.2069 0.0000
0.2069 1.2414 0.0000
0.2069 1.2759 0.0000
0.2069 1.3103 0.0000
0.2069 1.3448 0.0000
0.2069 1.3793 0.0000
0.2069 1.4138 0.0000
0.2069 1.4483 0.0000
0.2069 1.4828 0.0000
0.2069 1.5172 0.0000
0.2069 1.5517 0.0000
0.2069 1.5862 0.0000
0.2069 1.6207 0.0000
0.2069 1.6552 0.0000
0.2069 1.6897 0.0000
0.2069 1.7241 0.0000
0.2069 1.7586 0.0000
0.2069 1.7931 0.0000
0.2069 1.8276 0.0000
0.2069 1.8621 0.0000
0.2069 1.8966 0.0000
0.2069 1.9310 0.0000
0.2069 1.9655 0.0000
0.2069 2.0000 0.0000
0.2759 1.0000 0.0000
0.2759 1.0345 0.0000
0.2759 1.0690 0.0000
0.2759 1.1034 0.0000
0.2759 1.1379 0.0000
0.2759 1.1724 0.0000
0.2759 1.2069 0.0000
0.2759 1.2414 0.0000
0.2759 1.2759 0.0000
0.2759 1.3103 0.0000
0.2759 1.3448 0.0000
0.2759 1.3793 0.0000
0.2759 1.4138 0.0000
0.2759 1.4483 0.0000
0.2759 1.4828 0.0000
0.2759 1.5172 0.0000
0.2759 1.5517 0.0000
0.2759 1.5862 0.0000
0.2759 1.6207 0.0000
0.2759 1.6552 0.0000
0.2759 1.6897 0.0000
0.2759 1.7241 0.0000
0.2759 1.7586 0.0000
0.2759 1.7931 0.0000
0.2759 1.8276 0.0000
0.2759 1.8621 0.0000
0.2759 1.8966 0.0000
0.2759 1.9310 0.0000
0.2759 1.9655 0.0000
0.2759 2.0000 0.0000
0.3448 1.0000 0.0000
0.3448 1.0345 0.0000
0.3448 1.0690 0.0000
0.3448 1.1034 0.0000
0.3448 1.1379 0.0000
0.3448 1.1724 0.0000
0.3448 1.2069 0.0000
0.3448 1.2414 0.0000
0.3448 1.2759 0.0000
0.3448 1.3103 0.0000
0.3448 1.3448 0.0000
0.3448 1.3793 0.0000
0.3448 1.4138 0.0000
0.3448 1.4483 0.0000
0.3448 1.4828 0.0000
0.3448 1.5172 0.0000
0.3448 1.5517 0.0000
0.3448 1.5862 0.0000
0.3448 1.6207 0.0000
0.3448 1.6552 0.0000
0.3448 1.6897 0.0000
0.3448 1.7241 0.0000
0.3448 1.7586 0.0000
0.3448 1.7931 0.0000
0.3448 1.8276 0.0000
0.3448 1.8621 0.0000
0.3448 1.8966 0.0000
0.3448 1.9310 0.0000
0.3448 1.9655 0.0000
0.3448 2.0000 0.0000
0.4138 1.0000 0.0000
0.4138 1.0345 0.0000
0.4138 1.0690 0.0000
0.4138 1.1034 0.0000
0.4138 1.1379 0.0000
0.4138 1.1724 0.0000
0.4138 1.2069 0.0000
0.4138 1.2414 0.0000
0.4138 1.2759 0.0000
0.4138 1.3103 0.0000
0.4138 1.3448 0.0000
0.4138 1.3793 0.0000
0.4138 1.4138 0.0000
0.4138 1.4483 0.0000
0.4138 1.4828 0.0000
0.4138 1.5172 0.0000
0.4138 1.5517 0.0000
0.4138 1.5862 0.0000
0.4138 1.6207 0.0000
0.4138 1.6552 0.0000
0.4138 1.6897 0.0000
0.4138 1.7241 0.0000
0.4138 1.7586 0.0000
0.4138 1.7931 0.0000
0.4138 1.8276 0.0000
0.4138 1.8621 0.0000
0.4138 1.8966 0.0000
0.4138 1.9310 0.0000
0.4138 1.9655 0.0000
0.4138 2.0000 0.0000
0.4828 1.0000 0.0000
0.4828 1.0345 0.0000
0.4828 1.0690 0.0000
0.4828 1.1034 0.0000
0.4828 1.1379 0.0000
0.4828 1.1724 0.0000
0.4828 1.2069 0.0000
0.4828 1.2414 0.0000
0.4828 1.2759 0.0000
0.4828 1.3103 0.0000
0.4828 1.3448 0.0000
0.4828 1.3793 0.0000
0.4828 1.4138 0.0000
0.4828 1.4483 0.0000
0.4828 1.4828 0.0000
0.4828 1.5172 0.0000
0.4828 1.5517 0.0000
0.4828 1.5862 0.0000
0.4828 1.6207 0.0000
0.4828 1.6552 0.0000
0.4828 1.6897 0.0000
0.4828 1.7241 0.0000
0.4828 1.7586 0.0000
0.4828 1.7931 0.0000
0.4828 1.8276 0.0000
0.4828 1.8621 0.0000
0.4828 1.8966 0.0000
0.4828 1.9310 0.0000
0.4828 1.9655 0.0000
0.4828 2.0000 0.0000
0.5517 1.0000 0.0000
0.5517 1.0345 0.0000
0.5517 1.0690 0.0000
0.5517 1.1034 0.0000
0.5517 1.1379 0.0000
0.5517 1.1724 0.0000
0.5517 1.2069 0.0000
0.5517 1.2414 0.0000
0.5517 1.2759 0.0000
0.5517 1.3103 0.0000
0.5517 1.3448 0.0000
0.5517 1.3793 0.0000
0.5517 1.4138 0.0000
0.5517 1.4483 0.0000
0.5517 1.4828 0.0000
0.5517 1.5172 0.0000
0.5517 1.5517 0.0000
0.5517 1.5862 0.0000
0.5517 1.6207 0.0000
0.5517 1.6552 0.0000
0.5517 1.6897 0.0000
0.5517 1.7241 0.0000
0.5517 1.7586 0.0000
0.5517 1.7931 0.0000
0.5517 1.8276 0.0000
0.5517 1.8621 0.0000
0.5517 1.8966 0.0000
0.5517 1.9310 0.0000
0.5517 1.9655 0.0000
0.5517 2.0000 0.0000
0.6207 1.0000 0.0000
0.6207 1.0345 0.0000
0.6207 1.0690 0.0000
0.6207 1.1034 0.0000
0.6207 1.1379 0.0000
0.6207 1.1724 0.0000
0.6207 1.2069 0.0000
0.6207 1.2414 0.0000
0.6207 1.2759 0.0000
0.6207 1.3103 0.0000
0.6207 1.3448 0.0000
0.6207 1.3793 0.0000
0.6207 1.4138 0.0000
0.6207 1.4483 0.0000
0.6207 1.4828 0.0000
0.6207 1.5172 0.0000
0.6207 1.5517 0.0000
0.6207 1.5862 0.0000
0.6207 1.6207 0.0000
0.6207 1.6552 0.0000
0.6207 1.6897 0.0000
0.6207 1.7241 0.0000
0.6207 1.7586 0.0000
0.6207 1.7931 0.0000
0.6207 1.8276 0.0000
0.6207 1.8621 0.0000
0.6207 1.8966 0.0000
0.6207 1.9310 0.0000
0.6207 1.9655 0.0000
0.6207 2.0000 0.0000
0.6897 1.0000 0.0000
0.6897 1.0345 0.0000
0.6897 1.0690 0.0000
0.6897 1.1034 0.0000
0.6897 1.1379 0.0000
0.6897 1.1724 0.0000
0.6897 1.2069 0.0000
0.6897 1.2414 0.0000
0.6897 1.2759 0.0000
0.6897 1.3103 0.0000
0.6897 1.3448 0.0000
0.6897 1.3793 0.0000
0.6897 1.4138 0.0000
0.6897 1.4483 0.0000
0.6897 1.4828 0.0000
0.6897 1.5172 0.0000
0.6897 1.5517 0.0000
0.6897 1.5862 0.0000
0.6897 1.6207 0.0000
0.6897 1.6552 0.0000
0.6897 1.6897 0.0000
0.6897 1.7241 0.0000
0.6897 1.7586 0.0000
0.6897 1.7931 0.0000
0.6897 1.8276 0.0000
0.6897 1.8621 0.0000
0.6897 1.8966 0.0000
0.6897 1.9310 0.0000
0.6897 1.9655 0.0000
0.6897 2.0000 0.0000
0.7586 1.0000 0.0000
0.7586 1.0345 0.0000
0.7586 1.0690 0.0000
0.7586 1.1034 0.0000
0.7586 1.1379 0.0000
0.7586 1.1724 0.0000
0.7586 1.2069 0.0000
0.7586 1.2414 0.0000
0.7586 1.2759 0.0000
0.7586 1.3103 0.0000
0.7586 1.3448 0.0000
0.7586 1.3793 0.0000
0.7586 1.4138 0.0000
0.7586 1.4483 0.0000
0.7586 1.4828 0.0000
0.7586 1.5172 0.0000
0.7586 1.5517 0.0000
0.7586 1.5862 0.0000
0.7586 1.6207 0.0000
0.7586 1.6552 0.0000
0.7586 1.6897 0.0000
0.7586 1.7241 0.0000
0.7586 1.7586 0.0000
0.7586 1.7931 0.0000
0.7586 1.8276 0.0000
0.7586 1.8621 0.0000
0.7586 1.8966 0.0000
0.7586 1.9310 0.0000
0.7586 1.9655 0.0000
0.7586 2.0000 0.0000
0.8276 1.0000 0.0000
0.8276 1.0345 0.0000
0.8276 1.0690 0.0000
0.8276 1.1034 0.0000
0.8276 1.1379 0.0000
0.8276 1.1724 0.0000
0.8276 1.2069 0.0000
0.8276 1.2414 0.0000
0.8276 1.2759 0.0000
0.8276 1.3103 0.0000
0.8276 1.3448 0.0000
0.8276 1.3793 0.0000
0.8276 1.4138 0.0000
0.8276 1.4483 0.0000
0.8276 1.4828 0.0000
0.8276 1.5172 0.0000
0.8276 1.5517 0.0000
0.8276 1.5862 0.0000
0.8276 1.6207 0.0000
0.8276 1.6552 0.0000
0.8276 1.6897 0.0000
0.8276 1.7241 0.0000
0.8276 1.7586 0.0000
0.8276 1.7931 0.0000
0.8276 1.8276 0.0000
0.8276 1.8621 0.0000
0.8276 1.8966 0.0000
0.8276 1.9310 0.0000
0.8276 1.9655 0.0000
0.8276 2.0000 0.0000
0.8966 1.0000 0.0000
0.8966 1.0345 0.0000
0.8966 1.0690 0.0000
0.8966 1.1034 0.0000
0.8966 1.1379 0.0000
0.8966 1.1724 0.0000
0.8966 1.2069 0.0000
0.8966 1.2414 0.0000
0.8966 1.2759 0.0000
0.8966 1.3103 0.0000
0.8966 1.3448 0.0000
0.8966 1.3793 0.0000
0.8966 1.4138 0.0000
0.8966 1.4483 0.0000
0.8966 1.4828 0.0000
0.8966 1.5172 0.0000
0.8966 1.5517 0.0000
0.8966 1.5862 0.0000
0.8966 1.6207 0.0000
0.8966 1.6552 0.0000
0.8966 1.6897 0.0000
0.8966 1.7241 0.0000
0.8966 1.7586 0.0000
0.8966 1.7931 0.0000
0.8966 1.8276 0.0000
0.8966 1.8621 0.0000
0.8966 1.8966 0.0000
0.8966 1.9310 0.0000
0.8966 1.9655 0.0000
0.8966 2.0000 0.0000
0.9655 1.0000 0.0000
0.9655 1.0345 0.0000
0.9655 1.0690 0.0000
0.9655 1.1034 0.0000
0.9655 1.1379 0.0000
0.9655 1.1724 0.0000
0.9655 1.2069 0.0000
0.9655 1.2414 0.0000
0.9655 1.2759 0.0000
0.9655 1.3103 0.0000
0.9655 1.3448 0.0000
0.9655 1.3793 0.0000
0.9655 1.4138 0.0000
0.9655 1.4483 0.0000
0.9655 1.4828 0.0000
0.9655 1.5172 0.0000
0.9655 1.5517 0.0000
0.9655 1.5862 0.0000
0.9655 1.6207 0.0000
0.9655 1.6552 0.0000
0.9655 1.6897 0.0000
0.9655 1.7241 0.0000
0.9655 1.7586 0.0000
0.9655 1.7931 0.0000
0.9655 1.8276 0.0000
0.9655 1.8621 0.0000
0.9655 1.8966 0.0000
0.9655 1.9310 0.0000
0.9655 1.9655 0.0000
0.9655 2.0000 0.0000
1.0345 1.0000 0.0000
1.0345 1.0345 0.0000
1.0345 1.0690 0.0000
1.0345 1.1034 0.0000
1.0345 1.1379 0.0000
1.0345 1.1724 0.0000
1.0345 1.2069 0.0000
1.0345 1.2414 0.0000
1.0345 1.2759 0.0000
1.0345 1.3103 0.0000
1.0345 1.3448 0.0000
[...]
         <PointData>
            <DataArray Name="fValues" NumberOfComponents="3" format="ascii" type="Float64">
 1.31895e-30  2.35967e-31        00000 
-4.01046e-30 -7.26402e-31        00000 
 2.30691e-29  4.24168e-30        00000 
-1.36256e-28 -2.54567e-29        00000 
 8.05148e-28  1.53125e-28        00000 
-4.75514e-27 -9.22566e-28        00000 
 2.80580e-26  5.56766e-27        00000 
-1.65323e-25 -3.36570e-26        00000 
 9.71987e-25  2.03778e-25        00000 
-5.69555e-24 -1.23530e-24        00000 
 3.32018e-23  7.49169e-24        00000 
-1.91969e-22 -4.53748e-23        00000 
 1.09518e-21  2.73395e-22        00000 
-6.10585e-21 -1.62387e-21        00000 
 3.26212e-20  9.28430e-21        00000 
-1.59531e-19 -4.73074e-20        00000 
 6.24892e-19  1.42665e-19        00000 
-1.05183e-18 -4.73062e-19        00000 
 9.31459e-19  5.86608e-19        00000 
 2.59273e-19 -1.73266e-19        00000 
-7.38064e-19  7.68755e-20        00000 
 4.63692e-19 -1.61486e-19        00000 
-1.20810e-19  1.59859e-20        00000 
 2.42094e-20 -2.70509e-21        00000 
-4.36985e-21  4.59233e-22        00000 
 7.58064e-22 -7.68090e-23        00000 
-1.29199e-22  1.27365e-23        00000 
 2.18477e-23 -2.10513e-24        00000 
-3.77627e-24  3.56433e-25        00000 
 1.23328e-24 -1.14483e-25        00000 
-1.29247e-30 -2.27192e-31        00000 
 3.92974e-30  6.98176e-31        00000 
-2.26064e-29 -4.06845e-30        00000 
 1.33559e-28  2.43652e-29        00000 
-7.89637e-28 -1.46228e-28        00000 
 4.66784e-27  8.78909e-28        00000 
-2.75835e-26 -5.29110e-27        00000 
 1.62899e-25  3.19066e-26        00000 
-9.61091e-25 -1.92748e-25        00000 
 5.66187e-24  1.16653e-24        00000 
-3.32791e-23 -7.07296e-24        00000 
 1.94940e-22  4.29611e-23        00000 
-1.13602e-21 -2.61366e-22        00000 
 6.56774e-21  1.59259e-21        00000 
-3.74941e-20 -9.72993e-21        00000 
 2.09505e-19  5.99964e-20        00000 
-1.11941e-18 -3.80632e-19        00000 
 5.08880e-18  6.55673e-19        00000 
-5.09452e-18 -4.48072e-18        00000 
-3.02998e-18 -2.05092e-18        00000 
 2.85778e-18 -1.38336e-18        00000 
-8.64392e-19  2.57032e-20        00000 
 1.56276e-19 -1.56122e-20        00000 
-2.64987e-20  2.68461e-21        00000 
 4.47871e-21 -4.44735e-22        00000 
-7.54224e-22  7.32786e-23        00000 
 1.26694e-22 -1.20646e-23        00000 
-2.12676e-23  1.98881e-24        00000 
 3.66247e-24 -3.36694e-25        00000 
-1.19423e-24  1.08253e-25        00000 
 1.21456e-30  2.02623e-31        00000 
-3.69115e-30 -6.19340e-31        00000 
 2.12290e-29  3.58590e-30        00000 
-1.25449e-28 -2.13321e-29        00000 
 7.42300e-28  1.27103e-28        00000 
-4.39529e-27 -7.58033e-28        00000 
 2.60469e-26  4.52572e-27        00000 
-1.54522e-25 -2.70553e-26        00000 
 9.18044e-25  1.62013e-25        00000 
-5.46555e-24 -9.72469e-25        00000 
 3.26379e-23  5.85833e-24        00000 
-1.95801e-22 -3.55051e-23        00000 
 1.18316e-21  2.17527e-22        00000 
-7.23292e-21 -1.36056e-21        00000 
 4.50594e-20  8.86580e-21        00000 
-2.89458e-19 -6.26678e-20        00000 
 1.95177e-18  5.18410e-19        00000 
-1.40928e-17 -7.32118e-18        00000 
-2.13623e-01 -1.47736e-01        00000 
-2.13623e-01  1.47736e-01        00000 
-1.43005e-17        00000        00000 
 1.46271e-18 -1.49808e-19        00000 
-1.86977e-19  1.59899e-20        00000 
 2.77579e-20 -2.41491e-21        00000 
-4.36324e-21  3.80147e-22        00000 
 7.06428e-22 -6.12326e-23        00000 
-1.16203e-22  1.00023e-23        00000 
 1.92997e-23 -1.64909e-24        00000 
-3.30765e-24  2.80499e-25        00000 
 1.07706e-24 -9.07376e-26        00000 
-1.09058e-30 -1.67015e-31        00000 
 3.30880e-30  5.05666e-31        00000 
-1.89984e-29 -2.89414e-30        00000 
 1.12125e-28  1.70080e-29        00000 
-6.62911e-28 -9.99829e-29        00000 
 3.92431e-27  5.87442e-28        00000 
-2.32694e-26 -3.44929e-27        00000 
 1.38279e-25  2.02397e-26        00000 
-8.24146e-25 -1.18690e-25        00000 
 4.93157e-24  6.95769e-25        00000 
-2.96723e-23 -4.07946e-24        00000 
 1.79893e-22  2.39498e-23        00000 
-1.10218e-21 -1.41031e-22        00000 
 6.85221e-21  8.34338e-22        00000 
-4.34643e-20 -4.94288e-21        00000 
 2.83440e-19  2.84167e-20        00000 
-1.92492e-18 -1.28016e-19        00000 
 1.42146e-17 -2.01359e-18        00000 
-2.13623e-01  1.47736e-01        00000 
-2.13623e-01 -1.47736e-01        00000 
 2.31774e-18  2.29585e-18        00000 
-7.60898e-19  6.17959e-20        00000 
 1.34288e-19 -1.01736e-20        00000 
-2.15130e-20  1.51705e-21        00000 
 3.47482e-21 -2.43579e-22        00000 
-5.69080e-22  4.02647e-23        00000 
 9.42605e-23 -6.74986e-24        00000 
-1.57501e-23  1.14072e-24        00000 
 2.71684e-24 -1.98768e-25        00000 
-8.90038e-25  6.56128e-26        00000 
 9.31026e-31  1.26733e-31        00000 
-2.81378e-30 -3.78178e-31        00000 
 1.60840e-29  2.12604e-30        00000 
-9.45056e-29 -1.22550e-29        00000 
 5.56168e-28  7.04818e-29        00000 
-3.27645e-27 -4.03832e-28        00000 
 1.93271e-26  2.30280e-27        00000 
-1.14195e-25 -1.30515e-26        00000 
 6.76140e-25  7.33773e-26        00000 
-4.01374e-24 -4.07947e-25        00000 
 2.39005e-23  2.23067e-24        00000 
-1.42817e-22 -1.18702e-23        00000 
 8.56350e-22  6.00085e-23        00000 
-5.14633e-21 -2.69276e-22        00000 
 3.08714e-20  7.90629e-22        00000 
-1.82717e-19  3.71214e-21        00000 
 1.02750e-18 -1.16227e-19        00000 
-4.37832e-18  6.29711e-19        00000 
 6.16687e-18 -1.91777e-18        00000 
 4.95554e-18  6.68834e-18        00000 
 3.35202e-19 -1.04590e-19        00000 
 2.09168e-19  2.58072e-20        00000 
-5.51360e-20 -2.27709e-22        00000 
 1.13751e-20 -2.96297e-22        00000 
-2.09696e-21  7.82295e-23        00000 
 3.71112e-22 -1.63709e-23        00000 
-6.46060e-23  3.16848e-24        00000 
 1.11764e-23 -5.91092e-25        00000 
-1.98052e-24  1.11105e-25        00000 
 6.61625e-25 -3.87020e-26        00000 
-7.51632e-31 -8.80103e-32        00000 
 2.25580e-30  2.57211e-31        00000 
-1.27859e-29 -1.40850e-30        00000 
 7.44555e-29  7.88671e-30        00000 
-4.33797e-28 -4.38492e-29        00000 
 2.52649e-27  2.41315e-28        00000 
-1.47064e-26 -1.31010e-27        00000 
 8.55328e-26  6.98047e-27        00000 
-4.96783e-25 -3.61933e-26        00000 
 2.87881e-24  1.79813e-25        00000 
-1.66175e-23 -8.28908e-25        00000 
 9.52697e-23  3.26042e-24        00000 
-5.39588e-22 -7.52693e-24        00000 
 2.98861e-21 -4.07155e-23        00000 
-1.58541e-20  8.40236e-22        00000 
 7.67552e-20 -8.39230e-21        00000 
-2.94689e-19  4.52351e-20        00000 
 6.33951e-19 -1.59490e-19        00000 
-4.65575e-19  4.62899e-19        00000 
-9.86044e-20 -6.14737e-19        00000 
 1.70219e-19  3.00672e-19        00000 
-1.94725e-20 -3.06032e-20        00000 
 1.40735e-20  3.99993e-21        00000 
-4.11592e-21 -4.11308e-22        00000 
 9.41766e-22  3.34899e-23        00000 
-1.91233e-22 -1.09679e-24        00000 
 3.65281e-23 -4.15952e-25        00000 
-6.75086e-24  1.53120e-25        00000 
 1.25887e-24 -3.91441e-26        00000 
-4.35967e-25  1.60929e-26        00000 
 5.71016e-31  5.54479e-32        00000 
-1.69543e-30 -1.57363e-31        00000 
 9.48290e-30  8.29589e-31        00000 
-5.44328e-29 -4.44842e-30        00000 
 3.11977e-28  2.34683e-29        00000 
-1.78275e-27 -1.20938e-28        00000 
 1.01475e-26  6.02636e-28        00000 
-5.74586e-26 -2.85203e-27        00000 
 3.23016e-25  1.23565e-26        00000 
-1.79753e-24 -4.45077e-26        00000 
 9.85595e-24  8.32366e-26        00000 
-5.28502e-23  6.21477e-25        00000 
 2.73698e-22 -1.02398e-23        00000 
-1.33863e-21  9.43977e-23        00000 
 5.92225e-21 -6.64769e-22        00000 
-2.16383e-20  3.37503e-21        00000 
 5.50552e-20 -1.25584e-20        00000 
-8.20896e-20  3.64501e-20        00000 
 5.98634e-20 -7.05782e-20        00000 
-7.05290e-21  8.15346e-20        00000 
-1.65958e-20 -5.27987e-20        00000 
 9.52932e-21  1.76913e-20        00000 
-2.72149e-21 -2.93075e-21        00000 
 1.09464e-21  4.50040e-22        00000 
-3.21213e-22 -6.20639e-23        00000 
 7.80029e-23  7.86630e-24        00000 
-1.69378e-23 -9.05699e-25        00000 
 3.44080e-24  8.72880e-26        00000 
-6.91303e-25 -4.31422e-27        00000 
 2.52343e-25 -1.51948e-27        00000 
-4.06565e-31 -3.12561e-32        00000 
 1.18935e-30  8.50660e-32        00000 
-6.52997e-30 -4.23767e-31        00000 
 3.67325e-29  2.12341e-30        00000 
-2.05709e-28 -1.02582e-29        00000 
 1.14429e-27  4.67984e-29        00000 
-6.31055e-27 -1.93630e-28        00000 
 3.44104e-26  6.51815e-28        00000 
-1.84826e-25 -9.76968e-28        00000 
 9.72503e-25 -1.05219e-26        00000 
-4.97128e-24  1.49630e-25        00000 
 2.43726e-23 -1.30370e-24        00000 
-1.12238e-22  9.20792e-24        00000 
 4.68679e-22 -5.45548e-23        00000 
-1.66925e-21  2.60660e-22        00000 
 4.60985e-21 -9.85327e-22        00000 
-8.97619e-21  2.96320e-21        00000 
 1.14435e-20 -6.72118e-21        00000 
-8.64113e-21  1.08082e-20        00000 
 2.66870e-21 -1.18586e-20        00000 
 1.17957e-21  8.64591e-21        00000 
-1.52495e-21 -4.07627e-21        00000 
 7.19473e-22  1.21998e-21        00000 
-2.54504e-22 -2.47811e-22        00000 
 8.88299e-23  4.38590e-23        00000 
-2.58432e-23 -7.06377e-24        00000 
 6.50251e-24  1.06293e-24        00000 
-1.48276e-24 -1.51019e-25        00000 
 3.27492e-25  2.04082e-26        00000 
-1.27859e-25 -4.92763e-27        00000 
 2.70481e-31  1.53802e-32        00000 
-7.76276e-31 -3.92627e-32        00000 
 4.16099e-30  1.78134e-31        00000 
-2.28031e-29 -7.88019e-31        00000 
 1.23940e-28  3.14264e-30        00000 
-6.65975e-28 -9.98994e-30        00000 
 3.52681e-27  1.14769e-29        00000 
-1.83300e-26  1.86776e-28        00000 
 9.29504e-26 -2.39153e-27        00000 
-4.56059e-25  2.00077e-26        00000 
 2.13875e-24 -1.39510e-25        00000 
-9.41251e-24  8.51659e-25        00000 
 3.77964e-23 -4.54631e-24        00000 
-1.32672e-22  2.06617e-23        00000 
 3.83687e-22 -7.81233e-23        00000 
-8.60447e-22  2.42846e-22        00000 
 1.42624e-21 -6.04372e-22        00000 
-1.67537e-21  1.16293e-21        00000 
 1.30861e-21 -1.68322e-21        00000 
-5.65219e-22  1.79990e-21        00000 
-1.20033e-23 -1.40280e-21        00000 
 1.88658e-22  7.86949e-22        00000 
-1.35318e-22 -3.15117e-22        00000 
 6.00857e-23  9.12614e-23        00000 
-2.20376e-23 -2.04969e-23        00000 
 7.31532e-24  4.01266e-24        00000 
-2.11851e-24 -7.17285e-25        00000 
 5.46791e-25  1.20210e-25        00000 
-1.34588e-25 -1.95529e-26        00000 
 5.68129e-26  5.82282e-27        00000 
-1.67798e-31 -6.26007e-33        00000 
 4.70473e-31  1.42151e-32        00000 
-2.44881e-30 -5.24842e-32        00000 
 1.29991e-29  1.57983e-31        00000 
-6.81318e-29 -1.25738e-31        00000 
 3.51070e-28 -3.40990e-30        00000 
-1.77068e-27  4.03117e-29        00000 
 8.69054e-27 -3.26916e-28        00000 
-4.11747e-26  2.24971e-27        00000 
 1.86228e-25 -1.38315e-26        00000 
-7.91497e-25  7.68029e-26        00000 
 3.09112e-24 -3.82023e-25        00000 
-1.07522e-23  1.66900e-24        00000 
 3.20081e-23 -6.27556e-24        00000 
-7.82225e-23  1.99920e-23        00000 
 1.51522e-22 -5.29761e-23        00000 
-2.26253e-22  1.14234e-22        00000 
 2.53269e-22 -1.96523e-22        00000 
-2.03471e-22  2.65876e-22        00000 
 1.05327e-22 -2.80055e-22        00000 
-1.98262e-23  2.27880e-22        00000 
-1.87956e-23 -1.42276e-22        00000 
 2.10756e-23  6.78606e-23        00000 
-1.20776e-23 -2.48205e-23        00000 
 5.14652e-24  7.12843e-24        00000 
-1.87210e-24 -1.69584e-24        00000 
 6.07389e-25  3.56474e-25        00000 
-1.76237e-25 -6.87839e-26        00000 
 4.85671e-26  1.27919e-26        00000 
-2.22851e-26 -4.28595e-27        00000 
 9.69576e-32  1.77851e-33        00000 
-2.64512e-31 -2.78936e-33        00000 
 1.33001e-30  1.13786e-33        00000 
-6.80173e-30  6.34513e-32        00000 
 3.41725e-29 -7.03967e-31        00000 
-1.67746e-28  5.56735e-30        00000 
 7.99969e-28 -3.78660e-29        00000 
-3.67867e-27  2.32945e-28        00000 
 1.61499e-26 -1.31624e-27        00000 
-6.67852e-26  6.83207e-27        00000 
 2.55507e-25 -3.22784e-26        00000 
-8.83331e-25  1.36696e-25        00000 
 2.68182e-24 -5.10241e-25        00000 
-6.93838e-24  1.65354e-24        00000 
 1.48925e-23 -4.58345e-24        00000 
-2.59531e-23  1.06975e-23        00000 
 3.60563e-23 -2.07150e-23        00000 
-3.91408e-23  3.28924e-23        00000 
 3.21740e-23 -4.24625e-23        00000 
-1.86862e-23  4.42920e-23        00000 
 5.97632e-24 -3.71472e-23        00000 
 1.12165e-24  2.49484e-23        00000 
-2.87206e-24 -1.33837e-23        00000 
 2.12496e-24  5.74277e-24        00000 
-1.07937e-24 -1.99075e-24        00000 
 4.43185e-25  5.71223e-25        00000 
-1.58482e-25 -1.41053e-25        00000 
 5.09470e-26  3.12557e-26        00000 
-1.56538e-26 -6.59649e-27        00000 
 7.80154e-27  2.44717e-27        00000 
-5.21632e-32 -1.52930e-36        00000 
 1.37948e-31 -1.15626e-33        00000 
-6.66800e-31  1.25941e-32        00000 
 3.26900e-30 -9.76380e-32        00000 
-1.56596e-29  6.57297e-31        00000 
 7.28138e-29 -4.03680e-30        00000 
-3.26372e-28  2.30093e-29        00000 
 1.39777e-27 -1.22220e-28        00000 
-5.65471e-27  6.02945e-28        00000 
 2.12949e-26 -2.73871e-27        00000 
-7.32993e-26  1.13129e-26        00000 
 2.25721e-25 -4.19147e-26        00000 
-6.07947e-25  1.37448e-25        00000 
 1.40238e-24 -3.93896e-25        00000 
-2.72232e-24  9.74333e-25        00000 
 4.38383e-24 -2.05634e-24        00000 
-5.78005e-24  3.66698e-24        00000 
 6.14584e-24 -5.48400e-24        00000 
-5.14778e-24  6.84023e-24        00000 
 3.23911e-24 -7.08664e-24        00000 
-1.33490e-24  6.07837e-24        00000 
 1.14887e-25 -4.30502e-24        00000 
 3.38679e-25  2.51371e-24        00000 
-3.37599e-25 -1.21078e-24        00000 
 2.04792e-25  4.83474e-25        00000 
-9.61797e-26 -1.62011e-25        00000 
 3.82181e-26  4.65530e-26        00000 
-1.35027e-26 -1.18217e-26        00000 
 4.59040e-27  2.83090e-27        00000 
-2.47130e-27 -1.15859e-27        00000 
 2.61380e-32 -4.60453e-34        00000 
-6.67803e-32  1.77350e-33        00000 
 3.08936e-31 -1.16776e-32        00000 
-1.44560e-30  7.15319e-32        00000 
 6.57306e-30 -4.09608e-31        00000 
-2.88187e-29  2.20595e-30        00000 
 1.20878e-28 -1.11711e-29        00000 
-4.80331e-28  5.29558e-29        00000 
 1.78649e-27 -2.33162e-28        00000 
-6.12929e-27  9.43830e-28        00000 
 1.90781e-26 -3.47266e-27        00000 
-5.29351e-26  1.14817e-26        00000 
 1.28753e-25 -3.37431e-26        00000 
-2.70540e-25  8.72390e-26        00000 
 4.85213e-25 -1.96537e-25        00000 
-7.35224e-25  3.82651e-25        00000 
 9.31965e-25 -6.39595e-25        00000 
-9.76589e-25  9.13174e-25        00000 
 8.30857e-25 -1.10945e-24        00000 
-5.54663e-25  1.14372e-24        00000 
 2.66889e-25 -9.98143e-25        00000 
-6.36529e-26  7.36137e-25        00000 
-3.07661e-26 -4.58311e-25        00000 
 4.89680e-26  2.40949e-25        00000 
-3.57645e-26 -1.07264e-25        00000 
 1.92412e-26  4.07095e-26        00000 
-8.54127e-27 -1.33370e-26        00000 
 3.32159e-27  3.84964e-27        00000 
-1.24360e-27 -1.04434e-27        00000 
 7.18376e-28  4.70400e-28        00000 
-1.22100e-32  4.22471e-34        00000 
 3.00505e-32 -1.32214e-33        00000 
-1.32529e-31  7.41007e-33        00000 
 5.89768e-31 -4.02378e-32        00000 
-2.53645e-30  2.07269e-31        00000 
 1.04522e-29 -1.01024e-30        00000 
-4.09207e-29  4.63720e-30        00000 
 1.50675e-28 -1.99076e-29        00000 
-5.15651e-28  7.92481e-29        00000 
 1.61851e-27 -2.89746e-28        00000 
-4.59442e-27  9.63564e-28        00000 
 1.16355e-26 -2.88729e-27        00000 
-2.59691e-26  7.72677e-27        00000 
 5.05511e-26 -1.83179e-26        00000 
-8.50813e-26  3.81968e-26        00000 
 1.22867e-25 -6.96428e-26        00000 
-1.51062e-25  1.10506e-25        00000 
 1.56622e-25 -1.52057e-25        00000 
-1.35010e-25  1.80949e-25        00000 
 9.43324e-26 -1.85833e-25        00000 
-5.04774e-26  1.64433e-25        00000 
 1.71562e-26 -1.25201e-25        00000 
 7.51464e-28  8.19714e-26        00000 
-6.40411e-27 -4.61559e-26        00000 
 5.81539e-27  2.23890e-26        00000 
-3.58821e-27 -9.39443e-27        00000 
 1.78002e-27  3.43621e-27        00000 
-7.63231e-28 -1.11197e-27        00000 
 3.14459e-28  3.39766e-28        00000 
-1.93905e-28 -1.67679e-28        00000 
 5.32539e-33 -2.71321e-34        00000 
-1.25956e-32  7.65040e-34        00000 
 5.27837e-32 -3.86824e-33        00000 
-2.22767e-31  1.92000e-32        00000 
 9.04037e-31 -9.06820e-32        00000 
-3.49530e-30  4.05319e-31        00000 
 1.27641e-29 -1.70397e-30        00000 
-4.35952e-29  6.68862e-30        00000 
 1.37757e-28 -2.43173e-29        00000 
-3.98157e-28  8.12052e-29        00000 
 1.04082e-27 -2.47063e-28        00000 
-2.43538e-27  6.79583e-28        00000 
 5.05480e-27 -1.67809e-27        00000 
-9.23559e-27  3.69658e-27        00000 
 1.47575e-26 -7.22564e-27        00000 
-2.04997e-26  1.24783e-26        00000 
 2.45998e-26 -1.89737e-26        00000 
-2.53034e-26  2.53351e-26        00000 
 2.20568e-26 -2.96476e-26        00000 
-1.59798e-26  3.03576e-26        00000 
 9.24492e-27 -2.71655e-26        00000 
-3.82695e-27  2.12248e-26        00000 
 5.94137e-28 -1.44715e-26        00000 
 7.13112e-28  8.61153e-27        00000 
-8.82652e-28 -4.47735e-27        00000 
 6.29742e-28  2.03938e-27        00000 
-3.48884e-28 -8.18008e-28        00000 
 1.64905e-28  2.92458e-28        00000 
-7.47492e-29 -9.97182e-29        00000 
 4.90260e-29  5.35276e-29        00000 
-2.17304e-33  1.44947e-34        00000 
 4.93069e-33 -3.78864e-34        00000 
-1.95841e-32  1.76252e-33        00000 
 7.82416e-32 -8.09679e-33        00000 
-2.99258e-31  3.53876e-32        00000 
 1.08528e-30 -1.46167e-31        00000 
-3.70073e-30  5.66951e-31        00000 
 1.17585e-29 -2.05088e-30        00000 
-3.44845e-29  6.86948e-30        00000 
 9.24714e-29 -2.11556e-29        00000 
-2.24727e-28  5.94999e-29        00000 
 4.91051e-28 -1.51874e-28        00000 
-9.58220e-28  3.49864e-28        00000 
 1.66017e-27 -7.23867e-28        00000 
-2.54083e-27  1.33969e-27        00000 
 3.41852e-27 -2.21063e-27        00000 
-4.02237e-27  3.24399e-27        00000 
 4.11237e-27 -4.22500e-27        00000 
-3.61938e-27  4.87625e-27        00000 
 2.70072e-27 -4.98112e-27        00000 
-1.65919e-27  4.49923e-27        00000 
 7.81917e-28 -3.59103e-27        00000 
-2.15117e-28  2.53165e-27        00000 
-5.31366e-29 -1.57660e-27        00000 
 1.23871e-28  8.67988e-28        00000 
-1.04584e-28 -4.23236e-28        00000 
 6.48244e-29  1.83481e-28        00000 
-3.37492e-29 -7.15227e-29        00000 
 1.68120e-29  2.69268e-29        00000 
-1.16888e-29 -1.55784e-29        00000 
 8.31705e-34 -6.81311e-35        00000 
-1.80846e-33  1.67041e-34        00000 
 6.79612e-33 -7.21397e-34        00000 
-2.56799e-32  3.08787e-33        00000 
 9.25687e-32 -1.25625e-32        00000 
-3.15226e-31  4.82302e-32        00000 
 1.00620e-30 -1.73686e-31        00000 
-2.98659e-30  5.83068e-31        00000 
 8.17764e-30 -1.81342e-30        00000 
-2.04987e-29  5.19422e-30        00000 
 4.67143e-29 -1.36262e-29        00000 
-9.61932e-29  3.25748e-29        00000 
 1.78046e-28 -7.06507e-29        00000 
-2.94877e-28  1.38498e-28        00000 
 4.35214e-28 -2.44632e-28        00000 
-5.70143e-28  3.88360e-28        00000 
 6.60065e-28 -5.53028e-28        00000 