<?xml version="1.0" encoding="utf-8"?>
<VTKFile byte_order="LittleEndian" type="UnstructuredGrid" version="0.1">
   <UnstructuredGrid>
      <Piece NumberOfCells="3364" NumberOfPoints="1741">
         <Points>
            <DataArray Name="Points" NumberOfComponents="3" format="ascii" type="Float32">
0.0000 1.0000 0.0000
0.0000 1.0345 0.0000
0.0000 1.0690 0.0000
0.0000 1.1034 0.0000
0.0000 1.1379 0.0000
0.0000 1.1724 0.0000
0.0000 1.2069 0.0000
0.0000 1.2414 0.0000
0.0000 1.2759 0.0000
0.0000 1.3103 0.0000
0.0000 1.3448 0.0000
0.0000 1.3793 0.0000
0.0000 1.4138 0.0000
0.0000 1.4483 0.0000
0.0000 1.4828 0.0000
0.0000 1.5172 0.0000
0.0000 1.5517 0.0000
0.0000 1.5862 0.0000
0.0000 1.6207 0.0000
0.0000 1.6552 0.0000
0.0000 1.6897 0.0000
0.0000 1.7241 0.0000
0.0000 1.7586 0.0000
0.0000 1.7931 0.0000
0.0000 1.8276 0.0000
0.0000 1.8621 0.0000
0.0000 1.8966 0.0000
0.0000 1.9310 0.0000
0.0000 1.9655 0.0000
0.0000 2.0000 0.0000
0.0690 1.0000 0.0000
0.0690 1.0345 0.0000
0.0690 1.0690 0.0000
0.0690 1.1034 0.0000
0.0690 1.1379 0.0000
0.0690 1.1724 0.0000
0.0690 1.2069 0.0000
0.0690 1.2414 0.0000
0.0690 1.2759 0.0000
0.0690 1.3103 0.0000
0.0690 1.3448 0.0000
0.0690 1.3793 0.0000
0.0690 1.4138 0.0000
0.0690 1.4483 0.0000
0.0690 1.4828 0.0000
0.0690 1.5172 0.0000
0.0690 1.5517 0.0000
0.0690 1.5862 0.0000
0.0690 1.6207 0.0000
0.0690 1.6552 0.0000
0.0690 1.6897 0.0000
0.0690 1.7241 0.0000
0.0690 1.7586 0.0000
0.0690 1.7931 0.0000
0.0690 1.8276 0.0000
0.0690 1.8621 0.0000
0.0690 1.8966 0.0000
0.0690 1.9310 0.0000
0.0690 1.9655 0.0000
0.0690 2.0000 0.0000
0.1379 1.0000 0.0000
0.1379 1.0345 0.0000
0.1379 1.0690 0.0000
0.1379 1.1034 0.0000
0.1379 1.1379 0.0000
0.1379 1.1724 0.0000
0.1379 1.2069 0.0000
0.1379 1.2414 0.0000
0.1379 1.2759 0.0000
0.1379 1.3103 0.0000
0.1379 1.3448 0.0000
0.1379 1.3793 0.0000
0.1379 1.4138 0.0000
0.1379 1.4483 0.0000
0.1379 1.4828 0.0000
0.1379 1.5172 0.0000
0.1379 1.5517 0.0000
0.1379 1.5862 0.0000
0.1379 1.6207 0.0000
0.1379 1.6552 0.0000
0.1379 1.6897 0.0000
0.1379 1.7241 0.0000
0.1379 1.7586 0.0000
0.1379 1.7931 0.0000
0.1379 1.8276 0.0000
0.1379 1.8621 0.0000
0.1379 1.8966 0.0000
0.1379 1.9310 0.0000
0.1379 1.9655 0.0000
0.1379 2.0000 0.0000
0.2069 1.0000 0.0000
0.2069 1.0345 0.0000
0.2069 1.0690 0.0000
0.2069 1.1034 0.0000
0.2069 1.1379 0.0000
0.2069 1.1724 0.0000
0.2069 1.2069 0.0000
0.2069 1.2414 0.0000
0.2069 1.2759 0.0000
0.2069 1.3103 0.0000
0.2069 1.3448 0.0000
0.2069 1.3793 0.0000
0.2069 1.4138 0.0000
0.2069 1.4483 0.0000
0.2069 1.4828 0.0000
0.2069 1.5172 0.0000
0.2069 1.5517 0.0000
0.2069 1.5862 0.0000
0.2069 1.6207 0.0000
0.2069 1.6552 0.0000
0.2069 1.6897 0.0000
0.2069 1.7241 0.0000
0.2069 1.7586 0.0000
0.2069 1.7931 0.0000
0.2069 1.8276 0.0000
0.2069 1.8621 0.0000
0.2069 1.8966 0.0000
0.2069 1.9310 0.0000
0.2069 1.9655 0.0000
0.2069 2.0000 0.0000
0.2759 1.0000 0.0000
0.2759 1.0345 0.0000
0.2759 1.0690 0.0000
0.2759 1.1034 0.0000
0.2759 1.1379 0.0000
0.2759 1.1724 0.0000
0.2759 1.2069 0.0000
0.2759 1.2414 0.0000
0.2759 1.2759 0.0000
0.2759 1.3103 0.0000
0.2759 1.3448 0.0000
0.2759 1.3793 0.0000
0.2759 1.4138 0.0000
0.2759 1.4483 0.0000
0.2759 1.4828 0.0000
0.2759 1.5172 0.0000
0.2759 1.5517 0.0000
0.2759 1.5862 0.0000
0.2759 1.6207 0.0000
0.2759 1.6552 0.0000
0.2759 1.6897 0.0000
0.2759 1.7241 0.0000
0.2759 1.7586 0.0000
0.2759 1.7931 0.0000
0.2759 1.8276 0.0000
0.2759 1.8621 0.0000
0.2759 1.8966 0.0000
0.2759 1.9310 0.0000
0.2759 1.9655 0.0000
0.2759 2.0000 0.0000
0.3448 1.0000 0.0000
0.3448 1.0345 0.0000
0.3448 1.0690 0.0000
0.3448 1.1034 0.0000
0.3448 1.1379 0.0000
0.3448 1.1724 0.0000
0.3448 1.2069 0.0000
0.3448 1.2414 0.0000
0.3448 1.2759 0.0000
0.3448 1.3103 0.0000
0.3448 1.3448 0.0000
0.3448 1.3793 0.0000
0.3448 1.4138 0.0000
0.3448 1.4483 0.0000
0.3448 1.4828 0.0000
0.3448 1.5172 0.0000
0.3448 1.5517 0.0000
0.3448 1.5862 0.0000
0.3448 1.6207 0.0000
0.3448 1.6552 0.0000
0.3448 1.6897 0.0000
0.3448 1.7241 0.0000
0.3448 1.7586 0.0000
0.3448 1.7931 0.0000
0.3448 1.8276 0.0000
0.3448 1.8621 0.0000
0.3448 1.8966 0.0000
0.3448 1.9310 0.0000
0.3448 1.9655 0.0000
0.3448 2.0000 0.0000
0.4138 1.0000 0.0000
0.4138 1.0345 0.0000
0.4138 1.0690 0.0000
0.4138 1.1034 0.0000
0.4138 1.1379 0.0000
0.4138 1.1724 0.0000
0.4138 1.2069 0.0000
0.4138 1.2414 0.0000
0.4138 1.2759 0.0000
0.4138 1.3103 0.0000
0.4138 1.3448 0.0000
0.4138 1.3793 0.0000
0.4138 1.4138 0.0000
0.4138 1.4483 0.0000
0.4138 1.4828 0.0000
0.4138 1.5172 0.0000
0.4138 1.5517 0.0000
0.4138 1.5862 0.0000
0.4138 1.6207 0.0000
0.4138 1.6552 0.0000
0.4138 1.6897 0.0000
0.4138 1.7241 0.0000
0.4138 1.7586 0.0000
0.4138 1.7931 0.0000
0.4138 1.8276 0.0000
0.4138 1.8621 0.0000
0.4138 1.8966 0.0000
0.4138 1.9310 0.0000
0.4138 1.9655 0.0000
0.4138 2.0000 0.0000
0.4828 1.0000 0.0000
0.4828 1.0345 0.0000
0.4828 1.0690 0.0000
0.4828 1.1034 0.0000
0.4828 1.1379 0.0000
0.4828 1.1724 0.0000
0.4828 1.2069 0.0000
0.4828 1.2414 0.0000
0.4828 1.2759 0.0000
0.4828 1.3103 0.0000
0.4828 1.3448 0.0000
0.4828 1.3793 0.0000
0.4828 1.4138 0.0000
0.4828 1.4483 0.0000
0.4828 1.4828 0.0000
0.4828 1.5172 0.0000
0.4828 1.5517 0.0000
0.4828 1.5862 0.0000
0.4828 1.6207 0.0000
0.4828 1.6552 0.0000
0.4828 1.6897 0.0000
0.4828 1.7241 0.0000
0.4828 1.7586 0.0000
0.4828 1.7931 0.0000
0.4828 1.8276 0.0000
0.4828 1.8621 0.0000
0.4828 1.8966 0.0000
0.4828 1.9310 0.0000
0.4828 1.9655 0.0000
0.4828 2.0000 0.0000
0.5517 1.0000 0.0000
0.5517 1.0345 0.0000
0.5517 1.0690 0.0000
0.5517 1.1034 0.0000
0.5517 1.1379 0.0000
0.5517 1.1724 0.0000
0.5517 1.2069 0.0000
0.5517 1.2414 0.0000
0.5517 1.2759 0.0000
0.5517 1.3103 0.0000
0.5517 1.3448 0.0000
0.5517 1.3793 0.0000
0.5517 1.4138 0.0000
0.5517 1.4483 0.0000
0.5517 1.4828 0.0000
0.5517 1.5172 0.0000
0.5517 1.5517 0.0000
0.5517 1.5862 0.0000
0.5517 1.6207 0.0000
0.5517 1.6552 0.0000
0.5517 1.6897 0.0000
0.5517 1.7241 0.0000
0.5517 1.7586 0.0000
0.5517 1.7931 0.0000
0.5517 1.8276 0.0000
0.5517 1.8621 0.0000
0.5517 1.8966 0.0000
0.5517 1.9310 0.0000
0.5517 1.9655 0.0000
0.5517 2.0000 0.0000
0.6207 1.0000 0.0000
0.6207 1.0345 0.0000
0.6207 1.0690 0.0000
0.6207 1.1034 0.0000
0.6207 1.1379 0.0000
0.6207 1.1724 0.0000
0.6207 1.2069 0.0000
0.6207 1.2414 0.0000
0.6207 1.2759 0.0000
0.6207 1.3103 0.0000
0.6207 1.3448 0.0000
0.6207 1.3793 0.0000
0.6207 1.4138 0.0000
0.6207 1.4483 0.0000
0.6207 1.4828 0.0000
0.6207 1.5172 0.0000
0.6207 1.5517 0.0000
0.6207 1.5862 0.0000
0.6207 1.6207 0.0000
0.6207 1.6552 0.0000
0.6207 1.6897 0.0000
0.6207 1.7241 0.0000
0.6207 1.7586 0.0000
0.6207 1.7931 0.0000
0.6207 1.8276 0.0000
0.6207 1.8621 0.0000
0.6207 1.8966 0.0000
0.6207 1.9310 0.0000
0.6207 1.9655 0.0000
0.6207 2.0000 0.0000
0.6897 1.0000 0.0000
0.6897 1.0345 0.0000
0.6897 1.0690 0.0000
0.6897 1.1034 0.0000
0.6897 1.1379 0.0000
0.6897 1.1724 0.0000
0.6897 1.2069 0.0000
0.6897 1.2414 0.0000
0.6897 1.2759 0.0000
0.6897 1.3103 0.0000
0.6897 1.3448 0.0000
0.6897 1.3793 0.0000
0.6897 1.4138 0.0000
0.6897 1.4483 0.0000
0.6897 1.4828 0.0000
0.6897 1.5172 0.0000
0.6897 1.5517 0.0000
0.6897 1.5862 0.0000
0.6897 1.6207 0.0000
0.6897 1.6552 0.0000
0.6897 1.6897 0.0000
0.6897 1.7241 0.0000
0.6897 1.7586 0.0000
0.6897 1.7931 0.0000
0.6897 1.8276 0.0000
0.6897 1.8621 0.0000
0.6897 1.8966 0.0000
0.6897 1.9310 0.0000
0.6897 1.9655 0.0000
0.6897 2.0000 0.0000
0.7586 1.0000 0.0000
0.7586 1.0345 0.0000
0.7586 1.0690 0.0000
0.7586 1.1034 0.0000
0.7586 1.1379 0.0000
0.7586 1.1724 0.0000
0.7586 1.2069 0.0000
0.7586 1.2414 0.0000
0.7586 1.2759 0.0000
0.7586 1.3103 0.0000
0.7586 1.3448 0.0000
0.7586 1.3793 0.0000
0.7586 1.4138 0.0000
0.7586 1.4483 0.0000
0.7586 1.4828 0.0000
0.7586 1.5172 0.0000
0.7586 1.5517 0.0000
0.7586 1.5862 0.0000
0.7586 1.6207 0.0000
0.7586 1.6552 0.0000
0.7586 1.6897 0.0000
0.7586 1.7241 0.0000
0.7586 1.7586 0.0000
0.7586 1.7931 0.0000
0.7586 1.8276 0.0000
0.7586 1.8621 0.0000
0.7586 1.8966 0.0000
0.7586 1.9310 0.0000
0.7586 1.9655 0.0000
0.7586 2.0000 0.0000
0.8276 1.0000 0.0000
0.8276 1.0345 0.0000
0.8276 1.0690 0.0000
0.8276 1.1034 0.0000
0.8276 1.1379 0.0000
0.8276 1.1724 0.0000
0.8276 1.2069 0.0000
0.8276 1.2414 0.0000
0.8276 1.2759 0.0000
0.8276 1.3103 0.0000
0.8276 1.3448 0.0000
0.8276 1.3793 0.0000
0.8276 1.4138 0.0000
0.8276 1.4483 0.0000
0.8276 1.4828 0.0000
0.8276 1.5172 0.0000
0.8276 1.5517 0.0000
0.8276 1.5862 0.0000
0.8276 1.6207 0.0000
0.8276 1.6552 0.0000
0.8276 1.6897 0.0000
0.8276 1.7241 0.0000
0.8276 1.7586 0.0000
0.8276 1.7931 0.0000
0.8276 1.8276 0.0000
0.8276 1.8621 0.0000
0.8276 1.8966 0.0000
0.8276 1.9310 0.0000
0.8276 1.9655 0.0000
0.8276 2.0000 0.0000
0.8966 1.0000 0.0000
0.8966 1.0345 0.0000
0.8966 1.0690 0.0000
0.8966 1.1034 0.0000
0.8966 1.1379 0.0000
0.8966 1.1724 0.0000
0.8966 1.2069 0.0000
0.8966 1.2414 0.0000
0.8966 1.2759 0.0000
0.8966 1.3103 0.0000
0.8966 1.3448 0.0000
0.8966 1.3793 0.0000
0.8966 1.4138 0.0000
0.8966 1.4483 0.0000
0.8966 1.4828 0.0000
0.8966 1.5172 0.0000
0.8966 1.5517 0.0000
0.8966 1.5862 0.0000
0.8966 1.6207 0.0000
0.8966 1.6552 0.0000
0.8966 1.6897 0.0000
0.8966 1.7241 0.0000
0.8966 1.7586 0.0000
0.8966 1.7931 0.0000
0.8966 1.8276 0.0000
0.8966 1.8621 0.0000
0.8966 1.8966 0.0000
0.8966 1.9310 0.0000
0.8966 1.9655 0.0000
0.8966 2.0000 0.0000
0.9655 1.0000 0.0000
0.9655 1.0345 0.0000
0.9655 1.0690 0.0000
0.9655 1.1034 0.0000
0.9655 1.1379 0.0000
0.9655 1.1724 0.0000
0.9655 1.2069 0.0000
0.9655 1.2414 0.0000
0.9655 1.2759 0.0000
0.9655 1.3103 0.0000
0.9655 1.3448 0.0000
0.9655 1.3793 0.0000
0.9655 1.4138 0.0000
0.9655 1.4483 0.0000
0.9655 1.4828 0.0000
0.9655 1.5172 0.0000
0.9655 1.5517 0.0000
0.9655 1.5862 0.0000
0.9655 1.6207 0.0000
0.9655 1.6552 0.0000
0.9655 1.6897 0.0000
0.9655 1.7241 0.0000
0.9655 1.7586 0.0000
0.9655 1.7931 0.0000
0.9655 1.8276 0.0000
0.9655 1.8621 0.0000
0.9655 1.8966 0.0000
0.9655 1.9310 0.0000
0.9655 1.9655 0.0000
0.9655 2.0000 0.0000
1.0345 1.0000 0.0000
1.0345 1.0345 0.0000
1.0345 1.0690 0.0000
1.0345 1.1034 0.0000
1.0345 1.1379 0.0000
1.0345 1.1724 0.0000
1.0345 1.2069 0.0000
1.0345 1.2414 0.0000
1.0345 1.2759 0.0000
1.0345 1.3103 0.0000
1.0345 1.3448 0.0000
[...]
         <PointData>
            <DataArray Name="fValues" NumberOfComponents="3" format="ascii" type="Float64">
 2.90945e-26  4.80160e-26        00000 
-8.05621e-26 -1.32287e-25        00000 
 4.06644e-25  6.65534e-25        00000 
-2.03601e-24 -3.36569e-24        00000 
 9.56247e-24  1.68777e-23        00000 
-3.50363e-23 -8.09986e-23        00000 
 1.04496e-22  2.56431e-22        00000 
-2.32656e-22 -9.77597e-22        00000 
-4.11193e-22  3.00544e-21        00000 
 5.05323e-21 -1.17671e-20        00000 
-1.38232e-20  3.17797e-20        00000 
 2.29188e-20 -5.26098e-20        00000 
-2.37338e-20  5.71291e-20        00000 
 1.39909e-20 -4.15333e-20        00000 
-9.98160e-21  2.60545e-20        00000 
 5.04406e-21 -1.23731e-20        00000 
-1.65188e-21  4.47599e-21        00000 
 4.24651e-22 -1.24242e-21        00000 
-9.37240e-23  2.90650e-22        00000 
 1.89070e-23 -6.16849e-23        00000 
-3.61354e-24  1.23092e-23        00000 
 6.52172e-25 -2.26905e-24        00000 
-1.23699e-25  4.26522e-25        00000 
 2.19457e-26 -7.84216e-26        00000 
-3.83570e-27  1.41784e-26        00000 
 6.65459e-28 -2.53315e-27        00000 
-1.14871e-28  4.48616e-28        00000 
 1.97701e-29 -7.89836e-29        00000 
-3.48603e-30  1.42258e-29        00000 
 1.15897e-30 -4.81211e-30        00000 
-3.20496e-26 -5.32727e-26        00000 
 9.10496e-26  1.50552e-25        00000 
-4.77983e-25 -7.84091e-25        00000 
 2.52943e-24  4.10076e-24        00000 
-1.29982e-23 -2.05907e-23        00000 
 6.82763e-23  1.06642e-22        00000 
-2.06040e-22 -4.02691e-22        00000 
 7.14899e-22  1.61941e-21        00000 
-1.92805e-21 -6.78297e-21        00000 
-5.50712e-21  1.41462e-20        00000 
 4.16136e-20 -9.40987e-20        00000 
-7.68188e-20  1.78195e-19        00000 
 8.80551e-20 -1.97139e-19        00000 
-4.24341e-20  1.33192e-19        00000 
 3.34757e-20 -7.36885e-20        00000 
-1.13221e-20  3.02882e-20        00000 
 2.86354e-21 -8.42854e-21        00000 
-6.08513e-22  1.90310e-21        00000 
 1.18933e-22 -3.92549e-22        00000 
-2.21994e-23  7.67931e-23        00000 
 4.02854e-24 -1.44938e-23        00000 
-7.73878e-25  2.59386e-24        00000 
 1.30590e-25 -4.72605e-25        00000 
-2.26049e-26  8.47683e-26        00000 
 3.90567e-27 -1.50597e-26        00000 
-6.72389e-28  2.65580e-27        00000 
 1.15402e-28 -4.65673e-28        00000 
-1.97741e-29  8.13489e-29        00000 
 3.47451e-30 -1.45578e-29        00000 
-1.15228e-30  4.90121e-30        00000 
 3.94809e-26  6.66631e-26        00000 
-1.17458e-25 -1.97747e-25        00000 
 6.58065e-25  1.10045e-24        00000 
-3.77911e-24 -6.22423e-24        00000 
 2.16141e-23  3.42481e-23        00000 
-1.19135e-22 -1.62214e-22        00000 
 5.29219e-22  9.22879e-22        00000 
-2.54852e-21 -4.24382e-21        00000 
 9.96411e-21  1.63446e-20        00000 
-4.67360e-20 -1.02703e-19        00000 
-2.60234e-19  3.98332e-19        00000 
 4.71178e-19 -1.22278e-18        00000 
-6.05603e-19  1.36898e-18        00000 
 4.60277e-19 -7.27962e-19        00000 
-1.48212e-19  3.98812e-19        00000 
 3.41064e-20 -1.04718e-19        00000 
-6.19226e-21  2.03095e-20        00000 
 1.05473e-21 -3.71213e-21        00000 
-1.76775e-22  6.59395e-22        00000 
 2.94130e-23 -1.15241e-22        00000 
-4.90845e-24  1.99148e-23        00000 
 8.36428e-25 -3.40875e-24        00000 
-1.40913e-25  5.83133e-25        00000 
 2.37906e-26 -1.00152e-25        00000 
-4.02486e-27  1.72030e-26        00000 
 6.81471e-28 -2.95405e-27        00000 
-1.15448e-28  5.07038e-28        00000 
 1.95818e-29 -8.70551e-29        00000 
-3.41267e-30  1.53516e-29        00000 
 1.12518e-30 -5.11179e-30        00000 
-4.77621e-26 -8.18191e-26        00000 
 1.46955e-25  2.52145e-25        00000 
-8.59936e-25 -1.47811e-24        00000 
 5.18942e-24  8.94090e-24        00000 
-3.14969e-23 -5.46449e-23        00000 
 1.94381e-22  3.51916e-22        00000 
-1.04159e-21 -1.83558e-21        00000 
 6.01001e-21  1.04740e-20        00000 
-3.37465e-20 -5.10840e-20        00000 
 1.07859e-19  1.01782e-19        00000 
 4.96227e-19 -3.11615e-18        00000 
-3.63557e-18  8.33632e-18        00000 
 5.37110e-18 -6.98588e-18        00000 
-2.08001e-18  6.03260e-18        00000 
 4.47744e-19 -1.46707e-18        00000 
-6.49731e-20  2.23794e-19        00000 
 9.49502e-21 -3.65074e-20        00000 
-1.44036e-21  5.94922e-21        00000 
 2.19193e-22 -9.68763e-22        00000 
-3.40786e-23  1.56580e-22        00000 
 5.48716e-24 -2.55903e-23        00000 
-8.54366e-25  4.17974e-24        00000 
 1.44537e-25 -6.95223e-25        00000 
-2.40143e-26  1.15884e-25        00000 
 3.99161e-27 -1.93942e-26        00000 
-6.65827e-28  3.25682e-27        00000 
 1.11455e-28 -5.48450e-28        00000 
-1.87263e-29  9.26413e-29        00000 
 3.23854e-30 -1.61016e-29        00000 
-1.06190e-30  5.30136e-30        00000 
 5.28030e-26  9.10302e-26        00000 
-1.65018e-25 -2.85736e-25        00000 
 9.84034e-25  1.71508e-24        00000 
-6.05967e-24 -1.06623e-23        00000 
 3.76565e-23  6.72625e-23        00000 
-2.35257e-22 -4.26223e-22        00000 
 1.49786e-21  2.69933e-21        00000 
-9.79855e-21 -1.76678e-20        00000 
 6.20188e-20  1.23643e-19        00000 
-5.14115e-19 -8.01249e-19        00000 
 3.11459e-18        00000        00000 
-7.50427e-02 -2.21074e-01        00000 
 7.50427e-02 -2.21074e-01        00000 
 6.30595e-18 -2.27031e-17        00000 
-5.42542e-19  1.96006e-18        00000 
 6.50196e-20 -3.11557e-19        00000 
-9.56950e-21  4.73678e-20        00000 
 1.32950e-21 -7.37916e-21        00000 
-1.94558e-22  1.10645e-21        00000 
 3.22304e-23 -1.75542e-22        00000 
-5.31095e-24  2.82037e-23        00000 
 8.55892e-25 -4.58020e-24        00000 
-1.35153e-25  7.48244e-25        00000 
 2.20225e-26 -1.23138e-25        00000 
-3.62917e-27  2.03619e-26        00000 
 6.02096e-28 -3.38115e-27        00000 
-1.00390e-28  5.63526e-28        00000 
 1.68170e-29 -9.42923e-29        00000 
-2.90168e-30  1.62432e-29        00000 
 9.49989e-31 -5.30929e-30        00000 
-5.19858e-26 -8.91782e-26        00000 
 1.62503e-25  2.79808e-25        00000 
-9.68230e-25 -1.67537e-24        00000 
 5.94837e-24  1.03465e-23        00000 
-3.67889e-23 -6.42155e-23        00000 
 2.29659e-22  4.00656e-22        00000 
-1.45048e-21 -2.53281e-21        00000 
 9.27954e-21  1.63107e-20        00000 
-6.35685e-20 -1.07217e-19        00000 
 2.99986e-19  7.37758e-19        00000 
-1.54115e-18 -9.34426e-18        00000 
 7.50427e-02 -2.21074e-01        00000 
-7.50427e-02 -2.21074e-01        00000 
 4.47865e-20  2.72083e-18        00000 
 1.75386e-19 -1.29469e-18        00000 
-3.40465e-20  2.18520e-19        00000 
 4.61057e-21 -3.54625e-20        00000 
-8.03640e-22  5.68735e-21        00000 
 1.31614e-22 -9.32761e-22        00000 
-2.16161e-23  1.51923e-22        00000 
 4.20926e-24 -2.62050e-23        00000 
-6.33987e-25  4.31985e-24        00000 
 1.04800e-25 -7.10533e-25        00000 
-1.74017e-26  1.17166e-25        00000 
 2.90739e-27 -1.93900e-26        00000 
-4.87697e-28  3.21950e-27        00000 
 8.20482e-29 -5.36184e-28        00000 
-1.38467e-29  8.96078e-29        00000 
 2.40474e-30 -1.54114e-29        00000 
-7.91311e-31  5.02936e-30        00000 
 4.52650e-26  7.63543e-26        00000 
-1.39709e-25 -2.35758e-25        00000 
 8.18091e-25  1.38008e-24        00000 
-4.92007e-24 -8.28378e-24        00000 
 2.96219e-23  4.96693e-23        00000 
-1.78082e-22 -2.96998e-22        00000 
 1.06409e-21  1.76160e-21        00000 
-6.25928e-21 -1.01832e-20        00000 
 3.30926e-20  5.33954e-20        00000 
-1.44490e-19 -2.02881e-19        00000 
 6.63253e-19 -4.31027e-19        00000 
-5.55920e-19  1.00046e-17        00000 
 3.63593e-18  1.27467e-17        00000 
-1.60730e-18 -2.91438e-18        00000 
 7.84392e-20  6.01243e-19        00000 
-5.29606e-21 -1.05272e-19        00000 
-1.90705e-22  1.59340e-20        00000 
 1.77926e-22 -3.33830e-21        00000 
-4.79230e-23  6.12307e-22        00000 
 1.00676e-23 -1.08264e-22        00000 
-1.21420e-24  2.13426e-23        00000 
 3.43613e-25 -3.53929e-24        00000 
-6.41854e-26  5.91398e-25        00000 
 1.14142e-26 -9.89697e-26        00000 
-1.99290e-27  1.65787e-26        00000 
 3.45211e-28 -2.78025e-27        00000 
-5.95511e-29  4.66817e-28        00000 
 1.02564e-29 -7.85373e-29        00000 
-1.81266e-30  1.35840e-29        00000 
 6.04550e-31 -4.45179e-30        00000 
-3.48384e-26 -5.71320e-26        00000 
 1.04964e-25  1.71327e-25        00000 
-5.95165e-25 -9.64400e-25        00000 
 3.44437e-24  5.52595e-24        00000 
-1.97441e-23 -3.12468e-23        00000 
 1.11293e-22  1.72725e-22        00000 
-6.09962e-22 -9.18358e-22        00000 
 3.17830e-21  4.57798e-21        00000 
-1.64019e-20 -2.23691e-20        00000 
 4.56143e-20 -2.64509e-20        00000 
-9.69193e-20  3.98403e-19        00000 
 2.34348e-19 -2.28043e-19        00000 
-3.90752e-19 -9.52897e-19        00000 
 2.86538e-19  7.84410e-19        00000 
-8.68598e-20 -2.20016e-19        00000 
 1.03589e-20  5.00510e-20        00000 
-1.59783e-21 -8.70903e-21        00000 
 1.23044e-22  1.77407e-21        00000 
-8.64101e-25 -3.52717e-22        00000 
-2.14445e-24  6.71555e-23        00000 
 1.13648e-24 -1.42665e-23        00000 
-1.57232e-25  2.49003e-24        00000 
 3.14143e-26 -4.30257e-25        00000 
-6.08775e-27  7.40014e-26        00000 
 1.14082e-27 -1.26838e-26        00000 
-2.08849e-28  2.16850e-27        00000 
 3.76436e-29 -3.70096e-28        00000 
-6.71854e-30  6.31392e-29        00000 
 1.22434e-30 -1.10572e-29        00000 
-4.17979e-31  3.65914e-30        00000 
 2.37388e-26  3.74184e-26        00000 
-6.90963e-26 -1.07665e-25        00000 
 3.74269e-25  5.73384e-25        00000 
-2.05237e-24 -3.07452e-24        00000 
 1.10047e-23  1.59647e-23        00000 
-5.70519e-23 -7.87851e-23        00000 
 2.81808e-22  3.58301e-22        00000 
-1.31353e-21 -1.41388e-21        00000 
 5.38456e-21  2.89924e-21        00000 
-1.28008e-20  4.95210e-21        00000 
 3.42460e-20 -9.68460e-21        00000 
-4.56082e-20 -4.17896e-20        00000 
 4.99257e-20  1.25411e-19        00000 
-3.82025e-20 -1.29531e-19        00000 
 1.25452e-20  5.64729e-20        00000 
-5.50914e-21 -2.69002e-20        00000 
 7.30975e-22  5.98387e-21        00000 
-5.28289e-23 -1.06866e-21        00000 
 5.68078e-24  2.06469e-22        00000 
-2.04563e-24 -4.08502e-23        00000 
 4.20280e-28  8.03728e-24        00000 
 4.53064e-26 -1.50198e-24        00000 
-1.08976e-26  2.73548e-25        00000 
 2.46145e-27 -4.90046e-26        00000 
-5.19448e-28  8.68376e-27        00000 
 1.04184e-28 -1.52677e-27        00000 
-2.01620e-29  2.66869e-28        00000 
 3.80838e-30 -4.64773e-29        00000 
-7.28136e-31  8.29265e-30        00000 
 2.57666e-31 -2.78517e-30        00000 
-1.43560e-26 -2.14798e-26        00000 
 3.99928e-26  5.85901e-26        00000 
-2.04409e-25 -2.90167e-25        00000 
 1.04813e-24  1.42538e-24        00000 
-5.17976e-24 -6.60646e-24        00000 
 2.42903e-23  2.79086e-23        00000 
-1.05778e-22 -9.99728e-23        00000 
 4.04086e-22  2.31816e-22        00000 
-1.16377e-21 -6.66028e-23        00000 
 2.87681e-21 -4.75301e-22        00000 
-5.38744e-21 -1.30332e-21        00000 
 7.35395e-21  8.66854e-21        00000 
-7.66379e-21 -1.73274e-20        00000 
 5.85524e-21  1.81675e-20        00000 
-3.04146e-21 -1.15711e-20        00000 
 1.15232e-21  5.27732e-21        00000 
-3.54326e-22 -1.91146e-21        00000 
 6.13008e-23  4.68502e-22        00000 
-8.14412e-24 -9.74628e-23        00000 
 1.19506e-24  1.98466e-23        00000 
-1.99971e-25 -4.00979e-24        00000 
 1.74958e-26  7.96752e-25        00000 
 2.30432e-28 -1.53590e-25        00000 
-4.84839e-28  2.88977e-26        00000 
 1.55752e-28 -5.33763e-27        00000 
-3.87113e-29  9.72254e-28        00000 
 8.59599e-30 -1.75208e-28        00000 
-1.79154e-30  3.13368e-29        00000 
 3.70251e-31 -5.72896e-30        00000 
-1.38472e-31  1.96179e-30        00000 
 7.72838e-27  1.08177e-26        00000 
-2.04354e-26 -2.76364e-26        00000 
 9.74684e-26  1.25005e-25        00000 
-4.61824e-25 -5.50131e-25        00000 
 2.07434e-24  2.20507e-24        00000 
-8.63220e-24 -7.56359e-24        00000 
 3.19596e-23  1.91138e-23        00000 
-9.82675e-23 -2.47270e-23        00000 
 2.53376e-22  3.83246e-24        00000 
-5.35230e-22 -5.91902e-23        00000 
 8.92351e-22  5.19054e-22        00000 
-1.16590e-21 -1.54084e-21        00000 
 1.19588e-21  2.55174e-21        00000 
-9.48023e-22 -2.70864e-21        00000 
 5.68351e-22  1.97830e-21        00000 
-2.58932e-22 -1.06058e-21        00000 
 9.26731e-23  4.43013e-22        00000 
-2.56841e-23 -1.45938e-22        00000 
 5.12938e-24  3.76771e-23        00000 
-8.64488e-25 -8.52345e-24        00000 
 1.42774e-25  1.82817e-24        00000 
-2.28763e-26 -3.80959e-25        00000 
 2.96529e-27  7.74250e-26        00000 
-2.82155e-28 -1.53252e-26        00000 
 7.25707e-30  2.96376e-27        00000 
 6.08524e-30 -5.62248e-28        00000 
-2.32923e-30  1.05015e-28        00000 
 6.22049e-31 -1.93870e-29        00000 
-1.50348e-31  3.64983e-30        00000 
 6.19583e-32 -1.27948e-30        00000 
-3.71662e-27 -4.78569e-27        00000 
 9.26121e-27  1.13193e-26        00000 
-4.08078e-26 -4.59230e-26        00000 
 1.76782e-25  1.77130e-25        00000 
-7.12663e-25 -5.95957e-25        00000 
 2.59350e-24  1.59849e-24        00000 
-8.19600e-24 -2.95343e-24        00000 
 2.21536e-23  3.42865e-24        00000 
-5.05985e-23 -6.44464e-24        00000 
 9.57580e-23  3.34360e-23        00000 
-1.48046e-22 -1.18917e-22        00000 
 1.86061e-22  2.62301e-22        00000 
-1.89424e-22 -3.90693e-22        00000 
 1.55001e-22  4.15267e-22        00000 
-1.01038e-22 -3.27090e-22        00000 
 5.23869e-23  1.97430e-22        00000 
-2.18073e-23 -9.43327e-23        00000 
 7.34498e-24  3.65205e-23        00000 
-1.98260e-24 -1.15791e-23        00000 
 4.31136e-25  3.08326e-24        00000 
-8.22643e-26 -7.34623e-25        00000 
 1.47794e-26  1.64407e-25        00000 
-2.50099e-27 -3.53607e-26        00000 
 3.79837e-28  7.37456e-27        00000 
-5.04341e-29 -1.49685e-27        00000 
 5.40701e-30  2.96763e-28        00000 
-2.79701e-31 -5.76757e-29        00000 
-7.54046e-32  1.10352e-29        00000 
 3.78065e-32 -2.14850e-30        00000 
-2.01908e-32  7.73741e-31        00000 
 1.60333e-27  1.86447e-27        00000 
-3.74312e-27 -4.04249e-27        00000 
 1.51081e-26  1.44774e-26        00000 
-5.93758e-26 -4.81715e-26        00000 
 2.13635e-25  1.34736e-25        00000 
-6.84641e-25 -2.94054e-25        00000 
 1.91943e-24  4.90035e-25        00000 
-4.65117e-24 -8.49501e-25        00000 
 9.62065e-24  2.61686e-24        00000 
-1.67911e-23 -9.05526e-24        00000 
 2.45446e-23  2.34919e-23        00000 
-2.99295e-23 -4.40142e-23        00000 
 3.03397e-23  6.12097e-23        00000 
-2.54510e-23 -6.48939e-23        00000 
 1.75871e-23  5.36079e-23        00000 
-9.99333e-24 -3.51975e-23        00000 
 4.68265e-24  1.87281e-23        00000 
-1.81923e-24 -8.21922e-24        00000 
 5.87772e-25  3.01676e-24        00000 
-1.58397e-25 -9.39723e-25        00000 
 3.63853e-26  2.55330e-25        00000 
-7.48977e-27 -6.30024e-26        00000 
 1.43605e-27  1.45846e-26        00000 
-2.58303e-28 -3.22903e-27        00000 
 4.30873e-29  6.90740e-28        00000 
-6.60634e-30 -1.43592e-28        00000 
 9.11321e-31  2.91335e-29        00000 
-1.05172e-31 -5.79662e-30        00000 
 6.89151e-33  1.17140e-30        00000 
 1.64344e-33 -4.34664e-31        00000 
-6.23697e-28 -6.42897e-28        00000 
 1.35888e-27  1.26977e-27        00000 
-4.99622e-27 -3.97648e-27        00000 
 1.77786e-26  1.14196e-26        00000 
-5.74471e-26 -2.74184e-26        00000 
 1.65467e-25  5.43709e-26        00000 
-4.19757e-25 -1.01454e-25        00000 
 9.28420e-25  2.42594e-25        00000 
-1.77417e-24 -7.30237e-25        00000 
 2.90827e-24  2.00546e-24        00000 
-4.07008e-24 -4.35532e-24        00000 
 4.84772e-24  7.34663e-24        00000 
-4.90055e-24 -9.73526e-24        00000 
 4.19222e-24  1.02830e-23        00000 
-3.02662e-24 -8.77512e-24        00000 
 1.84159e-24  6.12731e-24        00000 
-9.45254e-25 -3.54515e-24        00000 
 4.10523e-25  1.72076e-24        00000 
-1.51436e-25 -7.08884e-25        00000 
 4.76576e-26  2.50779e-25        00000 
-1.29162e-26 -7.73887e-26        00000 
 3.08126e-27  2.13266e-26        00000 
-6.67928e-28 -5.39671e-27        00000 
 1.34812e-28  1.28358e-27        00000 
-2.55717e-29 -2.91514e-28        00000 
 4.55897e-30  6.38472e-29        00000 
-7.62571e-31 -1.35730e-29        00000 
 1.18836e-31  2.81751e-30        00000 
-1.70709e-32 -5.92955e-31        00000 
 4.13520e-33  2.27289e-31        00000 
 2.20244e-28  1.97942e-28        00000 
-4.47300e-28 -3.56110e-28        00000 
 1.49632e-27  9.77809e-28        00000 
-4.84410e-27 -2.48226e-27        00000 
 1.42347e-26  5.46003e-27        00000 
-3.74260e-26 -1.10330e-26        00000 
 8.72325e-26  2.42361e-26        00000 
-1.78859e-25 -6.36434e-26        00000 
 3.20552e-25  1.71840e-25        00000 
-4.99754e-25 -4.04722e-25        00000 
 6.75509e-25  7.81319e-25        00000 
-7.89701e-25 -1.22412e-24        00000 
 7.96772e-25  1.56494e-24        00000 
-6.92407e-25 -1.64659e-24        00000 
 5.17343e-25  1.43843e-24        00000 
-3.32012e-25 -1.05228e-24        00000 
 1.83066e-25  6.50219e-25        00000 
-8.68733e-26 -3.42366e-25        00000 
 3.55844e-26  1.54985e-25        00000 
-1.26314e-26 -6.08827e-26        00000 
 3.90976e-27  2.09830e-26        00000 
-1.06728e-27 -6.43874e-27        00000 
 2.61733e-28  1.79296e-27        00000 
-5.89339e-29 -4.62452e-28        00000 
 1.23949e-29  1.12437e-28        00000 
-2.45765e-30 -2.61063e-29        00000 
 4.61242e-31  5.84162e-30        00000 
-8.20954e-32 -1.26973e-30        00000 
 1.41333e-32  2.79238e-31        00000 
-4.36957e-33 -1.10839e-31        00000 
-7.11979e-29 -5.51660e-29        00000 
 1.35046e-28  9.11326e-29        00000 
-4.12315e-28 -2.23239e-28        00000 
 1.22454e-27  5.21988e-28        00000 
-3.31076e-27 -1.12637e-27        00000 
 8.04629e-27  2.44837e-27        00000 
-1.74519e-26 -5.89359e-27        00000 
 3.35867e-26  1.51510e-26        00000 
-5.70938e-26 -3.67870e-26        00000 
 8.54324e-26  7.75482e-26        00000 
-1.12250e-25 -1.37523e-25        00000 
 1.29256e-25  2.03926e-25        00000 
-1.30231e-25 -2.53570e-25        00000 
 1.14638e-25  2.65822e-25        00000 
-8.80584e-26 -2.36335e-25        00000 
 5.89819e-26  1.79277e-25        00000 
-3.44507e-26 -1.16751e-25        00000 
 1.75655e-26  6.56918e-26        00000 
-7.83422e-27 -3.21517e-26        00000 
 3.06584e-27  1.37871e-26        00000 
-1.05753e-27 -5.22278e-27        00000 
 3.23835e-28  1.76576e-27        00000 
-8.90136e-29 -5.39784e-28        00000 
 2.22945e-29  1.51515e-28        00000 
-5.16980e-30 -3.96695e-29        00000 
 1.12438e-30  9.82175e-30        00000 
-2.31329e-31 -2.32473e-30        00000 
 4.52910e-32  5.31248e-31        00000 
-8.69581e-33 -1.22536e-31        00000 
 3.00549e-33  5.04883e-32        00000 
 2.12763e-29  1.41724e-29        00000 
-3.78587e-29 -2.18342e-29        00000 
 1.06100e-28  4.90900e-29        00000 
-2.91555e-28 -1.10463e-28        00000 
 7.32621e-28  2.44062e-28        00000 
-1.66333e-27 -5.63826e-28        00000 
 3.39246e-27  1.38062e-27        00000 
-6.18885e-27 -3.34819e-27        00000 
 1.00647e-26  7.42668e-27        00000 
-1.45541e-26 -1.43894e-26        00000 
 1.86778e-26  2.39222e-26        00000 
-2.12409e-26 -3.39897e-26        00000 
 2.13782e-26  4.13402e-26        00000 
-1.90214e-26 -4.31928e-26        00000 
 1.49486e-26  3.89286e-26        00000 
-1.03707e-26 -3.03979e-26        00000 
 6.35122e-27  2.06589e-26        00000 