<?xml version="1.0" encoding="utf-8"?>
<VTKFile byte_order="LittleEndian" type="UnstructuredGrid" version="0.1">
   <UnstructuredGrid>
      <Piece NumberOfCells="3364" NumberOfPoints="1741">
         <Points>
            <DataArray Name="Points" NumberOfComponents="3" format="ascii" type="Float32">
0.0000 1.0000 0.0000
0.0000 1.0345 0.0000
0.0000 1.0690 0.0000
0.0000 1.1034 0.0000
0.0000 1.1379 0.0000
0.0000 1.1724 0.0000
0.0000 1.2069 0.0000
0.0000 1.2414 0.0000
0.0000 1.2759 0.0000
0.0000 1.3103 0.0000
0.0000 1.3448 0.0000
0.0000 1.3793 0.0000
0.0000 1.4138 0.0000
0.0000 1.4483 0.0000
0.0000 1.4828 0.0000
0.0000 1.5172 0.0000
0.0000 1.5517 0.0000
0.0000 1.5862 0.0000
0.0000 1.6207 0.0000
0.0000 1.6552 0.0000
0.0000 1.6897 0.0000
0.0000 1.7241 0.0000
0.0000 1.7586 0.0000
0.0000 1.7931 0.0000
0.0000 1.8276 0.0000
0.0000 1.8621 0.0000
0.0000 1.8966 0.0000
0.0000 1.9310 0.0000
0.0000 1.9655 0.0000
0.0000 2.0000 0.0000
0.0690 1.0000 0.0000
0.0690 1.0345 0.0000
0.0690 1.0690 0.0000
0.0690 1.1034 0.0000
0.0690 1.1379 0.0000
0.0690 1.1724 0.0000
0.0690 1.2069 0.0000
0.0690 1.2414 0.0000
0.0690 1.2759 0.0000
0.0690 1.3103 0.0000
0.0690 1.3448 0.0000
0.0690 1.3793 0.0000
0.0690 1.4138 0.0000
0.0690 1.4483 0.0000
0.0690 1.4828 0.0000
0.0690 1.5172 0.0000
0.0690 1.5517 0.0000
0.0690 1.5862 0.0000
0.0690 1.6207 0.0000
0.0690 1.6552 0.0000
0.0690 1.6897 0.0000
0.0690 1.7241 0.0000
0.0690 1.7586 0.0000
0.0690 1.7931 0.0000
0.0690 1.8276 0.0000
0.0690 1.8621 0.0000
0.0690 1.8966 0.0000
0.0690 1.9310 0.0000
0.0690 1.9655 0.0000
0.0690 2.0000 0.0000
0.1379 1.0000 0.0000
0.1379 1.0345 0.0000
0.1379 1.0690 0.0000
0.1379 1.1034 0.0000
0.1379 1.1379 0.0000
0.1379 1.1724 0.0000
0.1379 1.2069 0.0000
0.1379 1.2414 0.0000
0.1379 1.2759 0.0000
0.1379 1.3103 0.0000
0.1379 1.3448 0.0000
0.1379 1.3793 0.0000
0.1379 1.4138 0.0000
0.1379 1.4483 0.0000
0.1379 1.4828 0.0000
0.1379 1.5172 0.0000
0.1379 1.5517 0.0000
0.1379 1.5862 0.0000
0.1379 1.6207 0.0000
0.1379 1.6552 0.0000
0.1379 1.6897 0.0000
0.1379 1.7241 0.0000
0.1379 1.7586 0.0000
0.1379 1.7931 0.0000
0.1379 1.8276 0.0000
0.1379 1.8621 0.0000
0.1379 1.8966 0.0000
0.1379 1.9310 0.0000
0.1379 1.9655 0.0000
0.1379 2.0000 0.0000
0.2069 1.0000 0.0000
0.2069 1.0345 0.0000
0.2069 1.0690 0.0000
0.2069 1.1034 0.0000
0.2069 1.1379 0.0000
0.2069 1.1724 0.0000
0.2069 1.2069 0.0000
0.2069 1.2414 0.0000
0.2069 1.2759 0.0000
0.2069 1.3103 0.0000
0.2069 1.3448 0.0000
0.2069 1.3793 0.0000
0.2069 1.4138 0.0000
0.2069 1.4483 0.0000
0.2069 1.4828 0.0000
0.2069 1.5172 0.0000
0.2069 1.5517 0.0000
0.2069 1.5862 0.0000
0.2069 1.6207 0.0000
0.2069 1.6552 0.0000
0.2069 1.6897 0.0000
0.2069 1.7241 0.0000
0.2069 1.7586 0.0000
0.2069 1.7931 0.0000
0.2069 1.8276 0.0000
0.2069 1.8621 0.0000
0.2069 1.8966 0.0000
0.2069 1.9310 0.0000
0.2069 1.9655 0.0000
0.2069 2.0000 0.0000
0.2759 1.0000 0.0000
0.2759 1.0345 0.0000
0.2759 1.0690 0.0000
0.2759 1.1034 0.0000
0.2759 1.1379 0.0000
0.2759 1.1724 0.0000
0.2759 1.2069 0.0000
0.2759 1.2414 0.0000
0.2759 1.2759 0.0000
0.2759 1.3103 0.0000
0.2759 1.3448 0.0000
0.2759 1.3793 0.0000
0.2759 1.4138 0.0000
0.2759 1.4483 0.0000
0.2759 1.4828 0.0000
0.2759 1.5172 0.0000
0.2759 1.5517 0.0000
0.2759 1.5862 0.0000
0.2759 1.6207 0.0000
0.2759 1.6552 0.0000
0.2759 1.6897 0.0000
0.2759 1.7241 0.0000
0.2759 1.7586 0.0000
0.2759 1.7931 0.0000
0.2759 1.8276 0.0000
0.2759 1.8621 0.0000
0.2759 1.8966 0.0000
0.2759 1.9310 0.0000
0.2759 1.9655 0.0000
0.2759 2.0000 0.0000
0.3448 1.0000 0.0000
0.3448 1.0345 0.0000
0.3448 1.0690 0.0000
0.3448 1.1034 0.0000
0.3448 1.1379 0.0000
0.3448 1.1724 0.0000
0.3448 1.2069 0.0000
0.3448 1.2414 0.0000
0.3448 1.2759 0.0000
0.3448 1.3103 0.0000
0.3448 1.3448 0.0000
0.3448 1.3793 0.0000
0.3448 1.4138 0.0000
0.3448 1.4483 0.0000
0.3448 1.4828 0.0000
0.3448 1.5172 0.0000
0.3448 1.5517 0.0000
0.3448 1.5862 0.0000
0.3448 1.6207 0.0000
0.3448 1.6552 0.0000
0.3448 1.6897 0.0000
0.3448 1.7241 0.0000
0.3448 1.7586 0.0000
0.3448 1.7931 0.0000
0.3448 1.8276 0.0000
0.3448 1.8621 0.0000
0.3448 1.8966 0.0000
0.3448 1.9310 0.0000
0.3448 1.9655 0.0000
0.3448 2.0000 0.0000
0.4138 1.0000 0.0000
0.4138 1.0345 0.0000
0.4138 1.0690 0.0000
0.4138 1.1034 0.0000
0.4138 1.1379 0.0000
0.4138 1.1724 0.0000
0.4138 1.2069 0.0000
0.4138 1.2414 0.0000
0.4138 1.2759 0.0000
0.4138 1.3103 0.0000
0.4138 1.3448 0.0000
0.4138 1.3793 0.0000
0.4138 1.4138 0.0000
0.4138 1.4483 0.0000
0.4138 1.4828 0.0000
0.4138 1.5172 0.0000
0.4138 1.5517 0.0000
0.4138 1.5862 0.0000
0.4138 1.6207 0.0000
0.4138 1.6552 0.0000
0.4138 1.6897 0.0000
0.4138 1.7241 0.0000
0.4138 1.7586 0.0000
0.4138 1.7931 0.0000
0.4138 1.8276 0.0000
0.4138 1.8621 0.0000
0.4138 1.8966 0.0000
0.4138 1.9310 0.0000
0.4138 1.9655 0.0000
0.4138 2.0000 0.0000
0.4828 1.0000 0.0000
0.4828 1.0345 0.0000
0.4828 1.0690 0.0000
0.4828 1.1034 0.0000
0.4828 1.1379 0.0000
0.4828 1.1724 0.0000
0.4828 1.2069 0.0000
0.4828 1.2414 0.0000
0.4828 1.2759 0.0000
0.4828 1.3103 0.0000
0.4828 1.3448 0.0000
0.4828 1.3793 0.0000
0.4828 1.4138 0.0000
0.4828 1.4483 0.0000
0.4828 1.4828 0.0000
0.4828 1.5172 0.0000
0.4828 1.5517 0.0000
0.4828 1.5862 0.0000
0.4828 1.6207 0.0000
0.4828 1.6552 0.0000
0.4828 1.6897 0.0000
0.4828 1.7241 0.0000
0.4828 1.7586 0.0000
0.4828 1.7931 0.0000
0.4828 1.8276 0.0000
0.4828 1.8621 0.0000
0.4828 1.8966 0.0000
0.4828 1.9310 0.0000
0.4828 1.9655 0.0000
0.4828 2.0000 0.0000
0.5517 1.0000 0.0000
0.5517 1.0345 0.0000
0.5517 1.0690 0.0000
0.5517 1.1034 0.0000
0.5517 1.1379 0.0000
0.5517 1.1724 0.0000
0.5517 1.2069 0.0000
0.5517 1.2414 0.0000
0.5517 1.2759 0.0000
0.5517 1.3103 0.0000
0.5517 1.3448 0.0000
0.5517 1.3793 0.0000
0.5517 1.4138 0.0000
0.5517 1.4483 0.0000
0.5517 1.4828 0.0000
0.5517 1.5172 0.0000
0.5517 1.5517 0.0000
0.5517 1.5862 0.0000
0.5517 1.6207 0.0000
0.5517 1.6552 0.0000
0.5517 1.6897 0.0000
0.5517 1.7241 0.0000
0.5517 1.7586 0.0000
0.5517 1.7931 0.0000
0.5517 1.8276 0.0000
0.5517 1.8621 0.0000
0.5517 1.8966 0.0000
0.5517 1.9310 0.0000
0.5517 1.9655 0.0000
0.5517 2.0000 0.0000
0.6207 1.0000 0.0000
0.6207 1.0345 0.0000
0.6207 1.0690 0.0000
0.6207 1.1034 0.0000
0.6207 1.1379 0.0000
0.6207 1.1724 0.0000
0.6207 1.2069 0.0000
0.6207 1.2414 0.0000
0.6207 1.2759 0.0000
0.6207 1.3103 0.0000
0.6207 1.3448 0.0000
0.6207 1.3793 0.0000
0.6207 1.4138 0.0000
0.6207 1.4483 0.0000
0.6207 1.4828 0.0000
0.6207 1.5172 0.0000
0.6207 1.5517 0.0000
0.6207 1.5862 0.0000
0.6207 1.6207 0.0000
0.6207 1.6552 0.0000
0.6207 1.6897 0.0000
0.6207 1.7241 0.0000
0.6207 1.7586 0.0000
0.6207 1.7931 0.0000
0.6207 1.8276 0.0000
0.6207 1.8621 0.0000
0.6207 1.8966 0.0000
0.6207 1.9310 0.0000
0.6207 1.9655 0.0000
0.6207 2.0000 0.0000
0.6897 1.0000 0.0000
0.6897 1.0345 0.0000
0.6897 1.0690 0.0000
0.6897 1.1034 0.0000
0.6897 1.1379 0.0000
0.6897 1.1724 0.0000
0.6897 1.2069 0.0000
0.6897 1.2414 0.0000
0.6897 1.2759 0.0000
0.6897 1.3103 0.0000
0.6897 1.3448 0.0000
0.6897 1.3793 0.0000
0.6897 1.4138 0.0000
0.6897 1.4483 0.0000
0.6897 1.4828 0.0000
0.6897 1.5172 0.0000
0.6897 1.5517 0.0000
0.6897 1.5862 0.0000
0.6897 1.6207 0.0000
0.6897 1.6552 0.0000
0.6897 1.6897 0.0000
0.6897 1.7241 0.0000
0.6897 1.7586 0.0000
0.6897 1.7931 0.0000
0.6897 1.8276 0.0000
0.6897 1.8621 0.0000
0.6897 1.8966 0.0000
0.6897 1.9310 0.0000
0.6897 1.9655 0.0000
0.6897 2.0000 0.0000
0.7586 1.0000 0.0000
0.7586 1.0345 0.0000
0.7586 1.0690 0.0000
0.7586 1.1034 0.0000
0.7586 1.1379 0.0000
0.7586 1.1724 0.0000
0.7586 1.2069 0.0000
0.7586 1.2414 0.0000
0.7586 1.2759 0.0000
0.7586 1.3103 0.0000
0.7586 1.3448 0.0000
0.7586 1.3793 0.0000
0.7586 1.4138 0.0000
0.7586 1.4483 0.0000
0.7586 1.4828 0.0000
0.7586 1.5172 0.0000
0.7586 1.5517 0.0000
0.7586 1.5862 0.0000
0.7586 1.6207 0.0000
0.7586 1.6552 0.0000
0.7586 1.6897 0.0000
0.7586 1.7241 0.0000
0.7586 1.7586 0.0000
0.7586 1.7931 0.0000
0.7586 1.8276 0.0000
0.7586 1.8621 0.0000
0.7586 1.8966 0.0000
0.7586 1.9310 0.0000
0.7586 1.9655 0.0000
0.7586 2.0000 0.0000
0.8276 1.0000 0.0000
0.8276 1.0345 0.0000
0.8276 1.0690 0.0000
0.8276 1.1034 0.0000
0.8276 1.1379 0.0000
0.8276 1.1724 0.0000
0.8276 1.2069 0.0000
0.8276 1.2414 0.0000
0.8276 1.2759 0.0000
0.8276 1.3103 0.0000
0.8276 1.3448 0.0000
0.8276 1.3793 0.0000
0.8276 1.4138 0.0000
0.8276 1.4483 0.0000
0.8276 1.4828 0.0000
0.8276 1.5172 0.0000
0.8276 1.5517 0.0000
0.8276 1.5862 0.0000
0.8276 1.6207 0.0000
0.8276 1.6552 0.0000
0.8276 1.6897 0.0000
0.8276 1.7241 0.0000
0.8276 1.7586 0.0000
0.8276 1.7931 0.0000
0.8276 1.8276 0.0000
0.8276 1.8621 0.0000
0.8276 1.8966 0.0000
0.8276 1.9310 0.0000
0.8276 1.9655 0.0000
0.8276 2.0000 0.0000
0.8966 1.0000 0.0000
0.8966 1.0345 0.0000
0.8966 1.0690 0.0000
0.8966 1.1034 0.0000
0.8966 1.1379 0.0000
0.8966 1.1724 0.0000
0.8966 1.2069 0.0000
0.8966 1.2414 0.0000
0.8966 1.2759 0.0000
0.8966 1.3103 0.0000
0.8966 1.3448 0.0000
0.8966 1.3793 0.0000
0.8966 1.4138 0.0000
0.8966 1.4483 0.0000
0.8966 1.4828 0.0000
0.8966 1.5172 0.0000
0.8966 1.5517 0.0000
0.8966 1.5862 0.0000
0.8966 1.6207 0.0000
0.8966 1.6552 0.0000
0.8966 1.6897 0.0000
0.8966 1.7241 0.0000
0.8966 1.7586 0.0000
0.8966 1.7931 0.0000
0.8966 1.8276 0.0000
0.8966 1.8621 0.0000
0.8966 1.8966 0.0000
0.8966 1.9310 0.0000
0.8966 1.9655 0.0000
0.8966 2.0000 0.0000
0.9655 1.0000 0.0000
0.9655 1.0345 0.0000
0.9655 1.0690 0.0000
0.9655 1.1034 0.0000
0.9655 1.1379 0.0000
0.9655 1.1724 0.0000
0.9655 1.2069 0.0000
0.9655 1.2414 0.0000
0.9655 1.2759 0.0000
0.9655 1.3103 0.0000
0.9655 1.3448 0.0000
0.9655 1.3793 0.0000
0.9655 1.4138 0.0000
0.9655 1.4483 0.0000
0.9655 1.4828 0.0000
0.9655 1.5172 0.0000
0.9655 1.5517 0.0000
0.9655 1.5862 0.0000
0.9655 1.6207 0.0000
0.9655 1.6552 0.0000
0.9655 1.6897 0.0000
0.9655 1.7241 0.0000
0.9655 1.7586 0.0000
0.9655 1.7931 0.0000
0.9655 1.8276 0.0000
0.9655 1.8621 0.0000
0.9655 1.8966 0.0000
0.9655 1.9310 0.0000
0.9655 1.9655 0.0000
0.9655 2.0000 0.0000
1.0345 1.0000 0.0000
1.0345 1.0345 0.0000
1.0345 1.0690 0.0000
1.0345 1.1034 0.0000
1.0345 1.1379 0.0000
1.0345 1.1724 0.0000
1.0345 1.2069 0.0000
1.0345 1.2414 0.0000
1.0345 1.2759 0.0000
1.0345 1.3103 0.0000
1.0345 1.3448 0.0000
[...]
         <PointData>
            <DataArray Name="fValues" NumberOfComponents="3" format="ascii" type="Float64">
-5.47095e-33  1.41046e-32        00000 
 1.55433e-32 -4.15913e-32        00000 
-8.17113e-32  2.30160e-31        00000 
 4.36108e-31 -1.29693e-30        00000 
-2.36494e-30  7.08746e-30        00000 
 1.81342e-29 -3.29808e-29        00000 
-7.68708e-29  1.86252e-28        00000 
 4.17413e-28 -1.01556e-27        00000 
-2.23460e-27  5.50627e-27        00000 
 1.17800e-26 -2.94040e-26        00000 
-6.07058e-26  1.53739e-25        00000 
 3.00668e-25 -7.80336e-25        00000 
-1.39615e-24  3.79918e-24        00000 
 5.91569e-24 -1.74659e-23        00000 
-2.20607e-23  7.43840e-23        00000 
 6.56275e-23 -2.87201e-22        00000 
-1.08942e-22  9.68690e-22        00000 
-1.00429e-22 -2.67890e-21        00000 
 1.12601e-21  5.75456e-21        00000 
-3.28880e-21 -9.35494e-21        00000 
 5.78549e-21  1.14448e-20        00000 
-7.05789e-21 -1.05865e-20        00000 
 6.25897e-21  7.26023e-21        00000 
-4.15724e-21 -3.81878e-21        00000 
 2.09122e-21  1.58027e-21        00000 
-8.15610e-22 -5.34380e-22        00000 
 2.55218e-22  1.54465e-22        00000 
-6.74939e-23 -3.98707e-23        00000 
 1.65294e-23  9.88204e-24        00000 
-6.86937e-24 -4.20509e-24        00000 
 5.85523e-33 -1.44266e-32        00000 
-1.68982e-32  4.27142e-32        00000 
 9.07719e-32 -2.38159e-31        00000 
-4.93865e-31  1.36469e-30        00000 
 2.58035e-30 -7.87179e-30        00000 
-8.88438e-30  4.78384e-29        00000 
 8.43374e-29 -2.01402e-28        00000 
-4.63085e-28  1.10835e-27        00000 
 2.52181e-27 -6.10721e-27        00000 
-1.35803e-26  3.33455e-26        00000 
 7.22971e-26 -1.79613e-25        00000 
-3.79260e-25  9.50042e-25        00000 
 1.92167e-24 -4.89208e-24        00000 
-9.10711e-24  2.42081e-23        00000 
 3.92270e-23 -1.13031e-22        00000 
-1.49745e-22  4.86438e-22        00000 
 4.49066e-22 -1.89183e-21        00000 
-5.12107e-22  6.32545e-21        00000 
-1.86222e-21 -1.62385e-20        00000 
 9.16256e-21  2.97274e-20        00000 
-1.89444e-20 -3.80765e-20        00000 
 2.35988e-20  3.44057e-20        00000 
-2.03349e-20 -2.15029e-20        00000 
 1.21419e-20  9.82647e-21        00000 
-5.23245e-21 -3.46667e-21        00000 
 1.69738e-21  1.01079e-21        00000 
-4.44899e-22 -2.58344e-22        00000 
 1.02775e-22  6.07799e-23        00000 
-2.27173e-23 -1.39392e-23        00000 
 8.83886e-24  5.61439e-24        00000 
-6.82826e-33  1.52719e-32        00000 
 2.03344e-32 -4.55756e-32        00000 
-1.14129e-31  2.56956e-31        00000 
 6.56420e-31 -1.49533e-30        00000 
-3.74014e-30  8.83233e-30        00000 
 2.20565e-29 -5.43913e-29        00000 
-1.07760e-28  2.43415e-28        00000 
 5.90643e-28 -1.36462e-27        00000 
-3.31874e-27  7.72019e-27        00000 
 1.86290e-26 -4.38570e-26        00000 
-1.03534e-25  2.48745e-25        00000 
 5.79083e-25 -1.40382e-24        00000 
-3.31144e-24  7.88782e-24        00000 
 1.86235e-23 -4.36381e-23        00000 
-9.68551e-23  2.33700e-22        00000 
 4.52652e-22 -1.17911e-21        00000 
-1.95186e-21  5.40114e-21        00000 
 6.71069e-21 -2.24627e-20        00000 
-3.00997e-21  7.84444e-20        00000 
-4.19306e-20 -1.79679e-19        00000 
 1.20598e-19  2.50026e-19        00000 
-1.59876e-19 -2.15314e-19        00000 
 1.25771e-19  1.13934e-19        00000 
-6.27454e-20 -4.15090e-20        00000 
 2.09132e-20  1.17720e-20        00000 
-5.10288e-21 -2.82531e-21        00000 
 1.07524e-21  6.25857e-22        00000 
-2.09966e-22 -1.30293e-22        00000 
 4.05589e-23  2.67399e-23        00000 
-1.43516e-23 -9.89598e-24        00000 
 7.93767e-33 -1.63539e-32        00000 
-2.42357e-32  4.91608e-32        00000 
 1.40617e-31 -2.78972e-31        00000 
-8.44323e-31  1.62213e-30        00000 
 5.18309e-30 -9.32804e-30        00000 
-3.35488e-29  5.03070e-29        00000 
 1.49051e-28 -3.02858e-28        00000 
-8.19593e-28  1.76258e-27        00000 
 4.36446e-27 -9.92883e-27        00000 
-2.58499e-26  5.74335e-26        00000 
 1.49864e-25 -3.37859e-25        00000 
-8.40508e-25  1.99375e-24        00000 
 4.80102e-24 -1.17366e-23        00000 
-3.05427e-23  7.03662e-23        00000 
 1.95877e-22 -4.19881e-22        00000 
-1.10979e-21  2.45127e-21        00000 
 5.37360e-21 -1.34452e-20        00000 
-2.69084e-20  6.40110e-20        00000 
 1.19174e-19 -2.89015e-19        00000 
 9.81632e-20  1.08159e-18        00000 
-8.22595e-19 -1.80811e-18        00000 
 1.15913e-18  1.37263e-18        00000 
-7.77134e-19 -5.33407e-19        00000 
 2.86524e-19  1.49817e-19        00000 
-6.34718e-20 -3.31791e-20        00000 
 1.21014e-20  7.00318e-21        00000 
-2.15714e-21 -1.38076e-21        00000 
 3.75439e-22  2.59863e-22        00000 
-6.62787e-23 -4.86937e-23        00000 
 2.19700e-23  1.68166e-23        00000 
-8.67802e-33  1.73229e-32        00000 
 2.68153e-32 -5.24628e-32        00000 
-1.57557e-31  3.00223e-31        00000 
 9.53206e-31 -1.76091e-30        00000 
-5.76256e-30  1.03038e-29        00000 
 3.36686e-29 -6.14071e-29        00000 
-2.01926e-28  3.66261e-28        00000 
 1.20140e-27 -2.15447e-27        00000 
-6.70906e-27  1.35209e-26        00000 
 2.83893e-26 -6.97566e-26        00000 
-2.07741e-25  4.15349e-25        00000 
 1.21482e-24 -2.51207e-24        00000 
-6.42195e-24  1.52926e-23        00000 
 3.17780e-23 -8.99892e-23        00000 
-2.46448e-22  5.82882e-22        00000 
 2.01423e-21 -3.76750e-21        00000 
-1.27062e-20  2.47944e-20        00000 
 5.59307e-20 -1.55742e-19        00000 
-3.61390e-19  7.22336e-19        00000 
 2.72988e-18 -3.84179e-18        00000 
 6.96142e-18  1.69965e-17        00000 
-8.88211e-18 -6.98882e-18        00000 
 4.36187e-18  2.01953e-18        00000 
-7.88429e-19 -3.77920e-19        00000 
 1.30559e-19  7.75939e-20        00000 
-2.07387e-20 -1.43882e-20        00000 
 3.34992e-21  2.55049e-21        00000 
-5.44362e-22 -4.38602e-22        00000 
 9.10760e-23  7.63843e-23        00000 
-2.90357e-23 -2.50244e-23        00000 
 8.70993e-33 -1.77958e-32        00000 
-2.69783e-32  5.42847e-32        00000 
 1.58666e-31 -3.13853e-31        00000 
-9.57445e-31  1.86827e-30        00000 
 5.76364e-30 -1.11957e-29        00000 
-3.48641e-29  6.73241e-29        00000 
 2.09895e-28 -4.05351e-28        00000 
-1.21874e-27  2.44340e-27        00000 
 5.82277e-27 -1.35865e-26        00000 
-3.72425e-26  7.49799e-26        00000 
 2.33859e-25 -4.55103e-25        00000 
-1.45848e-24  2.81555e-24        00000 
 8.38220e-24 -1.67377e-23        00000 
-4.67264e-23  1.06796e-22        00000 
 3.19037e-22 -6.69544e-22        00000 
-2.14004e-21  4.25985e-21        00000 
 1.61023e-20 -2.87280e-20        00000 
-5.30577e-20  2.08623e-19        00000 
 3.87925e-19 -1.42239e-18        00000 
-6.17506e-18  7.20424e-18        00000 
-2.13623e-01 -1.47736e-01        00000 
-2.13623e-01  1.47736e-01        00000 
-5.49561e-18 -3.29737e-18        00000 
 9.81341e-19  7.48039e-19        00000 
-1.67464e-19 -1.43056e-19        00000 
 2.57772e-20  2.35956e-20        00000 
-4.01492e-21 -3.76748e-21        00000 
 6.33658e-22  6.05079e-22        00000 
-1.03609e-22 -1.00297e-22        00000 
 3.24913e-23  3.17652e-23        00000 
-7.95158e-33  1.74273e-32        00000 
 2.45374e-32 -5.33592e-32        00000 
-1.43750e-31  3.10056e-31        00000 
 8.66632e-31 -1.85549e-30        00000 
-5.26031e-30  1.11457e-29        00000 
 3.22047e-29 -6.71732e-29        00000 
-2.00181e-28  4.07111e-28        00000 
 1.29834e-27 -2.49859e-27        00000 
-9.94878e-27  1.68313e-26        00000 
 3.41956e-26 -7.31554e-26        00000 
-2.13860e-25  4.30535e-25        00000 
 1.43598e-24 -2.61508e-24        00000 
-1.14603e-23  1.80570e-23        00000 
 3.95569e-23 -1.01935e-22        00000 
-2.46502e-22  6.17638e-22        00000 
 1.48804e-21 -3.65347e-21        00000 
-6.87468e-21  1.96439e-20        00000 
 5.44316e-20 -1.73233e-19        00000 
-7.58661e-20  1.51446e-18        00000 
-3.29514e-19 -1.28128e-17        00000 
-2.13623e-01  1.47736e-01        00000 
-2.13623e-01 -1.47736e-01        00000 
 8.36976e-18  8.41358e-18        00000 
-7.79938e-19 -1.29990e-18        00000 
 1.52472e-19  1.97903e-19        00000 
-2.36218e-20 -2.79729e-20        00000 
 3.70133e-21  4.26020e-21        00000 
-5.88675e-22 -6.66862e-22        00000 
 9.69654e-23  1.08673e-22        00000 
-3.05842e-23 -3.40372e-23        00000 
 6.55347e-33 -1.60688e-32        00000 
-2.00056e-32  4.91140e-32        00000 
 1.15747e-31 -2.84576e-31        00000 
-6.89406e-31  1.69534e-30        00000 
 4.12582e-30 -1.01208e-29        00000 
-2.48562e-29  6.05010e-29        00000 
 1.51622e-28 -3.62018e-28        00000 
-9.42485e-28  2.16161e-27        00000 
 5.54893e-27 -1.19199e-26        00000 
-2.28261e-26  6.77718e-26        00000 
 1.44491e-25 -3.87506e-25        00000 
-7.72479e-25  2.03499e-24        00000 
 3.63670e-24 -8.96562e-24        00000 
-2.21186e-23  8.42999e-23        00000 
 1.22922e-22 -5.05354e-22        00000 
-7.54072e-22  2.98232e-21        00000 
 5.09033e-21 -1.73868e-20        00000 
 8.11124e-21  1.47327e-19        00000 
-9.22705e-20 -9.29350e-19        00000 
 1.66786e-18  4.76375e-18        00000 
-7.59852e-18 -7.63768e-18        00000 
-4.58852e-19  1.19156e-17        00000 
 2.82114e-19 -4.69802e-18        00000 
 3.55978e-19  8.05066e-19        00000 
-9.30349e-20 -1.36317e-19        00000 
 1.52155e-20  2.24906e-20        00000 
-2.56455e-21 -3.59996e-21        00000 
 4.30932e-22  5.80010e-22        00000 
-7.40660e-23 -9.64704e-23        00000 
 2.40817e-23  3.06426e-23        00000 
-4.82701e-33  1.38632e-32        00000 
 1.44215e-32 -4.20854e-32        00000 
-8.11099e-32  2.41667e-31        00000 
 4.66769e-31 -1.42485e-30        00000 
-2.66827e-30  8.40067e-30        00000 
 1.50365e-29 -4.94434e-29        00000 
-8.18864e-29  2.89858e-28        00000 
 4.01025e-28 -1.68315e-27        00000 
-1.35890e-27  1.00696e-26        00000 
 5.77151e-27 -5.63576e-26        00000 
-3.39501e-26  3.82298e-25        00000 
 4.83566e-25 -2.27438e-24        00000 
 1.48015e-24  9.62466e-24        00000 
 9.13391e-24 -6.20483e-23        00000 
-1.23385e-23  3.58470e-22        00000 
-1.64975e-22 -2.24702e-21        00000 
-9.07873e-22  1.52995e-20        00000 
-3.12555e-20 -4.66790e-20        00000 
 1.82755e-19  2.42442e-19        00000 
-8.65626e-19 -6.11539e-19        00000 
 7.72045e-19  1.37640e-18        00000 
-2.70064e-19 -1.48912e-18        00000 
 1.90993e-19  9.78859e-19        00000 
-2.72458e-20 -3.09303e-19        00000 
 1.79450e-20  6.44287e-20        00000 
-6.09659e-21 -1.25425e-20        00000 
 1.28059e-21  2.27847e-21        00000 
-2.43465e-22 -3.98092e-22        00000 
 4.57018e-23  7.01828e-23        00000 
-1.57608e-23 -2.31635e-23        00000 
 3.13631e-33 -1.11723e-32        00000 
-9.03989e-33  3.35582e-32        00000 
 4.83995e-32 -1.90169e-31        00000 
-2.61953e-31  1.10532e-30        00000 
 1.37808e-30 -6.41413e-30        00000 
-6.88973e-30  3.71107e-29        00000 
 3.12937e-29 -2.14123e-28        00000 
-1.20631e-28  1.23933e-27        00000 
 4.89046e-28 -7.11156e-27        00000 
-2.39912e-27  4.18975e-26        00000 
 1.40555e-26 -2.34654e-25        00000 
 4.48358e-26  1.20494e-24        00000 
-9.09331e-26 -6.74953e-24        00000 
 2.13442e-24  3.79548e-23        00000 
-2.71597e-23 -2.12007e-22        00000 
 1.91793e-22  1.12996e-21        00000 
-2.25507e-21 -4.42667e-21        00000 
 1.35149e-20  1.73531e-20        00000 
-5.53246e-20 -5.25258e-20        00000 
 1.09854e-19  1.22715e-19        00000 
-1.10385e-19 -2.02058e-19        00000 
 6.54026e-20  2.20686e-19        00000 
-3.07613e-20 -1.58781e-19        00000 
 1.22809e-20  7.43846e-20        00000 
-2.92817e-21 -2.13562e-20        00000 
 1.43114e-21  5.20453e-21        00000 
-4.32628e-22 -1.11050e-21        00000 
 1.04381e-22  2.20119e-22        00000 
-2.25725e-23 -4.20839e-23        00000 
 8.52687e-24  1.47268e-23        00000 
-1.76474e-33  8.41442e-33        00000 
 4.81534e-33 -2.49326e-32        00000 
-2.38699e-32  1.38966e-31        00000 
 1.17234e-31 -7.93845e-31        00000 
-5.40486e-31  4.52179e-30        00000 
 2.24478e-30 -2.56566e-29        00000 
-7.91119e-30  1.45044e-28        00000 
 2.32809e-29 -8.14494e-28        00000 
-3.96746e-29  4.55000e-27        00000 
-3.44469e-28 -2.47558e-26        00000 
 8.11656e-27  1.30453e-25        00000 
-6.22315e-26 -6.95646e-25        00000 
 4.89996e-25  3.69255e-24        00000 
-3.80256e-24 -1.90147e-23        00000 
 2.62936e-23  9.13068e-23        00000 
-1.85062e-22 -3.72733e-22        00000 
 9.99590e-22  1.37283e-21        00000 
-3.94029e-21 -4.30493e-21        00000 
 1.00195e-20  1.09004e-20        00000 
-1.59809e-20 -2.13792e-20        00000 
 1.64509e-20  3.12787e-20        00000 
-1.15989e-20 -3.34301e-20        00000 
 6.16804e-21  2.58760e-20        00000 
-2.71988e-21 -1.44009e-20        00000 
 1.44917e-21  5.92327e-21        00000 
-3.55106e-22 -1.71149e-21        00000 
 1.20163e-22  4.30137e-22        00000 
-3.37861e-23 -9.76703e-23        00000 
 9.03157e-24  2.07061e-23        00000 
-3.73696e-24 -7.95530e-24        00000 
 8.28837e-34 -5.92764e-33        00000 
-2.07063e-33  1.72787e-32        00000 
 8.97451e-33 -9.44075e-32        00000 
-3.64474e-32  5.28183e-31        00000 
 1.21596e-31 -2.94042e-30        00000 
-2.22108e-31  1.62560e-29        00000 
-1.06667e-30 -8.90417e-29        00000 
 1.77351e-29  4.81921e-28        00000 
-1.68370e-28 -2.55851e-27        00000 
 1.39686e-27  1.33036e-26        00000 
-9.87212e-27 -6.84302e-26        00000 
 6.66449e-26  3.45570e-25        00000 
-4.36545e-25 -1.67845e-24        00000 
 2.68945e-24  7.60945e-24        00000 
-1.55696e-23 -3.08499e-23        00000 
 7.64155e-23  1.11854e-22        00000 
-2.95760e-22 -3.55096e-22        00000 
 8.41746e-22  9.49862e-22        00000 
-1.70128e-21 -2.07780e-21        00000 
 2.44044e-21  3.61878e-21        00000 
-2.52667e-21 -4.92816e-21        00000 
 1.94449e-21  5.19300e-21        00000 
-1.16361e-21 -4.20958e-21        00000 
 5.89875e-22  2.62188e-21        00000 
-3.27586e-22 -1.26600e-21        00000 
 1.10471e-22  4.67486e-22        00000 
-3.27024e-23 -1.38259e-22        00000 
 1.01312e-23  3.58564e-23        00000 
-2.99530e-24 -8.75270e-24        00000 
 1.43926e-24  3.62548e-24        00000 
-2.90609e-34  3.90809e-33        00000 
 5.91769e-34 -1.11745e-32        00000 
-1.63138e-33  5.96292e-32        00000 
 6.06136e-34 -3.25342e-31        00000 
 4.22820e-32  1.76073e-30        00000 
-4.71436e-31 -9.42239e-30        00000 
 3.84689e-30  4.97195e-29        00000 
-2.80235e-29 -2.57714e-28        00000 
 1.91963e-28  1.30950e-27        00000 
-1.23394e-27 -6.52507e-27        00000 
 7.60535e-27  3.16494e-26        00000 
-4.50822e-26 -1.47168e-25        00000 
 2.52877e-25  6.41915e-25        00000 
-1.31544e-24 -2.55999e-24        00000 
 6.01990e-24  9.21714e-24        00000 
-2.29319e-23 -2.95164e-23        00000 
 6.90827e-23  8.21603e-23        00000 
-1.60973e-22 -1.93324e-22        00000 
 2.84126e-22  3.78414e-22        00000 
-3.82163e-22 -6.05999e-22        00000 
 3.95884e-22  7.85932e-22        00000 
-3.21316e-22 -8.20385e-22        00000 
 2.10127e-22  6.86911e-22        00000 
-1.15995e-22 -4.61298e-22        00000 
 3.50115e-23  2.50985e-22        00000 
-2.45622e-23 -1.07890e-22        00000 
 8.92280e-24  3.79535e-23        00000 
-2.83670e-24 -1.13350e-23        00000 
 9.14256e-25  3.14905e-24        00000 
-4.76243e-25 -1.44091e-24        00000 
 3.48434e-35 -2.41222e-33        00000 
 4.93134e-35  6.74560e-33        00000 
-1.15527e-33 -3.50168e-32        00000 
 1.08245e-32  1.85529e-31        00000 
-8.23884e-32 -9.71598e-31        00000 
 5.68384e-31  5.01120e-30        00000 
-3.70184e-30 -2.53784e-29        00000 
 2.31047e-29  1.25844e-28        00000 
-1.38222e-28 -6.09077e-28        00000 
 7.95660e-28  2.86023e-27        00000 
-4.39185e-27 -1.28587e-26        00000 
 2.29522e-26  5.44859e-26        00000 
-1.11335e-25 -2.13732e-25        00000 
 4.84696e-25  7.65436e-25        00000 
-1.82094e-24 -2.46975e-24        00000 
 5.69196e-24  7.05915e-24        00000 
-1.45217e-23 -1.74642e-23        00000 
 2.92703e-23  3.73485e-23        00000 
-4.72192e-23 -6.71507e-23        00000 
 6.07883e-23  1.01054e-22        00000 
-6.29056e-23 -1.26490e-22        00000 
 5.29240e-23  1.31175e-22        00000 
-3.67932e-23 -1.12489e-22        00000 
 2.08294e-23  7.99450e-23        00000 
-8.18460e-24 -4.88322e-23        00000 
 4.21088e-24  2.29042e-23        00000 
-2.03761e-24 -9.16946e-24        00000 
 7.47897e-25  3.14268e-24        00000 
-2.60030e-25 -9.95178e-25        00000 
 1.44299e-25  5.01240e-25        00000 
 5.68130e-35  1.39449e-33        00000 
-2.39130e-34 -3.80275e-33        00000 
 1.71037e-33  1.91324e-32        00000 
-1.14007e-32 -9.80782e-32        00000 
 7.20487e-32  4.95246e-31        00000 
-4.37568e-31 -2.45350e-30        00000 
 2.56707e-30  1.18865e-29        00000 
-1.45449e-29 -5.60826e-29        00000 
 7.95700e-29  2.56028e-28        00000 
-4.13441e-28 -1.12120e-27        00000 
 2.04668e-27  4.64331e-27        00000 
-9.44235e-27 -1.79509e-26        00000 
 3.96316e-26  6.39785e-26        00000 
-1.47091e-25 -2.07751e-25        00000 
 4.69482e-25  6.06712e-25        00000 
-1.25973e-24 -1.57196e-24        00000 
 2.73415e-24  3.62724e-24        00000 
-5.18018e-24 -6.97462e-24        00000 
 7.83921e-24  1.17300e-23        00000 
-9.77476e-24 -1.68284e-23        00000 
 1.00997e-23  2.05046e-23        00000 
-8.71223e-24 -2.11649e-23        00000 
 6.30938e-24  1.84970e-23        00000 
-3.80764e-24 -1.37869e-23        00000 
 2.21332e-24  9.25475e-24        00000 
-8.87302e-25 -4.64925e-24        00000 
 4.13552e-25  2.04276e-24        00000 
-1.76459e-25 -7.84481e-25        00000 
 6.89225e-26  2.81610e-25        00000 
-4.06981e-26 -1.55441e-25        00000 
-7.01614e-35 -7.55544e-34        00000 
 2.32490e-34  2.00394e-33        00000 
-1.40708e-33 -9.73952e-33        00000 
 8.37971e-33  4.81555e-32        00000 
-4.83424e-32 -2.33711e-31        00000 
 2.70376e-31  1.10822e-30        00000 
-1.46357e-30 -5.11209e-30        00000 
 7.63872e-30  2.28054e-29        00000 
-3.81087e-29 -9.76156e-29        00000 
 1.80769e-28  3.96868e-28        00000 
-8.02793e-28 -1.51540e-27        00000 
 3.27764e-27  5.37720e-27        00000 
-1.20402e-26 -1.75498e-26        00000 
 3.89414e-26  5.21333e-26        00000 
-1.08740e-25 -1.39473e-25        00000 
 2.56916e-25  3.33346e-25        00000 
-5.16006e-25 -6.88638e-25        00000 
 8.99212e-25  1.27345e-24        00000 
-1.30215e-24 -2.02731e-24        00000 
 1.58733e-24  2.80205e-24        00000 
-1.63697e-24 -3.34534e-24        00000 
 1.43364e-24  3.44235e-24        00000 
-1.07310e-24 -3.05629e-24        00000 
 7.03173e-25  2.36053e-24        00000 
-4.52559e-25 -1.54121e-24        00000 
 2.03063e-25  9.00972e-25        00000 
-8.80553e-26 -4.30759e-25        00000 
 3.87699e-26  1.81565e-25        00000 
-1.68891e-26 -7.28471e-26        00000 
 1.07105e-26  4.36861e-26        00000 
 5.50820e-35  3.84058e-34        00000 
-1.66254e-34 -9.88451e-34        00000 
 9.22191e-34  4.62677e-33        00000 
-5.10274e-33 -2.19998e-32        00000 
 2.74450e-32  1.02292e-31        00000 
-1.43017e-31 -4.62501e-31        00000 
 7.18969e-31  2.02238e-30        00000 
-3.46422e-30 -8.49512e-30        00000 
 1.58653e-29  3.40018e-29        00000 
-6.85872e-29 -1.28324e-28        00000 
 2.73552e-28  4.53877e-28        00000 
-9.96545e-28 -1.48827e-27        00000 
 3.25833e-27  4.47703e-27        00000 
-9.37805e-27 -1.22726e-26        00000 
 2.34881e-26  3.04722e-26        00000 
-5.08670e-26 -6.79205e-26        00000 
 9.58307e-26  1.33291e-25        00000 