<?xml version="1.0" encoding="utf-8"?>
<VTKFile byte_order="LittleEndian" type="UnstructuredGrid" version="0.1">
   <UnstructuredGrid>
      <Piece NumberOfCells="3364" NumberOfPoints="1741">
         <Points>
            <DataArray Name="Points" NumberOfComponents="3" format="ascii" type="Float32">
0.0000 1.0000 0.0000
0.0000 1.0345 0.0000
0.0000 1.0690 0.0000
0.0000 1.1034 0.0000
0.0000 1.1379 0.0000
0.0000 1.1724 0.0000
0.0000 1.2069 0.0000
0.0000 1.2414 0.0000
0.0000 1.2759 0.0000
0.0000 1.3103 0.0000
0.0000 1.3448 0.0000
0.0000 1.3793 0.0000
0.0000 1.4138 0.0000
0.0000 1.4483 0.0000
0.0000 1.4828 0.0000
0.0000 1.5172 0.0000
0.0000 1.5517 0.0000
0.0000 1.5862 0.0000
0.0000 1.6207 0.0000
0.0000 1.6552 0.0000
0.0000 1.6897 0.0000
0.0000 1.7241 0.0000
0.0000 1.7586 0.0000
0.0000 1.7931 0.0000
0.0000 1.8276 0.0000
0.0000 1.8621 0.0000
0.0000 1.8966 0.0000
0.0000 1.9310 0.0000
0.0000 1.9655 0.0000
0.0000 2.0000 0.0000
0.0690 1.0000 0.0000
0.0690 1.0345 0.0000
0.0690 1.0690 0.0000
0.0690 1.1034 0.0000
0.0690 1.1379 0.0000
0.0690 1.1724 0.0000
0.0690 1.2069 0.0000
0.0690 1.2414 0.0000
0.0690 1.2759 0.0000
0.0690 1.3103 0.0000
0.0690 1.3448 0.0000
0.0690 1.3793 0.0000
0.0690 1.4138 0.0000
0.0690 1.4483 0.0000
0.0690 1.4828 0.0000
0.0690 1.5172 0.0000
0.0690 1.5517 0.0000
0.0690 1.5862 0.0000
0.0690 1.6207 0.0000
0.0690 1.6552 0.0000
0.0690 1.6897 0.0000
0.0690 1.7241 0.0000
0.0690 1.7586 0.0000
0.0690 1.7931 0.0000
0.0690 1.8276 0.0000
0.0690 1.8621 0.0000
0.0690 1.8966 0.0000
0.0690 1.9310 0.0000
0.0690 1.9655 0.0000
0.0690 2.0000 0.0000
0.1379 1.0000 0.0000
0.1379 1.0345 0.0000
0.1379 1.0690 0.0000
0.1379 1.1034 0.0000
0.1379 1.1379 0.0000
0.1379 1.1724 0.0000
0.1379 1.2069 0.0000
0.1379 1.2414 0.0000
0.1379 1.2759 0.0000
0.1379 1.3103 0.0000
0.1379 1.3448 0.0000
0.1379 1.3793 0.0000
0.1379 1.4138 0.0000
0.1379 1.4483 0.0000
0.1379 1.4828 0.0000
0.1379 1.5172 0.0000
0.1379 1.5517 0.0000
0.1379 1.5862 0.0000
0.1379 1.6207 0.0000
0.1379 1.6552 0.0000
0.1379 1.6897 0.0000
0.1379 1.7241 0.0000
0.1379 1.7586 0.0000
0.1379 1.7931 0.0000
0.1379 1.8276 0.0000
0.1379 1.8621 0.0000
0.1379 1.8966 0.0000
0.1379 1.9310 0.0000
0.1379 1.9655 0.0000
0.1379 2.0000 0.0000
0.2069 1.0000 0.0000
0.2069 1.0345 0.0000
0.2069 1.0690 0.0000
0.2069 1.1034 0.0000
0.2069 1.1379 0.0000
0.2069 1.1724 0.0000
0.2069 1.2069 0.0000
0.2069 1.2414 0.0000
0.2069 1.2759 0.0000
0.2069 1.3103 0.0000
0.2069 1.3448 0.0000
0.2069 1.3793 0.0000
0.2069 1.4138 0.0000
0.2069 1.4483 0.0000
0.2069 1.4828 0.0000
0.2069 1.5172 0.0000
0.2069 1.5517 0.0000
0.2069 1.5862 0.0000
0.2069 1.6207 0.0000
0.2069 1.6552 0.0000
0.2069 1.6897 0.0000
0.2069 1.7241 0.0000
0.2069 1.7586 0.0000
0.2069 1.7931 0.0000
0.2069 1.8276 0.0000
0.2069 1.8621 0.0000
0.2069 1.8966 0.0000
0.2069 1.9310 0.0000
0.2069 1.9655 0.0000
0.2069 2.0000 0.0000
0.2759 1.0000 0.0000
0.2759 1.0345 0.0000
0.2759 1.0690 0.0000
0.2759 1.1034 0.0000
0.2759 1.1379 0.0000
0.2759 1.1724 0.0000
0.2759 1.2069 0.0000
0.2759 1.2414 0.0000
0.2759 1.2759 0.0000
0.2759 1.3103 0.0000
0.2759 1.3448 0.0000
0.2759 1.3793 0.0000
0.2759 1.4138 0.0000
0.2759 1.4483 0.0000
0.2759 1.4828 0.0000
0.2759 1.5172 0.0000
0.2759 1.5517 0.0000
0.2759 1.5862 0.0000
0.2759 1.6207 0.0000
0.2759 1.6552 0.0000
0.2759 1.6897 0.0000
0.2759 1.7241 0.0000
0.2759 1.7586 0.0000
0.2759 1.7931 0.0000
0.2759 1.8276 0.0000
0.2759 1.8621 0.0000
0.2759 1.8966 0.0000
0.2759 1.9310 0.0000
0.2759 1.9655 0.0000
0.2759 2.0000 0.0000
0.3448 1.0000 0.0000
0.3448 1.0345 0.0000
0.3448 1.0690 0.0000
0.3448 1.1034 0.0000
0.3448 1.1379 0.0000
0.3448 1.1724 0.0000
0.3448 1.2069 0.0000
0.3448 1.2414 0.0000
0.3448 1.2759 0.0000
0.3448 1.3103 0.0000
0.3448 1.3448 0.0000
0.3448 1.3793 0.0000
0.3448 1.4138 0.0000
0.3448 1.4483 0.0000
0.3448 1.4828 0.0000
0.3448 1.5172 0.0000
0.3448 1.5517 0.0000
0.3448 1.5862 0.0000
0.3448 1.6207 0.0000
0.3448 1.6552 0.0000
0.3448 1.6897 0.0000
0.3448 1.7241 0.0000
0.3448 1.7586 0.0000
0.3448 1.7931 0.0000
0.3448 1.8276 0.0000
0.3448 1.8621 0.0000
0.3448 1.8966 0.0000
0.3448 1.9310 0.0000
0.3448 1.9655 0.0000
0.3448 2.0000 0.0000
0.4138 1.0000 0.0000
0.4138 1.0345 0.0000
0.4138 1.0690 0.0000
0.4138 1.1034 0.0000
0.4138 1.1379 0.0000
0.4138 1.1724 0.0000
0.4138 1.2069 0.0000
0.4138 1.2414 0.0000
0.4138 1.2759 0.0000
0.4138 1.3103 0.0000
0.4138 1.3448 0.0000
0.4138 1.3793 0.0000
0.4138 1.4138 0.0000
0.4138 1.4483 0.0000
0.4138 1.4828 0.0000
0.4138 1.5172 0.0000
0.4138 1.5517 0.0000
0.4138 1.5862 0.0000
0.4138 1.6207 0.0000
0.4138 1.6552 0.0000
0.4138 1.6897 0.0000
0.4138 1.7241 0.0000
0.4138 1.7586 0.0000
0.4138 1.7931 0.0000
0.4138 1.8276 0.0000
0.4138 1.8621 0.0000
0.4138 1.8966 0.0000
0.4138 1.9310 0.0000
0.4138 1.9655 0.0000
0.4138 2.0000 0.0000
0.4828 1.0000 0.0000
0.4828 1.0345 0.0000
0.4828 1.0690 0.0000
0.4828 1.1034 0.0000
0.4828 1.1379 0.0000
0.4828 1.1724 0.0000
0.4828 1.2069 0.0000
0.4828 1.2414 0.0000
0.4828 1.2759 0.0000
0.4828 1.3103 0.0000
0.4828 1.3448 0.0000
0.4828 1.3793 0.0000
0.4828 1.4138 0.0000
0.4828 1.4483 0.0000
0.4828 1.4828 0.0000
0.4828 1.5172 0.0000
0.4828 1.5517 0.0000
0.4828 1.5862 0.0000
0.4828 1.6207 0.0000
0.4828 1.6552 0.0000
0.4828 1.6897 0.0000
0.4828 1.7241 0.0000
0.4828 1.7586 0.0000
0.4828 1.7931 0.0000
0.4828 1.8276 0.0000
0.4828 1.8621 0.0000
0.4828 1.8966 0.0000
0.4828 1.9310 0.0000
0.4828 1.9655 0.0000
0.4828 2.0000 0.0000
0.5517 1.0000 0.0000
0.5517 1.0345 0.0000
0.5517 1.0690 0.0000
0.5517 1.1034 0.0000
0.5517 1.1379 0.0000
0.5517 1.1724 0.0000
0.5517 1.2069 0.0000
0.5517 1.2414 0.0000
0.5517 1.2759 0.0000
0.5517 1.3103 0.0000
0.5517 1.3448 0.0000
0.5517 1.3793 0.0000
0.5517 1.4138 0.0000
0.5517 1.4483 0.0000
0.5517 1.4828 0.0000
0.5517 1.5172 0.0000
0.5517 1.5517 0.0000
0.5517 1.5862 0.0000
0.5517 1.6207 0.0000
0.5517 1.6552 0.0000
0.5517 1.6897 0.0000
0.5517 1.7241 0.0000
0.5517 1.7586 0.0000
0.5517 1.7931 0.0000
0.5517 1.8276 0.0000
0.5517 1.8621 0.0000
0.5517 1.8966 0.0000
0.5517 1.9310 0.0000
0.5517 1.9655 0.0000
0.5517 2.0000 0.0000
0.6207 1.0000 0.0000
0.6207 1.0345 0.0000
0.6207 1.0690 0.0000
0.6207 1.1034 0.0000
0.6207 1.1379 0.0000
0.6207 1.1724 0.0000
0.6207 1.2069 0.0000
0.6207 1.2414 0.0000
0.6207 1.2759 0.0000
0.6207 1.3103 0.0000
0.6207 1.3448 0.0000
0.6207 1.3793 0.0000
0.6207 1.4138 0.0000
0.6207 1.4483 0.0000
0.6207 1.4828 0.0000
0.6207 1.5172 0.0000
0.6207 1.5517 0.0000
0.6207 1.5862 0.0000
0.6207 1.6207 0.0000
0.6207 1.6552 0.0000
0.6207 1.6897 0.0000
0.6207 1.7241 0.0000
0.6207 1.7586 0.0000
0.6207 1.7931 0.0000
0.6207 1.8276 0.0000
0.6207 1.8621 0.0000
0.6207 1.8966 0.0000
0.6207 1.9310 0.0000
0.6207 1.9655 0.0000
0.6207 2.0000 0.0000
0.6897 1.0000 0.0000
0.6897 1.0345 0.0000
0.6897 1.0690 0.0000
0.6897 1.1034 0.0000
0.6897 1.1379 0.0000
0.6897 1.1724 0.0000
0.6897 1.2069 0.0000
0.6897 1.2414 0.0000
0.6897 1.2759 0.0000
0.6897 1.3103 0.0000
0.6897 1.3448 0.0000
0.6897 1.3793 0.0000
0.6897 1.4138 0.0000
0.6897 1.4483 0.0000
0.6897 1.4828 0.0000
0.6897 1.5172 0.0000
0.6897 1.5517 0.0000
0.6897 1.5862 0.0000
0.6897 1.6207 0.0000
0.6897 1.6552 0.0000
0.6897 1.6897 0.0000
0.6897 1.7241 0.0000
0.6897 1.7586 0.0000
0.6897 1.7931 0.0000
0.6897 1.8276 0.0000
0.6897 1.8621 0.0000
0.6897 1.8966 0.0000
0.6897 1.9310 0.0000
0.6897 1.9655 0.0000
0.6897 2.0000 0.0000
0.7586 1.0000 0.0000
0.7586 1.0345 0.0000
0.7586 1.0690 0.0000
0.7586 1.1034 0.0000
0.7586 1.1379 0.0000
0.7586 1.1724 0.0000
0.7586 1.2069 0.0000
0.7586 1.2414 0.0000
0.7586 1.2759 0.0000
0.7586 1.3103 0.0000
0.7586 1.3448 0.0000
0.7586 1.3793 0.0000
0.7586 1.4138 0.0000
0.7586 1.4483 0.0000
0.7586 1.4828 0.0000
0.7586 1.5172 0.0000
0.7586 1.5517 0.0000
0.7586 1.5862 0.0000
0.7586 1.6207 0.0000
0.7586 1.6552 0.0000
0.7586 1.6897 0.0000
0.7586 1.7241 0.0000
0.7586 1.7586 0.0000
0.7586 1.7931 0.0000
0.7586 1.8276 0.0000
0.7586 1.8621 0.0000
0.7586 1.8966 0.0000
0.7586 1.9310 0.0000
0.7586 1.9655 0.0000
0.7586 2.0000 0.0000
0.8276 1.0000 0.0000
0.8276 1.0345 0.0000
0.8276 1.0690 0.0000
0.8276 1.1034 0.0000
0.8276 1.1379 0.0000
0.8276 1.1724 0.0000
0.8276 1.2069 0.0000
0.8276 1.2414 0.0000
0.8276 1.2759 0.0000
0.8276 1.3103 0.0000
0.8276 1.3448 0.0000
0.8276 1.3793 0.0000
0.8276 1.4138 0.0000
0.8276 1.4483 0.0000
0.8276 1.4828 0.0000
0.8276 1.5172 0.0000
0.8276 1.5517 0.0000
0.8276 1.5862 0.0000
0.8276 1.6207 0.0000
0.8276 1.6552 0.0000
0.8276 1.6897 0.0000
0.8276 1.7241 0.0000
0.8276 1.7586 0.0000
0.8276 1.7931 0.0000
0.8276 1.8276 0.0000
0.8276 1.8621 0.0000
0.8276 1.8966 0.0000
0.8276 1.9310 0.0000
0.8276 1.9655 0.0000
0.8276 2.0000 0.0000
0.8966 1.0000 0.0000
0.8966 1.0345 0.0000
0.8966 1.0690 0.0000
0.8966 1.1034 0.0000
0.8966 1.1379 0.0000
0.8966 1.1724 0.0000
0.8966 1.2069 0.0000
0.8966 1.2414 0.0000
0.8966 1.2759 0.0000
0.8966 1.3103 0.0000
0.8966 1.3448 0.0000
0.8966 1.3793 0.0000
0.8966 1.4138 0.0000
0.8966 1.4483 0.0000
0.8966 1.4828 0.0000
0.8966 1.5172 0.0000
0.8966 1.5517 0.0000
0.8966 1.5862 0.0000
0.8966 1.6207 0.0000
0.8966 1.6552 0.0000
0.8966 1.6897 0.0000
0.8966 1.7241 0.0000
0.8966 1.7586 0.0000
0.8966 1.7931 0.0000
0.8966 1.8276 0.0000
0.8966 1.8621 0.0000
0.8966 1.8966 0.0000
0.8966 1.9310 0.0000
0.8966 1.9655 0.0000
0.8966 2.0000 0.0000
0.9655 1.0000 0.0000
0.9655 1.0345 0.0000
0.9655 1.0690 0.0000
0.9655 1.1034 0.0000
0.9655 1.1379 0.0000
0.9655 1.1724 0.0000
0.9655 1.2069 0.0000
0.9655 1.2414 0.0000
0.9655 1.2759 0.0000
0.9655 1.3103 0.0000
0.9655 1.3448 0.0000
0.9655 1.3793 0.0000
0.9655 1.4138 0.0000
0.9655 1.4483 0.0000
0.9655 1.4828 0.0000
0.9655 1.5172 0.0000
0.9655 1.5517 0.0000
0.9655 1.5862 0.0000
0.9655 1.6207 0.0000
0.9655 1.6552 0.0000
0.9655 1.6897 0.0000
0.9655 1.7241 0.0000
0.9655 1.7586 0.0000
0.9655 1.7931 0.0000
0.9655 1.8276 0.0000
0.9655 1.8621 0.0000
0.9655 1.8966 0.0000
0.9655 1.9310 0.0000
0.9655 1.9655 0.0000
0.9655 2.0000 0.0000
1.0345 1.0000 0.0000
1.0345 1.0345 0.0000
1.0345 1.0690 0.0000
1.0345 1.1034 0.0000
1.0345 1.1379 0.0000
1.0345 1.1724 0.0000
1.0345 1.2069 0.0000
1.0345 1.2414 0.0000
1.0345 1.2759 0.0000
1.0345 1.3103 0.0000
1.0345 1.3448 0.0000
[...]
         <PointData>
            <DataArray Name="fValues" NumberOfComponents="3" format="ascii" type="Float64">
 8.22533e-22  2.61409e-22        00000 
-9.47676e-22 -2.67168e-22        00000 
 1.20649e-21  2.73742e-22        00000 
-1.36157e-21 -2.66527e-22        00000 
 1.26479e-21  2.51494e-22        00000 
-9.95459e-22 -1.92579e-22        00000 
 5.88229e-22  1.19643e-22        00000 
-2.91295e-22 -4.41354e-23        00000 
 1.14751e-22  1.40938e-23        00000 
-3.62484e-23 -4.98645e-24        00000 
 9.30601e-24  1.93793e-24        00000 
-2.02162e-24 -6.54641e-25        00000 
 3.89188e-25  1.84295e-25        00000 
-6.87258e-26 -4.67548e-26        00000 
 1.14174e-26  1.09782e-26        00000 
-1.81564e-27 -2.42566e-27        00000 
 2.79598e-28  5.11009e-28        00000 
-4.20163e-29 -1.03713e-28        00000 
 6.19332e-30  2.04421e-29        00000 
-8.98626e-31 -3.93686e-30        00000 
 1.28665e-31  7.44270e-31        00000 
-1.82129e-32 -1.38618e-31        00000 
 2.55293e-33  2.55042e-32        00000 
-3.54972e-34 -4.64567e-33        00000 
 4.90712e-35  8.39204e-34        00000 
-6.76662e-36 -1.50543e-34        00000 
 9.35406e-37  2.68478e-35        00000 
-1.30649e-37 -4.76849e-36        00000 
 1.90137e-38  8.67756e-37        00000 
-5.46677e-39 -2.96373e-37        00000 
-2.14057e-21 -7.63400e-22        00000 
 2.66949e-21  7.99295e-22        00000 
-3.75889e-21 -8.43216e-22        00000 
 4.39438e-21  8.12965e-22        00000 
-4.04309e-21 -7.36992e-22        00000 
 2.86952e-21  7.74861e-22        00000 
-1.67562e-21 -2.89637e-22        00000 
 7.27699e-22  8.41566e-23        00000 
-2.44135e-22 -2.62087e-23        00000 
 6.30042e-23  1.16175e-23        00000 
-1.32765e-23 -4.33498e-24        00000 
 2.45692e-24  1.20244e-24        00000 
-4.17179e-25 -3.02903e-25        00000 
 6.70051e-26  7.04922e-26        00000 
-1.03675e-26 -1.54064e-26        00000 
 1.56196e-27  3.20951e-27        00000 
-2.30622e-28 -6.44666e-28        00000 
 3.35060e-29  1.25906e-28        00000 
-4.80260e-30 -2.40574e-29        00000 
 6.80389e-31  4.51777e-30        00000 
-9.54094e-32 -8.36670e-31        00000 
 1.32613e-32  1.53204e-31        00000 
-1.83020e-33 -2.77940e-32        00000 
 2.51442e-34  5.00354e-33        00000 
-3.45246e-35 -8.94949e-34        00000 
 4.76683e-36  1.59202e-34        00000 
-6.67754e-37 -2.81901e-35        00000 
 9.60857e-38  4.97627e-36        00000 
-1.47363e-38 -9.00590e-37        00000 
 4.51751e-39  3.06265e-37        00000 
 9.28839e-21  4.04921e-21        00000 
-1.35704e-20 -4.51122e-21        00000 
 2.25932e-20  5.02589e-21        00000 
-2.76421e-20 -4.74133e-21        00000 
 2.43669e-20  4.03576e-21        00000 
-1.74163e-20 -3.68517e-21        00000 
 8.39702e-21  1.02398e-21        00000 
-3.04928e-21 -1.82667e-22        00000 
 7.54915e-22  1.13376e-22        00000 
-1.38223e-22 -5.55646e-23        00000 
 2.13805e-23  1.36923e-23        00000 
-2.95267e-24 -3.27349e-24        00000 
 3.82099e-25  7.21598e-25        00000 
-4.75653e-26 -1.48764e-25        00000 
 5.76543e-27  2.92530e-26        00000 
-6.82998e-28 -5.56751e-27        00000 
 7.89065e-29  1.03569e-27        00000 
-8.82311e-30 -1.89539e-28        00000 
 9.41089e-31  3.42732e-29        00000 
-9.32242e-32 -6.14160e-30        00000 
 8.11701e-33  1.09289e-30        00000 
-5.34017e-34 -1.93409e-31        00000 
 8.42120e-36  3.40760e-32        00000 
 4.39770e-36 -5.98187e-33        00000 
-6.36303e-37  1.04691e-33        00000 
-6.13795e-38 -1.82754e-34        00000 
 6.00951e-38  3.18336e-35        00000 
-2.16336e-38 -5.53928e-36        00000 
 6.34011e-39  9.89412e-37        00000 
-2.95211e-39 -3.32983e-37        00000 
-3.36861e-20 -1.92823e-20        00000 
 6.44006e-20  2.68215e-20        00000 
-1.42482e-19 -3.20335e-20        00000 
 1.86240e-19  2.80327e-20        00000 
-1.48506e-19 -2.33290e-20        00000 
 9.35563e-20  1.83959e-20        00000 
-4.17340e-20 -2.45636e-22        00000 
 1.02124e-20  6.10144e-22        00000 
-1.54201e-21 -8.89901e-22        00000 
 1.87155e-22  1.59939e-22        00000 
-1.79178e-23 -3.81140e-23        00000 
 1.29790e-24  8.05215e-24        00000 
-2.84422e-26 -1.56896e-24        00000 
-1.47736e-26  2.91429e-25        00000 
 4.35240e-27 -5.25813e-26        00000 
-8.88013e-28  9.31523e-27        00000 
 1.58332e-28 -1.63094e-27        00000 
-2.62907e-29  2.83355e-28        00000 
 4.17148e-30 -4.89783e-29        00000 
-6.40003e-31  8.43732e-30        00000 
 9.54326e-32 -1.45020e-30        00000 
-1.38408e-32  2.48890e-31        00000 
 1.94628e-33 -4.26739e-32        00000 
-2.63191e-34  7.31216e-33        00000 
 3.36470e-35 -1.25243e-33        00000 
-3.91688e-36  2.14464e-34        00000 
 3.74233e-37 -3.67198e-35        00000 
-1.64399e-38  6.29156e-36        00000 
-5.32034e-39 -1.10765e-36        00000 
 4.07528e-39  3.68428e-37        00000 
 7.74592e-20  5.58645e-20        00000 
-2.42486e-19 -1.51884e-19        00000 
 8.29425e-19  2.70640e-19        00000 
-1.50048e-18 -7.47629e-20        00000 
 7.00114e-19  2.35480e-19        00000 
-6.04067e-19  1.86581e-21        00000 
 1.52118e-19 -2.74276e-20        00000 
-1.54528e-20 -1.96709e-20        00000 
 1.12256e-21  1.39602e-21        00000 
 1.81645e-23 -4.49113e-22        00000 
-1.84813e-23  8.98122e-23        00000 
 4.01806e-24 -1.62486e-23        00000 
-7.01697e-25  2.82403e-24        00000 
 1.12859e-25 -4.81593e-25        00000 
-1.74205e-26  8.13423e-26        00000 
 2.62252e-27 -1.36717e-26        00000 
-3.87689e-28  2.29252e-27        00000 
 5.64261e-29 -3.84089e-28        00000 
-8.08658e-30  6.43524e-29        00000 
 1.13911e-30 -1.07881e-29        00000 
-1.57114e-31  1.81014e-30        00000 
 2.10741e-32 -3.04051e-31        00000 
-2.71590e-33  5.11317e-32        00000 
 3.28583e-34 -8.60903e-33        00000 
-3.54149e-35  1.45123e-33        00000 
 2.87812e-36 -2.44918e-34        00000 
-5.46479e-39  4.13802e-35        00000 
-7.39588e-38 -7.00411e-36        00000 
 2.53531e-38  1.21880e-36        00000 
-1.17679e-38 -4.01496e-37        00000 
-1.19317e-19 -9.90803e-20        00000 
 3.67911e-19  2.96419e-19        00000 
-4.55115e-18 -2.40386e-18        00000 
 1.13209e-17  2.05835e-18        00000 
-4.16292e-18        00000        00000 
-9.80596e-19  1.02806e-18        00000 
 2.85997e-19 -1.27983e-19        00000 
-4.27343e-20  2.53940e-20        00000 
 3.49673e-21 -6.20410e-21        00000 
-5.40346e-22  9.96198e-22        00000 
 7.35853e-23 -1.59120e-22        00000 
-9.88252e-24  2.53617e-23        00000 
 1.33147e-24 -4.05821e-24        00000 
-1.80224e-25  6.52833e-25        00000 
 2.44530e-26 -1.05578e-25        00000 
-3.31386e-27  1.71581e-26        00000 
 4.46545e-28 -2.80072e-27        00000 
-5.94886e-29  4.58961e-28        00000 
 7.77353e-30 -7.54757e-29        00000 
-9.84490e-31  1.24513e-29        00000 
 1.18349e-31 -2.06000e-30        00000 
-1.29327e-32  3.41710e-31        00000 
 1.13741e-33 -5.68185e-32        00000 
-3.57287e-35  9.46845e-33        00000 
-1.74669e-35 -1.58106e-33        00000 
 6.50189e-36  2.64504e-34        00000 
-1.63784e-36 -4.43278e-35        00000 
 3.59510e-37  7.44634e-36        00000 
-7.59982e-38 -1.28620e-36        00000 
 2.86507e-38  4.21063e-37        00000 
 1.61997e-19  1.39663e-19        00000 
-4.52670e-19 -4.46874e-19        00000 
-1.49861e-18  1.63017e-18        00000 
-2.13623e-01 -1.47736e-01        00000 
-2.13623e-01  1.47736e-01        00000 
 8.28333e-18 -2.05205e-18        00000 
-6.74448e-19  3.52051e-19        00000 
 5.98784e-20 -3.37012e-20        00000 
-7.51379e-21  9.89315e-21        00000 
 7.31508e-22 -1.34732e-21        00000 
-8.00022e-23  1.95251e-22        00000 
 9.27443e-24 -2.94229e-23        00000 
-1.10674e-24  4.54317e-24        00000 
 1.33433e-25 -7.13322e-25        00000 
-1.59915e-26  1.13374e-25        00000 
 1.86888e-27 -1.81884e-26        00000 
-2.06573e-28  2.93952e-27        00000 
 2.02211e-29 -4.77921e-28        00000 
-1.39955e-30  7.80895e-29        00000 
-4.58213e-32 -1.28131e-29        00000 
 4.78873e-32  2.11001e-30        00000 
-1.38800e-32 -3.48564e-31        00000 
 3.19007e-33  5.77420e-32        00000 
-6.63609e-34 -9.58917e-33        00000 
 1.30673e-34  1.59604e-33        00000 
-2.48625e-35 -2.66188e-34        00000 
 4.62181e-36  4.44784e-35        00000 
-8.45787e-37 -7.45032e-36        00000 
 1.57414e-37  1.28317e-36        00000 
-5.45782e-38 -4.19012e-37        00000 
-1.86004e-19 -1.46394e-19        00000 
 6.89383e-19  5.19647e-19        00000 
-8.37693e-18 -4.69136e-18        00000 
-2.13623e-01  1.47736e-01        00000 
-2.13623e-01 -1.47736e-01        00000 
 2.36623e-18  1.75069e-18        00000 
-2.38513e-20 -1.69016e-19        00000 
-9.14106e-21  2.45781e-20        00000 
 5.31125e-22 -6.96665e-21        00000 
-5.45547e-23  1.03416e-21        00000 
 3.38675e-24 -1.57552e-22        00000 
 2.29878e-25  2.44703e-23        00000 
-1.42622e-25 -3.85954e-24        00000 
 3.75023e-26  6.15892e-25        00000 
-8.09108e-27 -9.91683e-26        00000 
 1.60080e-27  1.60808e-26        00000 
-3.02185e-28 -2.62245e-27        00000 
 5.54401e-29  4.29667e-28        00000 
-9.98396e-30 -7.06728e-29        00000 
 1.77521e-30  1.16631e-29        00000 
-3.12799e-31 -1.93027e-30        00000 
 5.47516e-32  3.20267e-31        00000 
-9.53587e-33 -5.32562e-32        00000 
 1.65446e-33  8.87339e-33        00000 
-2.86181e-34 -1.48111e-33        00000 
 4.93832e-35  2.47627e-34        00000 
-8.50504e-36 -4.14636e-35        00000 
 1.46361e-36  6.95769e-36        00000 
-2.58482e-37 -1.20018e-36        00000 
 8.61363e-38  3.92374e-37        00000 
 1.46411e-19  1.02922e-19        00000 
-4.64214e-19 -3.20759e-19        00000 
 1.53329e-18  1.46661e-18        00000 
 3.93236e-18  4.23263e-19        00000 
 2.72791e-18 -5.15258e-18        00000 
-2.74545e-18  1.68868e-18        00000 
 4.01625e-19 -8.47652e-20        00000 
-4.52240e-20  4.73987e-21        00000 
 7.05560e-21  1.12112e-21        00000 
-7.27464e-22 -3.64865e-22        00000 
 8.77769e-23  7.42666e-23        00000 
-1.15898e-23 -1.35369e-23        00000 
 1.62602e-24  2.36499e-24        00000 
-2.38120e-25 -4.05299e-25        00000 
 3.59737e-26  6.87946e-26        00000 
-5.56157e-27 -1.16188e-26        00000 
 8.74935e-28  1.95715e-27        00000 
-1.39496e-28 -3.29245e-28        00000 
 2.24739e-29  5.53570e-29        00000 
-3.65079e-30 -9.30642e-30        00000 
 5.97010e-31  1.56483e-30        00000 
-9.81586e-32 -2.63210e-31        00000 
 1.62112e-32  4.42928e-32        00000 
-2.68732e-33 -7.45742e-33        00000 
 4.46871e-34  1.25628e-33        00000 
-7.45072e-35 -2.11755e-34        00000 
 1.24511e-35  3.57148e-35        00000 
-2.08634e-36 -6.03193e-36        00000 
 3.59506e-37  1.04678e-36        00000 
-1.17447e-37 -3.43898e-37        00000 
-5.91210e-20 -4.48607e-20        00000 
 9.73802e-20  9.01525e-20        00000 
 1.53403e-20 -9.29274e-20        00000 
-1.15378e-19 -1.95221e-19        00000 
-1.86748e-19  4.96485e-19        00000 
 3.37620e-19 -3.56972e-19        00000 
-1.58635e-19  9.68206e-20        00000 
 3.13965e-20 -1.17314e-20        00000 
-5.01778e-21  1.23561e-21        00000 
 7.97212e-22 -6.94201e-23        00000 
-1.13645e-22 -7.38501e-24        00000 
 1.62426e-23  3.57392e-24        00000 
-2.36346e-24 -8.85874e-25        00000 
 3.50621e-25  1.84445e-25        00000 
-5.29389e-26 -3.55448e-26        00000 
 8.11615e-27  6.57008e-27        00000 
-1.26064e-27 -1.18436e-27        00000 
 1.97994e-28  2.10081e-28        00000 
-3.13912e-29 -3.68596e-29        00000 
 5.01720e-30  6.41787e-30        00000 
-8.07445e-31 -1.11131e-30        00000 
 1.30722e-31  1.91654e-31        00000 
-2.12726e-32 -3.29522e-32        00000 
 3.47728e-33  5.65267e-33        00000 
-5.70644e-34 -9.67975e-34        00000 
 9.39697e-35  1.65537e-34        00000 
-1.55218e-35 -2.82808e-35        00000 
 2.57265e-36  4.83165e-36        00000 
-4.38614e-37 -8.47556e-37        00000 
 1.42009e-37  2.80904e-37        00000 
 1.27653e-20  1.16544e-20        00000 
-9.54396e-21 -1.24096e-20        00000 
-8.98478e-22  1.17498e-21        00000 
-2.80040e-22  3.33646e-20        00000 
 3.04406e-20 -6.10137e-20        00000 
-4.14307e-20  5.38992e-20        00000 
 2.88536e-20 -2.50948e-20        00000 
-1.06823e-20  6.52949e-21        00000 
 2.45056e-21 -1.09037e-21        00000 
-4.64404e-22  1.52355e-22        00000 
 8.14113e-23 -1.73471e-23        00000 
-1.33289e-23  1.41388e-24        00000 
 2.12322e-24 -2.50549e-27        00000 
-3.35141e-25 -3.44399e-26        00000 
 5.28458e-26  1.08586e-26        00000 
-8.35456e-27 -2.55961e-27        00000 
 1.32632e-27  5.36983e-28        00000 
-2.11560e-28 -1.05880e-28        00000 
 3.39085e-29  2.01021e-29        00000 
-5.46012e-30 -3.72219e-30        00000 
 8.83066e-31  6.77258e-31        00000 
-1.43398e-31 -1.21669e-31        00000 
 2.33726e-32  2.16501e-32        00000 
-3.82254e-33 -3.82435e-33        00000 
 6.27115e-34  6.71687e-34        00000 
-1.03175e-34 -1.17436e-34        00000 
 1.70190e-35  2.04578e-35        00000 
-2.81601e-36 -3.55622e-36        00000 
 4.79125e-37  6.33976e-37        00000 
-1.54818e-37 -2.12890e-37        00000 
-1.81980e-21 -1.92909e-21        00000 
 1.30507e-21  1.39967e-21        00000 
-5.26194e-22  1.01255e-21        00000 
 1.51581e-21 -5.35148e-21        00000 
-4.54757e-21  8.81574e-21        00000 
 5.84697e-21 -8.05959e-21        00000 
-4.60504e-21  4.77564e-21        00000 
 2.32989e-21 -1.84029e-21        00000 
-7.84543e-22  4.80301e-22        00000 
 1.94128e-22 -9.37957e-23        00000 
-4.07006e-23  1.55322e-23        00000 
 7.77557e-24 -2.24640e-24        00000 
-1.39312e-24  2.82978e-25        00000 
 2.40261e-25 -2.90392e-26        00000 
-4.05314e-26  1.64166e-27        00000 
 6.75171e-27  2.60207e-28        00000 
-1.11680e-27 -1.29963e-28        00000 
 1.84055e-28  3.55045e-29        00000 
-3.02845e-29 -8.11559e-30        00000 
 4.98143e-30  1.70083e-30        00000 
-8.19765e-31 -3.38659e-31        00000 
 1.35032e-31  6.52081e-32        00000 
-2.22698e-32 -1.22643e-32        00000 
 3.67789e-33  2.26733e-33        00000 
-6.08299e-34 -4.13732e-34        00000 
 1.00758e-34  7.47339e-35        00000 
-1.67143e-35 -1.33915e-35        00000 
 2.77867e-36  2.38619e-36        00000 
-4.74705e-37 -4.35205e-37        00000 
 1.53869e-37  1.48842e-37        00000 
 2.63989e-22  1.06409e-22        00000 
-2.93844e-22 -3.75267e-23        00000 
 4.35615e-23 -4.72294e-22        00000 
-6.83670e-22  9.35695e-22        00000 
 7.81940e-22 -1.27333e-21        00000 
-8.71146e-22  1.23718e-21        00000 
 7.30266e-22 -8.31301e-22        00000 
-4.35520e-22  4.00302e-22        00000 
 1.87677e-22 -1.40154e-22        00000 
-6.05086e-23  3.70554e-23        00000 
 1.56235e-23 -7.91720e-24        00000 
-3.49912e-24  1.46557e-24        00000 
 7.14660e-25 -2.42950e-25        00000 
-1.36931e-25  3.65819e-26        00000 
 2.51285e-26 -4.97755e-27        00000 
-4.47937e-27  5.88179e-28        00000 
 7.82917e-28 -5.17332e-29        00000 
-1.35009e-28  2.74541e-31        00000 
 2.30664e-29  1.40627e-30        00000 
-3.91573e-30 -4.81441e-31        00000 
 6.61800e-31  1.21700e-31        00000 
-1.11515e-31 -2.71808e-32        00000 
 1.87526e-32  5.67152e-33        00000 
-3.14942e-33 -1.13356e-33        00000 
 5.28523e-34  2.19949e-34        00000 
-8.86595e-35 -4.17668e-35        00000 
 1.48712e-35  7.80298e-36        00000 
-2.49647e-36 -1.44075e-36        00000 
 4.30323e-37  2.71339e-37        00000 
-1.40490e-37 -9.51705e-38        00000 
-4.66499e-23 -7.45434e-24        00000 
 4.00012e-23 -1.64902e-23        00000 
-4.91180e-23  7.99477e-23        00000 
 9.33809e-23 -1.52351e-22        00000 
-1.30651e-22  1.97305e-22        00000 
 1.36881e-22 -1.91760e-22        00000 
-1.16705e-22  1.40375e-22        00000 
 7.68899e-23 -7.77811e-23        00000 
-3.88288e-23  3.30760e-23        00000 
 1.52519e-23 -1.09828e-23        00000 
-4.80639e-24  2.94214e-24        00000 
 1.27437e-24 -6.66184e-25        00000 
-2.98837e-25  1.33254e-25        00000 
 6.42502e-26 -2.42121e-26        00000 
-1.29735e-26  4.06185e-27        00000 
 2.50346e-27 -6.33077e-28        00000 
-4.67438e-28  9.11748e-29        00000 
 8.51999e-29 -1.18327e-29        00000 
-1.52550e-29  1.28060e-30        00000 
 2.69523e-30 -8.08828e-32        00000 
-4.71426e-31 -1.08667e-32        00000 
 8.18292e-32  6.16085e-33        00000 
-1.41208e-32 -1.78939e-33        00000 
 2.42578e-33  4.30180e-34        00000 
-4.15271e-34 -9.43163e-35        00000 
 7.08993e-35  1.95715e-35        00000 
-1.20797e-35 -3.91503e-36        00000 
 2.05643e-36  7.63730e-37        00000 
-3.59132e-37 -1.50825e-37        00000 
 1.18502e-37  5.48370e-38        00000 
 7.49821e-24 -1.50558e-24        00000 
-7.76414e-24  5.08911e-24        00000 
 1.02304e-23 -1.42227e-23        00000 
-1.56775e-23  2.45618e-23        00000 
 2.07007e-23 -3.09674e-23        00000 
-2.19215e-23  3.02986e-23        00000 
 1.89102e-23 -2.33787e-23        00000 
-1.32511e-23  1.42865e-23        00000 
 7.45569e-24 -6.95859e-24        00000 
-3.37866e-24  2.73113e-24        00000 
 1.25187e-24 -8.78746e-25        00000 
-3.89218e-25  2.38080e-25        00000 
 1.05071e-25 -5.61438e-26        00000 
-2.54804e-26  1.18825e-26        00000 
 5.70179e-27 -2.30805e-27        00000 
-1.20078e-27  4.17683e-28        00000 
 2.41522e-28 -7.10422e-29        00000 
-4.69093e-29  1.13873e-29        00000 
 8.86956e-30 -1.71211e-30        00000 
-1.64255e-30  2.37468e-31        00000 
 2.99283e-31 -2.90629e-32        00000 
-5.38371e-32  2.71748e-33        00000 
 9.58645e-33 -4.38877e-35        00000 
-1.69312e-33 -6.88083e-35        00000 
 2.97068e-34  2.53117e-35        00000 
-5.18443e-35 -6.69453e-36        00000 
 9.00865e-36  1.55320e-36        00000 
-1.56106e-36 -3.35903e-37        00000 
 2.77214e-37  7.18969e-38        00000 
-9.27319e-38 -2.76617e-38        00000 
-1.33551e-24  6.71765e-25        00000 
 1.46008e-24 -1.19224e-24        00000 
-1.91287e-24  2.50857e-24        00000 
 2.66363e-24 -3.98853e-24        00000 
-3.33834e-24  4.90906e-24        00000 
 3.51783e-24 -4.83950e-24        00000 
-3.08991e-24  3.87915e-24        00000 
 2.26131e-24 -2.54271e-24        00000 
-1.37358e-24  1.36877e-24        00000 
 6.91904e-25 -6.09068e-25        00000 
-2.90992e-25  2.26376e-25        00000 
 1.03659e-25 -7.13992e-26        00000 
-3.19477e-26  1.95269e-26        00000 
 8.73756e-27 -4.74551e-27        00000 
-2.17363e-27  1.04822e-27        00000 
 5.02070e-28 -2.14241e-28        00000 
-1.09428e-28  4.10514e-29        00000 
 2.27884e-29 -7.44045e-30        00000 
-4.57832e-30  1.28206e-30        00000 
 8.93986e-31 -2.10252e-31        00000 
-1.70636e-31  3.26923e-32        00000 
 3.19779e-32 -4.76429e-33        00000 
-5.90429e-33  6.32919e-34        00000 
 1.07696e-33 -7.11899e-35        00000 
-1.94483e-34  4.98423e-36        00000 
 3.48301e-35  4.97204e-37        00000 
-6.19485e-36 -3.32303e-37        00000 
 1.09639e-36  1.01537e-37        00000 
-1.98637e-37 -2.64212e-38        00000 
 6.75478e-38  1.13872e-38        00000 
 2.44940e-25 -1.75208e-25        00000 
-2.69690e-25  2.50333e-25        00000 
 3.44311e-25 -4.39771e-25        00000 
-4.52139e-25  6.52272e-25        00000 
 5.44577e-25 -7.85556e-25        00000 
-5.68739e-25  7.78925e-25        00000 
 5.06740e-25 -6.42974e-25        00000 
-3.83952e-25  4.44396e-25        00000 
 2.46993e-25 -2.58137e-25        00000 
-1.34821e-25  1.26571e-25        00000 
 6.26318e-26 -5.27359e-26        00000 
-2.49611e-26  1.88582e-26        00000 
 8.64648e-27 -5.86920e-27        00000 
-2.64871e-27  1.61775e-27        00000 
 7.31624e-28 -4.02382e-28        00000 
-1.85673e-28  9.18988e-29        00000 
 4.40007e-29 -1.95522e-29        00000 