<?xml version="1.0" encoding="utf-8"?>
<VTKFile byte_order="LittleEndian" type="UnstructuredGrid" version="0.1">
   <UnstructuredGrid>
      <Piece NumberOfCells="3364" NumberOfPoints="1741">
         <Points>
            <DataArray Name="Points" NumberOfComponents="3" format="ascii" type="Float32">
0.0000 1.0000 0.0000
0.0000 1.0345 0.0000
0.0000 1.0690 0.0000
0.0000 1.1034 0.0000
0.0000 1.1379 0.0000
0.0000 1.1724 0.0000
0.0000 1.2069 0.0000
0.0000 1.2414 0.0000
0.0000 1.2759 0.0000
0.0000 1.3103 0.0000
0.0000 1.3448 0.0000
0.0000 1.3793 0.0000
0.0000 1.4138 0.0000
0.0000 1.4483 0.0000
0.0000 1.4828 0.0000
0.0000 1.5172 0.0000
0.0000 1.5517 0.0000
0.0000 1.5862 0.0000
0.0000 1.6207 0.0000
0.0000 1.6552 0.0000
0.0000 1.6897 0.0000
0.0000 1.7241 0.0000
0.0000 1.7586 0.0000
0.0000 1.7931 0.0000
0.0000 1.8276 0.0000
0.0000 1.8621 0.0000
0.0000 1.8966 0.0000
0.0000 1.9310 0.0000
0.0000 1.9655 0.0000
0.0000 2.0000 0.0000
0.0690 1.0000 0.0000
0.0690 1.0345 0.0000
0.0690 1.0690 0.0000
0.0690 1.1034 0.0000
0.0690 1.1379 0.0000
0.0690 1.1724 0.0000
0.0690 1.2069 0.0000
0.0690 1.2414 0.0000
0.0690 1.2759 0.0000
0.0690 1.3103 0.0000
0.0690 1.3448 0.0000
0.0690 1.3793 0.0000
0.0690 1.4138 0.0000
0.0690 1.4483 0.0000
0.0690 1.4828 0.0000
0.0690 1.5172 0.0000
0.0690 1.5517 0.0000
0.0690 1.5862 0.0000
0.0690 1.6207 0.0000
0.0690 1.6552 0.0000
0.0690 1.6897 0.0000
0.0690 1.7241 0.0000
0.0690 1.7586 0.0000
0.0690 1.7931 0.0000
0.0690 1.8276 0.0000
0.0690 1.8621 0.0000
0.0690 1.8966 0.0000
0.0690 1.9310 0.0000
0.0690 1.9655 0.0000
0.0690 2.0000 0.0000
0.1379 1.0000 0.0000
0.1379 1.0345 0.0000
0.1379 1.0690 0.0000
0.1379 1.1034 0.0000
0.1379 1.1379 0.0000
0.1379 1.1724 0.0000
0.1379 1.2069 0.0000
0.1379 1.2414 0.0000
0.1379 1.2759 0.0000
0.1379 1.3103 0.0000
0.1379 1.3448 0.0000
0.1379 1.3793 0.0000
0.1379 1.4138 0.0000
0.1379 1.4483 0.0000
0.1379 1.4828 0.0000
0.1379 1.5172 0.0000
0.1379 1.5517 0.0000
0.1379 1.5862 0.0000
0.1379 1.6207 0.0000
0.1379 1.6552 0.0000
0.1379 1.6897 0.0000
0.1379 1.7241 0.0000
0.1379 1.7586 0.0000
0.1379 1.7931 0.0000
0.1379 1.8276 0.0000
0.1379 1.8621 0.0000
0.1379 1.8966 0.0000
0.1379 1.9310 0.0000
0.1379 1.9655 0.0000
0.1379 2.0000 0.0000
0.2069 1.0000 0.0000
0.2069 1.0345 0.0000
0.2069 1.0690 0.0000
0.2069 1.1034 0.0000
0.2069 1.1379 0.0000
0.2069 1.1724 0.0000
0.2069 1.2069 0.0000
0.2069 1.2414 0.0000
0.2069 1.2759 0.0000
0.2069 1.3103 0.0000
0.2069 1.3448 0.0000
0.2069 1.3793 0.0000
0.2069 1.4138 0.0000
0.2069 1.4483 0.0000
0.2069 1.4828 0.0000
0.2069 1.5172 0.0000
0.2069 1.5517 0.0000
0.2069 1.5862 0.0000
0.2069 1.6207 0.0000
0.2069 1.6552 0.0000
0.2069 1.6897 0.0000
0.2069 1.7241 0.0000
0.2069 1.7586 0.0000
0.2069 1.7931 0.0000
0.2069 1.8276 0.0000
0.2069 1.8621 0.0000
0.2069 1.8966 0.0000
0.2069 1.9310 0.0000
0.2069 1.9655 0.0000
0.2069 2.0000 0.0000
0.2759 1.0000 0.0000
0.2759 1.0345 0.0000
0.2759 1.0690 0.0000
0.2759 1.1034 0.0000
0.2759 1.1379 0.0000
0.2759 1.1724 0.0000
0.2759 1.2069 0.0000
0.2759 1.2414 0.0000
0.2759 1.2759 0.0000
0.2759 1.3103 0.0000
0.2759 1.3448 0.0000
0.2759 1.3793 0.0000
0.2759 1.4138 0.0000
0.2759 1.4483 0.0000
0.2759 1.4828 0.0000
0.2759 1.5172 0.0000
0.2759 1.5517 0.0000
0.2759 1.5862 0.0000
0.2759 1.6207 0.0000
0.2759 1.6552 0.0000
0.2759 1.6897 0.0000
0.2759 1.7241 0.0000
0.2759 1.7586 0.0000
0.2759 1.7931 0.0000
0.2759 1.8276 0.0000
0.2759 1.8621 0.0000
0.2759 1.8966 0.0000
0.2759 1.9310 0.0000
0.2759 1.9655 0.0000
0.2759 2.0000 0.0000
0.3448 1.0000 0.0000
0.3448 1.0345 0.0000
0.3448 1.0690 0.0000
0.3448 1.1034 0.0000
0.3448 1.1379 0.0000
0.3448 1.1724 0.0000
0.3448 1.2069 0.0000
0.3448 1.2414 0.0000
0.3448 1.2759 0.0000
0.3448 1.3103 0.0000
0.3448 1.3448 0.0000
0.3448 1.3793 0.0000
0.3448 1.4138 0.0000
0.3448 1.4483 0.0000
0.3448 1.4828 0.0000
0.3448 1.5172 0.0000
0.3448 1.5517 0.0000
0.3448 1.5862 0.0000
0.3448 1.6207 0.0000
0.3448 1.6552 0.0000
0.3448 1.6897 0.0000
0.3448 1.7241 0.0000
0.3448 1.7586 0.0000
0.3448 1.7931 0.0000
0.3448 1.8276 0.0000
0.3448 1.8621 0.0000
0.3448 1.8966 0.0000
0.3448 1.9310 0.0000
0.3448 1.9655 0.0000
0.3448 2.0000 0.0000
0.4138 1.0000 0.0000
0.4138 1.0345 0.0000
0.4138 1.0690 0.0000
0.4138 1.1034 0.0000
0.4138 1.1379 0.0000
0.4138 1.1724 0.0000
0.4138 1.2069 0.0000
0.4138 1.2414 0.0000
0.4138 1.2759 0.0000
0.4138 1.3103 0.0000
0.4138 1.3448 0.0000
0.4138 1.3793 0.0000
0.4138 1.4138 0.0000
0.4138 1.4483 0.0000
0.4138 1.4828 0.0000
0.4138 1.5172 0.0000
0.4138 1.5517 0.0000
0.4138 1.5862 0.0000
0.4138 1.6207 0.0000
0.4138 1.6552 0.0000
0.4138 1.6897 0.0000
0.4138 1.7241 0.0000
0.4138 1.7586 0.0000
0.4138 1.7931 0.0000
0.4138 1.8276 0.0000
0.4138 1.8621 0.0000
0.4138 1.8966 0.0000
0.4138 1.9310 0.0000
0.4138 1.9655 0.0000
0.4138 2.0000 0.0000
0.4828 1.0000 0.0000
0.4828 1.0345 0.0000
0.4828 1.0690 0.0000
0.4828 1.1034 0.0000
0.4828 1.1379 0.0000
0.4828 1.1724 0.0000
0.4828 1.2069 0.0000
0.4828 1.2414 0.0000
0.4828 1.2759 0.0000
0.4828 1.3103 0.0000
0.4828 1.3448 0.0000
0.4828 1.3793 0.0000
0.4828 1.4138 0.0000
0.4828 1.4483 0.0000
0.4828 1.4828 0.0000
0.4828 1.5172 0.0000
0.4828 1.5517 0.0000
0.4828 1.5862 0.0000
0.4828 1.6207 0.0000
0.4828 1.6552 0.0000
0.4828 1.6897 0.0000
0.4828 1.7241 0.0000
0.4828 1.7586 0.0000
0.4828 1.7931 0.0000
0.4828 1.8276 0.0000
0.4828 1.8621 0.0000
0.4828 1.8966 0.0000
0.4828 1.9310 0.0000
0.4828 1.9655 0.0000
0.4828 2.0000 0.0000
0.5517 1.0000 0.0000
0.5517 1.0345 0.0000
0.5517 1.0690 0.0000
0.5517 1.1034 0.0000
0.5517 1.1379 0.0000
0.5517 1.1724 0.0000
0.5517 1.2069 0.0000
0.5517 1.2414 0.0000
0.5517 1.2759 0.0000
0.5517 1.3103 0.0000
0.5517 1.3448 0.0000
0.5517 1.3793 0.0000
0.5517 1.4138 0.0000
0.5517 1.4483 0.0000
0.5517 1.4828 0.0000
0.5517 1.5172 0.0000
0.5517 1.5517 0.0000
0.5517 1.5862 0.0000
0.5517 1.6207 0.0000
0.5517 1.6552 0.0000
0.5517 1.6897 0.0000
0.5517 1.7241 0.0000
0.5517 1.7586 0.0000
0.5517 1.7931 0.0000
0.5517 1.8276 0.0000
0.5517 1.8621 0.0000
0.5517 1.8966 0.0000
0.5517 1.9310 0.0000
0.5517 1.9655 0.0000
0.5517 2.0000 0.0000
0.6207 1.0000 0.0000
0.6207 1.0345 0.0000
0.6207 1.0690 0.0000
0.6207 1.1034 0.0000
0.6207 1.1379 0.0000
0.6207 1.1724 0.0000
0.6207 1.2069 0.0000
0.6207 1.2414 0.0000
0.6207 1.2759 0.0000
0.6207 1.3103 0.0000
0.6207 1.3448 0.0000
0.6207 1.3793 0.0000
0.6207 1.4138 0.0000
0.6207 1.4483 0.0000
0.6207 1.4828 0.0000
0.6207 1.5172 0.0000
0.6207 1.5517 0.0000
0.6207 1.5862 0.0000
0.6207 1.6207 0.0000
0.6207 1.6552 0.0000
0.6207 1.6897 0.0000
0.6207 1.7241 0.0000
0.6207 1.7586 0.0000
0.6207 1.7931 0.0000
0.6207 1.8276 0.0000
0.6207 1.8621 0.0000
0.6207 1.8966 0.0000
0.6207 1.9310 0.0000
0.6207 1.9655 0.0000
0.6207 2.0000 0.0000
0.6897 1.0000 0.0000
0.6897 1.0345 0.0000
0.6897 1.0690 0.0000
0.6897 1.1034 0.0000
0.6897 1.1379 0.0000
0.6897 1.1724 0.0000
0.6897 1.2069 0.0000
0.6897 1.2414 0.0000
0.6897 1.2759 0.0000
0.6897 1.3103 0.0000
0.6897 1.3448 0.0000
0.6897 1.3793 0.0000
0.6897 1.4138 0.0000
0.6897 1.4483 0.0000
0.6897 1.4828 0.0000
0.6897 1.5172 0.0000
0.6897 1.5517 0.0000
0.6897 1.5862 0.0000
0.6897 1.6207 0.0000
0.6897 1.6552 0.0000
0.6897 1.6897 0.0000
0.6897 1.7241 0.0000
0.6897 1.7586 0.0000
0.6897 1.7931 0.0000
0.6897 1.8276 0.0000
0.6897 1.8621 0.0000
0.6897 1.8966 0.0000
0.6897 1.9310 0.0000
0.6897 1.9655 0.0000
0.6897 2.0000 0.0000
0.7586 1.0000 0.0000
0.7586 1.0345 0.0000
0.7586 1.0690 0.0000
0.7586 1.1034 0.0000
0.7586 1.1379 0.0000
0.7586 1.1724 0.0000
0.7586 1.2069 0.0000
0.7586 1.2414 0.0000
0.7586 1.2759 0.0000
0.7586 1.3103 0.0000
0.7586 1.3448 0.0000
0.7586 1.3793 0.0000
0.7586 1.4138 0.0000
0.7586 1.4483 0.0000
0.7586 1.4828 0.0000
0.7586 1.5172 0.0000
0.7586 1.5517 0.0000
0.7586 1.5862 0.0000
0.7586 1.6207 0.0000
0.7586 1.6552 0.0000
0.7586 1.6897 0.0000
0.7586 1.7241 0.0000
0.7586 1.7586 0.0000
0.7586 1.7931 0.0000
0.7586 1.8276 0.0000
0.7586 1.8621 0.0000
0.7586 1.8966 0.0000
0.7586 1.9310 0.0000
0.7586 1.9655 0.0000
0.7586 2.0000 0.0000
0.8276 1.0000 0.0000
0.8276 1.0345 0.0000
0.8276 1.0690 0.0000
0.8276 1.1034 0.0000
0.8276 1.1379 0.0000
0.8276 1.1724 0.0000
0.8276 1.2069 0.0000
0.8276 1.2414 0.0000
0.8276 1.2759 0.0000
0.8276 1.3103 0.0000
0.8276 1.3448 0.0000
0.8276 1.3793 0.0000
0.8276 1.4138 0.0000
0.8276 1.4483 0.0000
0.8276 1.4828 0.0000
0.8276 1.5172 0.0000
0.8276 1.5517 0.0000
0.8276 1.5862 0.0000
0.8276 1.6207 0.0000
0.8276 1.6552 0.0000
0.8276 1.6897 0.0000
0.8276 1.7241 0.0000
0.8276 1.7586 0.0000
0.8276 1.7931 0.0000
0.8276 1.8276 0.0000
0.8276 1.8621 0.0000
0.8276 1.8966 0.0000
0.8276 1.9310 0.0000
0.8276 1.9655 0.0000
0.8276 2.0000 0.0000
0.8966 1.0000 0.0000
0.8966 1.0345 0.0000
0.8966 1.0690 0.0000
0.8966 1.1034 0.0000
0.8966 1.1379 0.0000
0.8966 1.1724 0.0000
0.8966 1.2069 0.0000
0.8966 1.2414 0.0000
0.8966 1.2759 0.0000
0.8966 1.3103 0.0000
0.8966 1.3448 0.0000
0.8966 1.3793 0.0000
0.8966 1.4138 0.0000
0.8966 1.4483 0.0000
0.8966 1.4828 0.0000
0.8966 1.5172 0.0000
0.8966 1.5517 0.0000
0.8966 1.5862 0.0000
0.8966 1.6207 0.0000
0.8966 1.6552 0.0000
0.8966 1.6897 0.0000
0.8966 1.7241 0.0000
0.8966 1.7586 0.0000
0.8966 1.7931 0.0000
0.8966 1.8276 0.0000
0.8966 1.8621 0.0000
0.8966 1.8966 0.0000
0.8966 1.9310 0.0000
0.8966 1.9655 0.0000
0.8966 2.0000 0.0000
0.9655 1.0000 0.0000
0.9655 1.0345 0.0000
0.9655 1.0690 0.0000
0.9655 1.1034 0.0000
0.9655 1.1379 0.0000
0.9655 1.1724 0.0000
0.9655 1.2069 0.0000
0.9655 1.2414 0.0000
0.9655 1.2759 0.0000
0.9655 1.3103 0.0000
0.9655 1.3448 0.0000
0.9655 1.3793 0.0000
0.9655 1.4138 0.0000
0.9655 1.4483 0.0000
0.9655 1.4828 0.0000
0.9655 1.5172 0.0000
0.9655 1.5517 0.0000
0.9655 1.5862 0.0000
0.9655 1.6207 0.0000
0.9655 1.6552 0.0000
0.9655 1.6897 0.0000
0.9655 1.7241 0.0000
0.9655 1.7586 0.0000
0.9655 1.7931 0.0000
0.9655 1.8276 0.0000
0.9655 1.8621 0.0000
0.9655 1.8966 0.0000
0.9655 1.9310 0.0000
0.9655 1.9655 0.0000
0.9655 2.0000 0.0000
1.0345 1.0000 0.0000
1.0345 1.0345 0.0000
1.0345 1.0690 0.0000
1.0345 1.1034 0.0000
1.0345 1.1379 0.0000
1.0345 1.1724 0.0000
1.0345 1.2069 0.0000
1.0345 1.2414 0.0000
1.0345 1.2759 0.0000
1.0345 1.3103 0.0000
1.0345 1.3448 0.0000
[...]
         <PointData>
            <DataArray Name="fValues" NumberOfComponents="3" format="ascii" type="Float64">
 1.09450e-22  1.20720e-22        00000 
-9.48264e-23 -1.23619e-22        00000 
 5.57715e-23  1.26159e-22        00000 
-7.27472e-24 -1.16907e-22        00000 
-2.99297e-23  9.19540e-23        00000 
 4.31082e-23 -5.88271e-23        00000 
-3.67973e-23  3.21146e-23        00000 
 2.26646e-23 -1.44528e-23        00000 
-1.07484e-23  5.41962e-24        00000 
 4.11824e-24 -1.72614e-24        00000 
-1.32619e-24  4.77524e-25        00000 
 3.72174e-25 -1.17891e-25        00000 
-9.40801e-26  2.66593e-26        00000 
 2.19944e-26 -5.64021e-27        00000 
-4.84900e-27  1.13437e-27        00000 
 1.02239e-27 -2.19441e-28        00000 
-2.08267e-28  4.11842e-29        00000 
 4.12933e-29 -7.54662e-30        00000 
-8.01281e-30  1.35659e-30        00000 
 1.52804e-30 -2.40093e-31        00000 
-2.87284e-31  4.19508e-32        00000 
 5.33800e-32 -7.25192e-33        00000 
-9.82160e-33  1.24233e-33        00000 
 1.79222e-33 -2.11180e-34        00000 
-3.24748e-34  3.56575e-35        00000 
 5.84907e-35 -5.98523e-36        00000 
-1.04806e-35  9.99373e-37        00000 
 1.87125e-36 -1.66189e-37        00000 
-3.42534e-37  2.82183e-38        00000 
 1.17626e-37 -9.05422e-39        00000 
-3.59527e-22 -3.52073e-22        00000 
 3.11797e-22  3.69349e-22        00000 
-1.79227e-22 -3.93011e-22        00000 
 8.44847e-24  3.70336e-22        00000 
 1.20120e-22 -2.84909e-22        00000 
-1.51391e-22  1.71467e-22        00000 
 1.17391e-22 -8.53809e-23        00000 
-6.32158e-23  3.40958e-23        00000 
 2.59355e-23 -1.12330e-23        00000 
-8.60815e-24  3.13389e-24        00000 
 2.42901e-24 -7.68069e-25        00000 
-6.10037e-25  1.71273e-25        00000 
 1.41084e-25 -3.56777e-26        00000 
-3.07478e-26  7.07077e-27        00000 
 6.41362e-27 -1.35008e-27        00000 
-1.29408e-27  2.50541e-28        00000 
 2.54470e-28 -4.54712e-29        00000 
-4.90314e-29  8.10782e-30        00000 
 9.29412e-30 -1.42509e-30        00000 
-1.73840e-30  2.47547e-31        00000 
 3.21596e-31 -4.25785e-32        00000 
-5.89489e-32  7.26263e-33        00000 
 1.07219e-32 -1.22992e-33        00000 
-1.93735e-33  2.06987e-34        00000 
 3.48087e-34 -3.46419e-35        00000 
-6.22371e-35  5.76901e-36        00000 
 1.10811e-35 -9.56400e-37        00000 
-1.96745e-36  1.57997e-37        00000 
 3.58305e-37 -2.66556e-38        00000 
-1.22541e-37  8.50563e-39        00000 
 2.24032e-21  1.88517e-21        00000 
-1.96518e-21 -2.06081e-21        00000 
 1.12724e-21  2.35068e-21        00000 
 5.54472e-23 -2.26991e-21        00000 
-9.38397e-22  1.67113e-21        00000 
 1.04953e-21 -9.22037e-22        00000 
-6.82992e-22  3.93670e-22        00000 
 3.02854e-22 -1.32654e-22        00000 
-1.01814e-22  3.60366e-23        00000 
 2.77843e-23 -8.31916e-24        00000 
-6.60566e-24  1.72255e-24        00000 
 1.43765e-24 -3.32243e-25        00000 
-2.95252e-25  6.11467e-26        00000 
 5.82906e-26 -1.09020e-26        00000 
-1.11930e-26  1.90136e-27        00000 
 2.10632e-27 -3.26427e-28        00000 
-3.90428e-28  5.53968e-29        00000 
 7.15339e-29 -9.31922e-30        00000 
-1.29872e-29  1.55704e-30        00000 
 2.34061e-30 -2.58709e-31        00000 
-4.19312e-31  4.27869e-32        00000 
 7.47444e-32 -7.04802e-33        00000 
-1.32677e-32  1.15681e-33        00000 
 2.34670e-33 -1.89242e-34        00000 
-4.13790e-34  3.08607e-35        00000 
 7.27678e-35 -5.01719e-36        00000 
-1.27671e-35  8.13187e-37        00000 
 2.23728e-36 -1.31473e-37        00000 
-4.02502e-37  2.17029e-38        00000 
 1.36310e-37 -6.79231e-39        00000 
-1.41030e-20 -1.00503e-20        00000 
 1.26598e-20  1.14991e-20        00000 
-7.70501e-21 -1.46987e-20        00000 
-1.00522e-21  1.47356e-20        00000 
 7.70079e-21 -9.92535e-21        00000 
-7.27516e-21  4.70989e-21        00000 
 3.69765e-21 -1.68746e-21        00000 
-1.29917e-21  4.52226e-22        00000 
 3.44559e-22 -9.81728e-23        00000 
-7.75364e-23  1.88124e-23        00000 
 1.59070e-23 -3.35177e-24        00000 
-3.08817e-24  5.71322e-25        00000 
 5.78981e-25 -9.46931e-26        00000 
-1.06073e-25  1.54102e-26        00000 
 1.91282e-26 -2.47732e-27        00000 
-3.41117e-27  3.94945e-28        00000 
 6.03457e-28 -6.26004e-29        00000 
-1.06127e-28  9.88149e-30        00000 
 1.85819e-29 -1.55500e-30        00000 
-3.24264e-30  2.44102e-31        00000 
 5.64395e-31 -3.82369e-32        00000 
-9.80360e-32  5.97713e-33        00000 
 1.70014e-32 -9.32289e-34        00000 
-2.94453e-33  1.45055e-34        00000 
 5.09424e-34 -2.25036e-35        00000 
-8.80548e-35  3.47896e-36        00000 
 1.52092e-35 -5.35551e-37        00000 
-2.62747e-36  8.20520e-38        00000 
 4.66319e-37 -1.27590e-38        00000 
-1.56167e-37  3.76637e-39        00000 
 9.53215e-20  6.32458e-20        00000 
-7.25960e-20 -5.05147e-20        00000 
 6.30470e-20  9.98433e-20        00000 
 1.04233e-20 -9.98598e-20        00000 
-7.04329e-20  5.52246e-20        00000 
 4.47905e-20 -2.21756e-20        00000 
-1.72533e-20  5.87269e-21        00000 
 4.36999e-21 -1.16173e-21        00000 
-9.08475e-22  1.99892e-22        00000 
 1.73046e-22 -3.21986e-23        00000 
-3.15314e-23  5.01117e-24        00000 
 5.60407e-24 -7.64726e-25        00000 
-9.81158e-25  1.15275e-25        00000 
 1.70154e-25 -1.72294e-26        00000 
-2.93255e-26  2.55826e-27        00000 
 5.03328e-27 -3.77662e-28        00000 
-8.61507e-28  5.54346e-29        00000 
 1.47188e-28 -8.08652e-30        00000 
-2.51173e-29  1.17110e-30        00000 
 4.28313e-30 -1.68097e-31        00000 
-7.30087e-31  2.38552e-32        00000 
 1.24427e-31 -3.33480e-33        00000 
-2.12055e-32  4.56664e-34        00000 
 3.61432e-33 -6.07122e-35        00000 
-6.16140e-34  7.71511e-36        00000 
 1.05058e-34 -9.08669e-37        00000 
-1.79184e-35  9.19195e-38        00000 
 3.05936e-36 -5.85182e-39        00000 
-5.36819e-37 -6.23305e-40        00000 
 1.78069e-37  6.60701e-40        00000 
-3.53232e-19 -2.72387e-19        00000 
 4.20104e-19  3.97833e-19        00000 
-7.72096e-19 -5.81088e-19        00000 
-4.42545e-19  7.11524e-19        00000 
 5.05974e-19 -3.03905e-19        00000 
-2.44785e-19  8.02594e-20        00000 
 5.68096e-20 -1.35026e-20        00000 
-1.03966e-20  1.95895e-21        00000 
 1.79290e-21 -2.72681e-22        00000 
-3.03013e-22  3.74139e-23        00000 
 5.08150e-23 -5.09742e-24        00000 
-8.49615e-24  6.90127e-25        00000 
 1.41925e-24 -9.26324e-26        00000 
-2.37102e-25  1.22712e-26        00000 
 3.96330e-26 -1.59290e-27        00000 
-6.63037e-27  2.00274e-28        00000 
 1.11028e-27 -2.38900e-29        00000 
-1.86108e-28  2.58870e-30        00000 
 3.12282e-29 -2.25271e-31        00000 
-5.24544e-30  6.78980e-33        00000 
 8.81988e-31  3.49015e-33        00000 
-1.48450e-31 -1.28120e-33        00000 
 2.50104e-32  3.20141e-34        00000 
-4.21767e-33 -6.97159e-35        00000 
 7.11900e-34  1.41466e-35        00000 
-1.20266e-34 -2.75086e-36        00000 
 2.03346e-35  5.20040e-37        00000 
-3.44358e-36 -9.64724e-38        00000 
 5.99384e-37  1.81702e-38        00000 
-1.97464e-37 -6.35840e-39        00000 
 7.41914e-19  7.92409e-19        00000 
-3.19521e-18 -2.11158e-18        00000 
 2.07634e-18  4.15268e-18        00000 
 5.52390e-18 -6.22291e-18        00000 
-3.92382e-18  1.19940e-18        00000 
 7.58264e-19 -1.46106e-19        00000 
-1.10789e-19  1.53913e-20        00000 
 1.67965e-20 -1.66546e-21        00000 
-2.61553e-21  1.81848e-22        00000 
 4.14429e-22 -1.94662e-23        00000 
-6.64547e-23  1.95169e-24        00000 
 1.07491e-23 -1.64557e-25        00000 
-1.75023e-24  6.73589e-27        00000 
 2.86476e-25  1.62034e-27        00000 
-4.70896e-26 -6.43034e-28        00000 
 7.76774e-27  1.59019e-28        00000 
-1.28519e-27 -3.38512e-29        00000 
 2.13187e-28  6.70128e-30        00000 
-3.54437e-29 -1.27196e-30        00000 
 5.90458e-30  2.35006e-31        00000 
-9.85421e-31 -4.26243e-32        00000 
 1.64727e-31  7.62904e-33        00000 
-2.75775e-32 -1.35205e-33        00000 
 4.62319e-33  2.37816e-34        00000 
-7.76031e-34 -4.15847e-35        00000 
 1.30415e-34  7.23767e-36        00000 
-2.19414e-35 -1.25501e-36        00000 
 3.69810e-36  2.17138e-37        00000 
-6.40645e-37 -3.85170e-38        00000 
 2.10198e-37  1.28762e-38        00000 
-1.38214e-18 -1.00074e-18        00000 
 1.84088e-18  5.19961e-18        00000 
-2.13623e-01 -1.47736e-01        00000 
-2.13623e-01  1.47736e-01        00000 
 1.01536e-17 -1.12703e-18        00000 
-9.15913e-19  2.87090e-20        00000 
 1.24422e-19  9.84965e-22        00000 
-1.84216e-20 -5.49015e-22        00000 
 2.83081e-21  1.23595e-22        00000 
-4.44373e-22 -2.36485e-23        00000 
 7.07438e-23  4.25950e-24        00000 
-1.13763e-23 -7.45731e-25        00000 
 1.84339e-24  1.28605e-25        00000 
-3.00489e-25 -2.19887e-26        00000 
 4.92193e-26  3.74030e-27        00000 
-8.09419e-27 -6.34228e-28        00000 
 1.33557e-27  1.07333e-28        00000 
-2.21008e-28 -1.81424e-29        00000 
 3.66630e-29  3.06432e-30        00000 
-6.09528e-30 -5.17352e-31        00000 
 1.01531e-30  8.73243e-32        00000 
-1.69416e-31 -1.47381e-32        00000 
 2.83133e-32  2.48737e-33        00000 
-4.73853e-33 -4.19816e-34        00000 
 7.94077e-34  7.08622e-35        00000 
-1.33231e-34 -1.19625e-35        00000 
 2.23789e-35  2.01975e-36        00000 
-3.76576e-36 -3.41329e-37        00000 
 6.51269e-37  5.92441e-38        00000 
-2.13361e-37 -1.94597e-38        00000 
 1.54385e-18  7.10524e-19        00000 
-1.01873e-17  3.42184e-21        00000 
-2.13623e-01  1.47736e-01        00000 
-2.13623e-01 -1.47736e-01        00000 
 1.41899e-18 -2.51172e-18        00000 
 4.36805e-19  2.09306e-19        00000 
-8.38119e-20 -2.49036e-20        00000 
 1.40881e-20  3.33948e-21        00000 
-2.31151e-21 -4.76848e-22        00000 
 3.77619e-22  7.07749e-23        00000 
-6.17492e-23 -1.07818e-23        00000 
 1.01227e-23  1.67335e-24        00000 
-1.66416e-24 -2.63342e-25        00000 
 2.74348e-25  4.18905e-26        00000 
-4.53452e-26 -6.72055e-27        00000 
 7.51244e-27  1.08563e-27        00000 
-1.24724e-27 -1.76371e-28        00000 
 2.07468e-28  2.87891e-29        00000 
-3.45701e-29 -4.71817e-30        00000 
 5.76937e-30  7.75904e-31        00000 
-9.64215e-31 -1.27976e-31        00000 
 1.61355e-31  2.11624e-32        00000 
-2.70341e-32 -3.50734e-33        00000 
 4.53438e-33  5.82439e-34        00000 
-7.61323e-34 -9.68908e-35        00000 
 1.27948e-34  1.61432e-35        00000 
-2.15226e-35 -2.69347e-36        00000 
 3.62618e-36  4.50296e-37        00000 
-6.27823e-37 -7.73598e-38        00000 
 2.05856e-37  2.51951e-38        00000 
-1.32007e-18 -1.88385e-19        00000 
 2.86501e-18  1.03596e-18        00000 
-9.78287e-18  6.26106e-18        00000 
-2.18511e-18 -2.26409e-18        00000 
 2.40526e-18  1.47669e-18        00000 
-1.72638e-19 -2.31456e-19        00000 
 4.05363e-20  3.11923e-20        00000 
-8.05719e-21 -4.35780e-21        00000 
 1.47341e-21  6.30024e-22        00000 
-2.59203e-22 -9.35427e-23        00000 
 4.47117e-23  1.41767e-23        00000 
-7.63087e-24 -2.18333e-24        00000 
 1.29453e-24  3.40584e-25        00000 
-2.18850e-25 -5.36838e-26        00000 
 3.69250e-26  8.53457e-27        00000 
-6.22339e-27 -1.36656e-27        00000 
 1.04835e-27  2.20143e-28        00000 
-1.76568e-28 -3.56473e-29        00000 
 2.97401e-29  5.79810e-30        00000 
-5.01026e-30 -9.46737e-31        00000 
 8.44322e-31  1.55113e-31        00000 
-1.42335e-31 -2.54898e-32        00000 
 2.40042e-32  4.19988e-33        00000 
-4.04989e-33 -6.93638e-34        00000 
 6.83574e-34  1.14801e-34        00000 
-1.15430e-34 -1.90362e-35        00000 
 1.95007e-35  3.16204e-36        00000 
-3.29840e-36 -5.26433e-37        00000 
 5.73192e-37  9.00734e-38        00000 
-1.88517e-37 -2.92353e-38        00000 
 4.00826e-19  5.38128e-20        00000 
-6.19005e-19  1.95443e-19        00000 
 9.86981e-19 -7.48606e-19        00000 
-1.50975e-19  3.51970e-19        00000 
-1.57795e-19 -2.95551e-19        00000 
 1.13621e-19  9.74601e-20        00000 
-1.88213e-20 -1.92995e-20        00000 
 3.84514e-21  3.24624e-21        00000 
-7.70576e-22 -5.22374e-22        00000 
 1.47546e-22  8.30315e-23        00000 
-2.72762e-23 -1.31782e-23        00000 
 4.92180e-24  2.09679e-24        00000 
-8.73509e-25 -3.34938e-25        00000 
 1.53253e-25  5.37344e-26        00000 
-2.66689e-26 -8.65757e-27        00000 
 4.61363e-27  1.40054e-27        00000 
-7.94701e-28 -2.27413e-28        00000 
 1.36449e-28  3.70529e-29        00000 
-2.33715e-29 -6.05596e-30        00000 
 3.99586e-30  9.92602e-31        00000 
-6.82227e-31 -1.63113e-31        00000 
 1.16355e-31  2.68670e-32        00000 
-1.98284e-32 -4.43487e-33        00000 
 3.37694e-33  7.33485e-34        00000 
-5.74854e-34 -1.21528e-34        00000 
 9.78234e-35  2.01685e-35        00000 
-1.66429e-35 -3.35221e-36        00000 
 2.83326e-36  5.58351e-37        00000 
-4.95408e-37 -9.55670e-38        00000 
 1.63773e-37  3.10250e-38        00000 
-9.04374e-20  2.07578e-20        00000 
 9.80367e-20 -5.93206e-20        00000 
-7.70488e-20  1.08952e-19        00000 
 4.72377e-20 -7.77916e-20        00000 
 2.57658e-22  7.16960e-20        00000 
-1.49822e-20 -2.47359e-20        00000 
 6.87029e-21  7.22220e-21        00000 
-1.57186e-21 -1.59328e-21        00000 
 3.42190e-22  3.04452e-22        00000 
-7.13184e-23 -5.43377e-23        00000 
 1.42388e-23  9.36596e-24        00000 
-2.74463e-24 -1.58437e-24        00000 
 5.15013e-25  2.65250e-25        00000 
-9.47026e-26 -4.41536e-26        00000 
 1.71501e-26  7.32750e-27        00000 
-3.06979e-27 -1.21429e-27        00000 
 5.44552e-28  2.01139e-28        00000 
-9.59208e-29 -3.33225e-29        00000 
 1.68023e-29  5.52343e-30        00000 
-2.93015e-30 -9.16238e-31        00000 
 5.09156e-31  1.52122e-31        00000 
-8.82148e-32 -2.52809e-32        00000 
 1.52472e-32  4.20552e-33        00000 
-2.63013e-33 -7.00287e-34        00000 
 4.52949e-34  1.16723e-34        00000 
-7.78977e-35 -1.94736e-35        00000 
 1.33817e-35  3.25196e-36        00000 
-2.29842e-36 -5.43936e-37        00000 
 4.05339e-37  9.34662e-38        00000 
-1.34955e-37 -3.04407e-38        00000 
 2.67920e-20 -1.29273e-20        00000 
-2.34265e-20  1.74111e-20        00000 
 1.60779e-20 -1.44977e-20        00000 
-9.78025e-21  2.13547e-20        00000 
 2.29826e-21 -1.15648e-20        00000 
 1.23245e-21  5.72527e-21        00000 
-1.21937e-21 -1.98454e-21        00000 
 4.79849e-22  5.63726e-22        00000 
-1.25943e-22 -1.32141e-22        00000 
 2.93786e-23  2.73935e-23        00000 
-6.41427e-24 -5.27649e-24        00000 
 1.33370e-24  9.71478e-25        00000 
-2.67006e-25 -1.73786e-25        00000 
 5.18996e-26  3.05042e-26        00000 
-9.85808e-27 -5.28603e-27        00000 
 1.83886e-27  9.07938e-28        00000 
-3.38116e-28 -1.54986e-28        00000 
 6.14594e-29  2.63408e-29        00000 
-1.10681e-29 -4.46292e-30        00000 
 1.97818e-30  7.54496e-31        00000 
-3.51354e-31 -1.27358e-31        00000 
 6.20830e-32  2.14752e-32        00000 
-1.09224e-32 -3.61861e-33        00000 
 1.91459e-33  6.09473e-34        00000 
-3.34569e-34 -1.02627e-34        00000 
 5.83110e-35  1.72793e-35        00000 
-1.01401e-35 -2.90942e-36        00000 
 1.76136e-36  4.90297e-37        00000 
-3.14015e-37 -8.48488e-38        00000 
 1.05499e-37  2.77966e-38        00000 
-4.22073e-21  2.61622e-21        00000 
 3.78991e-21 -2.68284e-21        00000 
-2.78796e-21  2.88439e-21        00000 
 1.63919e-21 -2.87618e-21        00000 
-6.05993e-22  2.12658e-21        00000 
-1.15938e-23 -1.10958e-21        00000 
 1.56775e-22  4.73066e-22        00000 
-9.80153e-23 -1.59735e-22        00000 
 3.61354e-23  4.52166e-23        00000 
-1.01002e-23 -1.10277e-23        00000 
 2.48402e-24  2.41827e-24        00000 
-5.65938e-25 -4.93392e-25        00000 
 1.22173e-25  9.58270e-26        00000 
-2.53184e-26 -1.79832e-26        00000 
 5.08185e-27  3.29311e-27        00000 
-9.94467e-28 -5.92369e-28        00000 
 1.90682e-28  1.05153e-28        00000 
-3.59626e-29 -1.84804e-29        00000 
 6.69143e-30  3.22317e-30        00000 
-1.23122e-30 -5.58843e-31        00000 
 2.24448e-31  9.64483e-32        00000 
-4.05983e-32 -1.65853e-32        00000 
 7.29518e-33  2.84385e-33        00000 
-1.30355e-33 -4.86517e-34        00000 
 2.31812e-34  8.30802e-35        00000 
-4.10531e-35 -1.41665e-35        00000 
 7.24458e-36  2.41286e-36        00000 
-1.27558e-36 -4.10900e-37        00000 
 2.30408e-37  7.18226e-38        00000 
-7.82585e-38 -2.37249e-38        00000 
 6.75250e-22 -4.56541e-22        00000 
-6.16607e-22  4.66508e-22        00000 
 4.68665e-22 -4.81531e-22        00000 
-2.88204e-22  4.53978e-22        00000 
 1.27657e-22 -3.49767e-22        00000 
-2.47738e-23  2.09692e-22        00000 
-1.42669e-23 -9.99980e-23        00000 
 1.56831e-23  3.94496e-23        00000 
-7.96499e-24 -1.29985e-23        00000 
 2.83481e-24  3.68878e-24        00000 
-8.17852e-25 -9.25509e-25        00000 
 2.08992e-25  2.11469e-25        00000 
-4.93557e-26 -4.51141e-26        00000 
 1.10152e-26  9.15309e-27        00000 
-2.35487e-27 -1.78930e-27        00000 
 4.86669e-28  3.40150e-28        00000 
-9.78778e-29 -6.33004e-29        00000 
 1.92534e-29  1.15872e-29        00000 
-3.71881e-30 -2.09375e-30        00000 
 7.07468e-31  3.74462e-31        00000 
-1.32888e-31 -6.64208e-32        00000 
 2.46942e-32  1.17030e-32        00000 
-4.54710e-33 -2.05076e-33        00000 
 8.30759e-34  3.57748e-34        00000 
-1.50761e-34 -6.21755e-35        00000 
 2.71998e-35  1.07724e-35        00000 
-4.88256e-36 -1.86158e-36        00000 
 8.73370e-37  3.21259e-37        00000 
-1.60186e-37 -5.68723e-38        00000 
 5.51033e-38  1.89857e-38        00000 
-1.09084e-22  7.93380e-23        00000 
 1.00568e-22 -8.01592e-23        00000 
-7.84239e-23  8.01347e-23        00000 
 5.05530e-23 -7.36718e-23        00000 
-2.51969e-23  5.79908e-23        00000 
 7.92350e-24 -3.75581e-23        00000 
 1.89305e-25  1.99240e-23        00000 
-2.04106e-24 -8.80673e-24        00000 
 1.45056e-24  3.30503e-24        00000 
-6.55342e-25 -1.06903e-24        00000 
 2.27909e-25  3.04507e-25        00000 
-6.69074e-26 -7.80503e-26        00000 
 1.75798e-26  1.84022e-26        00000 
-4.27573e-27 -4.06760e-27        00000 
 9.82192e-28  8.55585e-28        00000 
-2.15877e-28 -1.73197e-28        00000 
 4.58087e-29  3.40273e-29        00000 
-9.44674e-30 -6.52924e-30        00000 
 1.90278e-30  1.22947e-30        00000 
-3.75809e-31 -2.28019e-31        00000 
 7.30082e-32  4.17684e-32        00000 
-1.39860e-32 -7.57360e-33        00000 
 2.64737e-33  1.36173e-33        00000 
-4.95984e-34 -2.43116e-34        00000 
 9.20992e-35  4.31478e-35        00000 
-1.69700e-35 -7.61940e-36        00000 
 3.10589e-36  1.33978e-36        00000 
-5.65630e-37 -2.34926e-37        00000 
 1.05566e-37  4.22301e-38        00000 
-3.68429e-38 -1.42778e-38        00000 
 1.77258e-23 -1.36811e-23        00000 
-1.64574e-23  1.36837e-23        00000 
 1.31112e-23 -1.33763e-23        00000 
-8.80884e-24  1.21240e-23        00000 
 4.78451e-24 -9.68038e-24        00000 
-1.88976e-24  6.59203e-24        00000 
 3.40532e-25 -3.78529e-24        00000 
 1.93131e-25  1.84095e-24        00000 
-2.25974e-25 -7.67532e-25        00000 
 1.29870e-25  2.77986e-25        00000 
-5.44702e-26 -8.87031e-26        00000 
 1.86217e-26  2.53592e-26        00000 
-5.52321e-27 -6.60941e-27        00000 
 1.48147e-27  1.59739e-27        00000 
-3.69082e-28 -3.63402e-28        00000 
 8.69108e-29  7.87817e-29        00000 
-1.95763e-29 -1.64339e-29        00000 