<?xml version="1.0" encoding="utf-8"?>
<VTKFile byte_order="LittleEndian" type="UnstructuredGrid" version="0.1">
   <UnstructuredGrid>
      <Piece NumberOfCells="3364" NumberOfPoints="1741">
         <Points>
            <DataArray Name="Points" NumberOfComponents="3" format="ascii" type="Float32">
0.0000 1.0000 0.0000
0.0000 1.0345 0.0000
0.0000 1.0690 0.0000
0.0000 1.1034 0.0000
0.0000 1.1379 0.0000
0.0000 1.1724 0.0000
0.0000 1.2069 0.0000
0.0000 1.2414 0.0000
0.0000 1.2759 0.0000
0.0000 1.3103 0.0000
0.0000 1.3448 0.0000
0.0000 1.3793 0.0000
0.0000 1.4138 0.0000
0.0000 1.4483 0.0000
0.0000 1.4828 0.0000
0.0000 1.5172 0.0000
0.0000 1.5517 0.0000
0.0000 1.5862 0.0000
0.0000 1.6207 0.0000
0.0000 1.6552 0.0000
0.0000 1.6897 0.0000
0.0000 1.7241 0.0000
0.0000 1.7586 0.0000
0.0000 1.7931 0.0000
0.0000 1.8276 0.0000
0.0000 1.8621 0.0000
0.0000 1.8966 0.0000
0.0000 1.9310 0.0000
0.0000 1.9655 0.0000
0.0000 2.0000 0.0000
0.0690 1.0000 0.0000
0.0690 1.0345 0.0000
0.0690 1.0690 0.0000
0.0690 1.1034 0.0000
0.0690 1.1379 0.0000
0.0690 1.1724 0.0000
0.0690 1.2069 0.0000
0.0690 1.2414 0.0000
0.0690 1.2759 0.0000
0.0690 1.3103 0.0000
0.0690 1.3448 0.0000
0.0690 1.3793 0.0000
0.0690 1.4138 0.0000
0.0690 1.4483 0.0000
0.0690 1.4828 0.0000
0.0690 1.5172 0.0000
0.0690 1.5517 0.0000
0.0690 1.5862 0.0000
0.0690 1.6207 0.0000
0.0690 1.6552 0.0000
0.0690 1.6897 0.0000
0.0690 1.7241 0.0000
0.0690 1.7586 0.0000
0.0690 1.7931 0.0000
0.0690 1.8276 0.0000
0.0690 1.8621 0.0000
0.0690 1.8966 0.0000
0.0690 1.9310 0.0000
0.0690 1.9655 0.0000
0.0690 2.0000 0.0000
0.1379 1.0000 0.0000
0.1379 1.0345 0.0000
0.1379 1.0690 0.0000
0.1379 1.1034 0.0000
0.1379 1.1379 0.0000
0.1379 1.1724 0.0000
0.1379 1.2069 0.0000
0.1379 1.2414 0.0000
0.1379 1.2759 0.0000
0.1379 1.3103 0.0000
0.1379 1.3448 0.0000
0.1379 1.3793 0.0000
0.1379 1.4138 0.0000
0.1379 1.4483 0.0000
0.1379 1.4828 0.0000
0.1379 1.5172 0.0000
0.1379 1.5517 0.0000
0.1379 1.5862 0.0000
0.1379 1.6207 0.0000
0.1379 1.6552 0.0000
0.1379 1.6897 0.0000
0.1379 1.7241 0.0000
0.1379 1.7586 0.0000
0.1379 1.7931 0.0000
0.1379 1.8276 0.0000
0.1379 1.8621 0.0000
0.1379 1.8966 0.0000
0.1379 1.9310 0.0000
0.1379 1.9655 0.0000
0.1379 2.0000 0.0000
0.2069 1.0000 0.0000
0.2069 1.0345 0.0000
0.2069 1.0690 0.0000
0.2069 1.1034 0.0000
0.2069 1.1379 0.0000
0.2069 1.1724 0.0000
0.2069 1.2069 0.0000
0.2069 1.2414 0.0000
0.2069 1.2759 0.0000
0.2069 1.3103 0.0000
0.2069 1.3448 0.0000
0.2069 1.3793 0.0000
0.2069 1.4138 0.0000
0.2069 1.4483 0.0000
0.2069 1.4828 0.0000
0.2069 1.5172 0.0000
0.2069 1.5517 0.0000
0.2069 1.5862 0.0000
0.2069 1.6207 0.0000
0.2069 1.6552 0.0000
0.2069 1.6897 0.0000
0.2069 1.7241 0.0000
0.2069 1.7586 0.0000
0.2069 1.7931 0.0000
0.2069 1.8276 0.0000
0.2069 1.8621 0.0000
0.2069 1.8966 0.0000
0.2069 1.9310 0.0000
0.2069 1.9655 0.0000
0.2069 2.0000 0.0000
0.2759 1.0000 0.0000
0.2759 1.0345 0.0000
0.2759 1.0690 0.0000
0.2759 1.1034 0.0000
0.2759 1.1379 0.0000
0.2759 1.1724 0.0000
0.2759 1.2069 0.0000
0.2759 1.2414 0.0000
0.2759 1.2759 0.0000
0.2759 1.3103 0.0000
0.2759 1.3448 0.0000
0.2759 1.3793 0.0000
0.2759 1.4138 0.0000
0.2759 1.4483 0.0000
0.2759 1.4828 0.0000
0.2759 1.5172 0.0000
0.2759 1.5517 0.0000
0.2759 1.5862 0.0000
0.2759 1.6207 0.0000
0.2759 1.6552 0.0000
0.2759 1.6897 0.0000
0.2759 1.7241 0.0000
0.2759 1.7586 0.0000
0.2759 1.7931 0.0000
0.2759 1.8276 0.0000
0.2759 1.8621 0.0000
0.2759 1.8966 0.0000
0.2759 1.9310 0.0000
0.2759 1.9655 0.0000
0.2759 2.0000 0.0000
0.3448 1.0000 0.0000
0.3448 1.0345 0.0000
0.3448 1.0690 0.0000
0.3448 1.1034 0.0000
0.3448 1.1379 0.0000
0.3448 1.1724 0.0000
0.3448 1.2069 0.0000
0.3448 1.2414 0.0000
0.3448 1.2759 0.0000
0.3448 1.3103 0.0000
0.3448 1.3448 0.0000
0.3448 1.3793 0.0000
0.3448 1.4138 0.0000
0.3448 1.4483 0.0000
0.3448 1.4828 0.0000
0.3448 1.5172 0.0000
0.3448 1.5517 0.0000
0.3448 1.5862 0.0000
0.3448 1.6207 0.0000
0.3448 1.6552 0.0000
0.3448 1.6897 0.0000
0.3448 1.7241 0.0000
0.3448 1.7586 0.0000
0.3448 1.7931 0.0000
0.3448 1.8276 0.0000
0.3448 1.8621 0.0000
0.3448 1.8966 0.0000
0.3448 1.9310 0.0000
0.3448 1.9655 0.0000
0.3448 2.0000 0.0000
0.4138 1.0000 0.0000
0.4138 1.0345 0.0000
0.4138 1.0690 0.0000
0.4138 1.1034 0.0000
0.4138 1.1379 0.0000
0.4138 1.1724 0.0000
0.4138 1.2069 0.0000
0.4138 1.2414 0.0000
0.4138 1.2759 0.0000
0.4138 1.3103 0.0000
0.4138 1.3448 0.0000
0.4138 1.3793 0.0000
0.4138 1.4138 0.0000
0.4138 1.4483 0.0000
0.4138 1.4828 0.0000
0.4138 1.5172 0.0000
0.4138 1.5517 0.0000
0.4138 1.5862 0.0000
0.4138 1.6207 0.0000
0.4138 1.6552 0.0000
0.4138 1.6897 0.0000
0.4138 1.7241 0.0000
0.4138 1.7586 0.0000
0.4138 1.7931 0.0000
0.4138 1.8276 0.0000
0.4138 1.8621 0.0000
0.4138 1.8966 0.0000
0.4138 1.9310 0.0000
0.4138 1.9655 0.0000
0.4138 2.0000 0.0000
0.4828 1.0000 0.0000
0.4828 1.0345 0.0000
0.4828 1.0690 0.0000
0.4828 1.1034 0.0000
0.4828 1.1379 0.0000
0.4828 1.1724 0.0000
0.4828 1.2069 0.0000
0.4828 1.2414 0.0000
0.4828 1.2759 0.0000
0.4828 1.3103 0.0000
0.4828 1.3448 0.0000
0.4828 1.3793 0.0000
0.4828 1.4138 0.0000
0.4828 1.4483 0.0000
0.4828 1.4828 0.0000
0.4828 1.5172 0.0000
0.4828 1.5517 0.0000
0.4828 1.5862 0.0000
0.4828 1.6207 0.0000
0.4828 1.6552 0.0000
0.4828 1.6897 0.0000
0.4828 1.7241 0.0000
0.4828 1.7586 0.0000
0.4828 1.7931 0.0000
0.4828 1.8276 0.0000
0.4828 1.8621 0.0000
0.4828 1.8966 0.0000
0.4828 1.9310 0.0000
0.4828 1.9655 0.0000
0.4828 2.0000 0.0000
0.5517 1.0000 0.0000
0.5517 1.0345 0.0000
0.5517 1.0690 0.0000
0.5517 1.1034 0.0000
0.5517 1.1379 0.0000
0.5517 1.1724 0.0000
0.5517 1.2069 0.0000
0.5517 1.2414 0.0000
0.5517 1.2759 0.0000
0.5517 1.3103 0.0000
0.5517 1.3448 0.0000
0.5517 1.3793 0.0000
0.5517 1.4138 0.0000
0.5517 1.4483 0.0000
0.5517 1.4828 0.0000
0.5517 1.5172 0.0000
0.5517 1.5517 0.0000
0.5517 1.5862 0.0000
0.5517 1.6207 0.0000
0.5517 1.6552 0.0000
0.5517 1.6897 0.0000
0.5517 1.7241 0.0000
0.5517 1.7586 0.0000
0.5517 1.7931 0.0000
0.5517 1.8276 0.0000
0.5517 1.8621 0.0000
0.5517 1.8966 0.0000
0.5517 1.9310 0.0000
0.5517 1.9655 0.0000
0.5517 2.0000 0.0000
0.6207 1.0000 0.0000
0.6207 1.0345 0.0000
0.6207 1.0690 0.0000
0.6207 1.1034 0.0000
0.6207 1.1379 0.0000
0.6207 1.1724 0.0000
0.6207 1.2069 0.0000
0.6207 1.2414 0.0000
0.6207 1.2759 0.0000
0.6207 1.3103 0.0000
0.6207 1.3448 0.0000
0.6207 1.3793 0.0000
0.6207 1.4138 0.0000
0.6207 1.4483 0.0000
0.6207 1.4828 0.0000
0.6207 1.5172 0.0000
0.6207 1.5517 0.0000
0.6207 1.5862 0.0000
0.6207 1.6207 0.0000
0.6207 1.6552 0.0000
0.6207 1.6897 0.0000
0.6207 1.7241 0.0000
0.6207 1.7586 0.0000
0.6207 1.7931 0.0000
0.6207 1.8276 0.0000
0.6207 1.8621 0.0000
0.6207 1.8966 0.0000
0.6207 1.9310 0.0000
0.6207 1.9655 0.0000
0.6207 2.0000 0.0000
0.6897 1.0000 0.0000
0.6897 1.0345 0.0000
0.6897 1.0690 0.0000
0.6897 1.1034 0.0000
0.6897 1.1379 0.0000
0.6897 1.1724 0.0000
0.6897 1.2069 0.0000
0.6897 1.2414 0.0000
0.6897 1.2759 0.0000
0.6897 1.3103 0.0000
0.6897 1.3448 0.0000
0.6897 1.3793 0.0000
0.6897 1.4138 0.0000
0.6897 1.4483 0.0000
0.6897 1.4828 0.0000
0.6897 1.5172 0.0000
0.6897 1.5517 0.0000
0.6897 1.5862 0.0000
0.6897 1.6207 0.0000
0.6897 1.6552 0.0000
0.6897 1.6897 0.0000
0.6897 1.7241 0.0000
0.6897 1.7586 0.0000
0.6897 1.7931 0.0000
0.6897 1.8276 0.0000
0.6897 1.8621 0.0000
0.6897 1.8966 0.0000
0.6897 1.9310 0.0000
0.6897 1.9655 0.0000
0.6897 2.0000 0.0000
0.7586 1.0000 0.0000
0.7586 1.0345 0.0000
0.7586 1.0690 0.0000
0.7586 1.1034 0.0000
0.7586 1.1379 0.0000
0.7586 1.1724 0.0000
0.7586 1.2069 0.0000
0.7586 1.2414 0.0000
0.7586 1.2759 0.0000
0.7586 1.3103 0.0000
0.7586 1.3448 0.0000
0.7586 1.3793 0.0000
0.7586 1.4138 0.0000
0.7586 1.4483 0.0000
0.7586 1.4828 0.0000
0.7586 1.5172 0.0000
0.7586 1.5517 0.0000
0.7586 1.5862 0.0000
0.7586 1.6207 0.0000
0.7586 1.6552 0.0000
0.7586 1.6897 0.0000
0.7586 1.7241 0.0000
0.7586 1.7586 0.0000
0.7586 1.7931 0.0000
0.7586 1.8276 0.0000
0.7586 1.8621 0.0000
0.7586 1.8966 0.0000
0.7586 1.9310 0.0000
0.7586 1.9655 0.0000
0.7586 2.0000 0.0000
0.8276 1.0000 0.0000
0.8276 1.0345 0.0000
0.8276 1.0690 0.0000
0.8276 1.1034 0.0000
0.8276 1.1379 0.0000
0.8276 1.1724 0.0000
0.8276 1.2069 0.0000
0.8276 1.2414 0.0000
0.8276 1.2759 0.0000
0.8276 1.3103 0.0000
0.8276 1.3448 0.0000
0.8276 1.3793 0.0000
0.8276 1.4138 0.0000
0.8276 1.4483 0.0000
0.8276 1.4828 0.0000
0.8276 1.5172 0.0000
0.8276 1.5517 0.0000
0.8276 1.5862 0.0000
0.8276 1.6207 0.0000
0.8276 1.6552 0.0000
0.8276 1.6897 0.0000
0.8276 1.7241 0.0000
0.8276 1.7586 0.0000
0.8276 1.7931 0.0000
0.8276 1.8276 0.0000
0.8276 1.8621 0.0000
0.8276 1.8966 0.0000
0.8276 1.9310 0.0000
0.8276 1.9655 0.0000
0.8276 2.0000 0.0000
0.8966 1.0000 0.0000
0.8966 1.0345 0.0000
0.8966 1.0690 0.0000
0.8966 1.1034 0.0000
0.8966 1.1379 0.0000
0.8966 1.1724 0.0000
0.8966 1.2069 0.0000
0.8966 1.2414 0.0000
0.8966 1.2759 0.0000
0.8966 1.3103 0.0000
0.8966 1.3448 0.0000
0.8966 1.3793 0.0000
0.8966 1.4138 0.0000
0.8966 1.4483 0.0000
0.8966 1.4828 0.0000
0.8966 1.5172 0.0000
0.8966 1.5517 0.0000
0.8966 1.5862 0.0000
0.8966 1.6207 0.0000
0.8966 1.6552 0.0000
0.8966 1.6897 0.0000
0.8966 1.7241 0.0000
0.8966 1.7586 0.0000
0.8966 1.7931 0.0000
0.8966 1.8276 0.0000
0.8966 1.8621 0.0000
0.8966 1.8966 0.0000
0.8966 1.9310 0.0000
0.8966 1.9655 0.0000
0.8966 2.0000 0.0000
0.9655 1.0000 0.0000
0.9655 1.0345 0.0000
0.9655 1.0690 0.0000
0.9655 1.1034 0.0000
0.9655 1.1379 0.0000
0.9655 1.1724 0.0000
0.9655 1.2069 0.0000
0.9655 1.2414 0.0000
0.9655 1.2759 0.0000
0.9655 1.3103 0.0000
0.9655 1.3448 0.0000
0.9655 1.3793 0.0000
0.9655 1.4138 0.0000
0.9655 1.4483 0.0000
0.9655 1.4828 0.0000
0.9655 1.5172 0.0000
0.9655 1.5517 0.0000
0.9655 1.5862 0.0000
0.9655 1.6207 0.0000
0.9655 1.6552 0.0000
0.9655 1.6897 0.0000
0.9655 1.7241 0.0000
0.9655 1.7586 0.0000
0.9655 1.7931 0.0000
0.9655 1.8276 0.0000
0.9655 1.8621 0.0000
0.9655 1.8966 0.0000
0.9655 1.9310 0.0000
0.9655 1.9655 0.0000
0.9655 2.0000 0.0000
1.0345 1.0000 0.0000
1.0345 1.0345 0.0000
1.0345 1.0690 0.0000
1.0345 1.1034 0.0000
1.0345 1.1379 0.0000
1.0345 1.1724 0.0000
1.0345 1.2069 0.0000
1.0345 1.2414 0.0000
1.0345 1.2759 0.0000
1.0345 1.3103 0.0000
1.0345 1.3448 0.0000
[...]
         <PointData>
            <DataArray Name="fValues" NumberOfComponents="3" format="ascii" type="Float64">
-4.87954e-26 -1.28012e-25        00000 
 9.35841e-26  2.50119e-25        00000 
-2.83566e-25 -7.76729e-25        00000 
 8.09058e-25  2.25644e-24        00000 
-2.03050e-24 -5.69054e-24        00000 
 4.55074e-24  1.22520e-23        00000 
-8.00681e-24 -2.29505e-23        00000 
 1.21518e-23  3.63953e-23        00000 
-1.53109e-23 -4.93974e-23        00000 
 1.62536e-23  5.74021e-23        00000 
-1.49777e-23 -5.69637e-23        00000 
 1.23879e-23  4.81388e-23        00000 
-9.33905e-24 -3.45677e-23        00000 
 6.31898e-24  2.10401e-23        00000 
-3.71554e-24 -1.08069e-23        00000 
 1.85480e-24  4.65364e-24        00000 
-7.85387e-25 -1.67362e-24        00000 
 2.86668e-25  5.07905e-25        00000 
-9.17109e-26 -1.34956e-25        00000 
 2.60761e-26  3.31375e-26        00000 
-6.75110e-27 -7.67822e-27        00000 
 1.64516e-27  1.11102e-27        00000 
-3.74898e-28 -2.50137e-28        00000 
 8.44800e-29  4.98160e-29        00000 
-1.77490e-29 -1.11622e-29        00000 
 3.60666e-30  2.49480e-30        00000 
-7.17399e-31 -5.38172e-31        00000 
 1.40525e-31  1.12182e-31        00000 
-2.80520e-32 -2.35058e-32        00000 
 1.03245e-32  8.93915e-33        00000 
 8.07643e-26  2.07911e-25        00000 
-1.67219e-25 -4.38056e-25        00000 
 5.62613e-25  1.51290e-24        00000 
-1.77483e-24 -4.90379e-24        00000 
 4.90047e-24  1.38024e-23        00000 
-1.14915e-23 -3.26505e-23        00000 
 2.31935e-23  6.54264e-23        00000 
-3.75143e-23 -1.09156e-22        00000 
 4.85854e-23  1.53448e-22        00000 
-5.12615e-23 -1.81714e-22        00000 
 4.61540e-23  1.80392e-22        00000 
-3.74769e-23 -1.49453e-22        00000 
 2.80056e-23  1.03114e-22        00000 
-1.85518e-23 -5.90869e-23        00000 
 1.03020e-23  2.78996e-23        00000 
-4.68806e-24 -1.07163e-23        00000 
 1.78821e-24  3.33825e-24        00000 
-5.89456e-25 -8.76283e-25        00000 
 1.69132e-25  2.11285e-25        00000 
-4.34886e-26 -4.94908e-26        00000 
 1.04941e-26  1.10241e-26        00000 
-2.31738e-27 -1.70754e-27        00000 
 5.45125e-28  2.82237e-28        00000 
-1.11303e-28 -6.90686e-29        00000 
 2.23416e-29  1.57515e-29        00000 
-4.41314e-30 -3.38787e-30        00000 
 8.59018e-31  6.99572e-31        00000 
-1.65222e-31 -1.40407e-31        00000 
 3.24365e-32  2.84850e-32        00000 
-1.17832e-32 -1.05833e-32        00000 
-1.98054e-25 -4.96722e-25        00000 
 4.55828e-25  1.15979e-24        00000 
-1.76615e-24 -4.60267e-24        00000 
 6.41115e-24  1.72524e-23        00000 
-2.02484e-23 -5.65878e-23        00000 
 5.43518e-23  1.55042e-22        00000 
-1.22308e-22 -3.42722e-22        00000 
 2.19722e-22  6.13291e-22        00000 
-2.97470e-22 -9.04186e-22        00000 
 3.09151e-22  1.10054e-21        00000 
-2.67275e-22 -1.09389e-21        00000 
 2.12535e-22  8.80841e-22        00000 
-1.59595e-22 -5.74301e-22        00000 
 1.02990e-22  3.02350e-22        00000 
-5.15668e-23 -1.25949e-22        00000 
 2.02476e-23  4.00249e-23        00000 
-6.81292e-24 -9.79378e-24        00000 
 1.92928e-24  2.16467e-24        00000 
-4.68176e-25 -4.89364e-25        00000 
 1.08002e-25  1.10092e-25        00000 
-2.36330e-26 -2.26639e-26        00000 
 5.73213e-27  1.25363e-27        00000 
-1.00187e-27 -6.41312e-28        00000 
 1.90830e-28  1.52046e-28        00000 
-3.64132e-29 -3.16081e-29        00000 
 6.89122e-30  6.23252e-30        00000 
-1.29131e-30 -1.19510e-30        00000 
 2.39955e-31  2.25409e-31        00000 
-4.55874e-32 -4.33073e-32        00000 
 1.61275e-32  1.54435e-32        00000 
 4.57584e-25  1.12402e-24        00000 
-1.15553e-24 -2.86454e-24        00000 
 5.08832e-24  1.28255e-23        00000 
-2.13188e-23 -5.51672e-23        00000 
 7.87445e-23  2.12403e-22        00000 
-2.43556e-22 -6.94739e-22        00000 
 6.11118e-22  1.79672e-21        00000 
-1.31530e-21 -3.49872e-21        00000 
 1.92413e-21  5.44698e-21        00000 
-1.92190e-21 -6.89911e-21        00000 
 1.56155e-21  6.87645e-21        00000 
-1.21429e-21 -5.32226e-21        00000 
 9.57996e-22  3.22378e-21        00000 
-5.95303e-22 -1.52946e-21        00000 
 2.37374e-22  5.33418e-22        00000 
-8.35013e-23 -1.19935e-22        00000 
 2.43298e-23  2.32521e-23        00000 
-5.39316e-24 -5.13853e-24        00000 
 1.20524e-24  1.21316e-24        00000 
-2.59525e-25 -2.39492e-25        00000 
 4.95452e-26  4.50954e-26        00000 
-8.84737e-27 -8.96857e-27        00000 
 1.75490e-27  1.75246e-27        00000 
-3.30287e-28 -3.30806e-28        00000 
 6.11303e-29  6.12532e-29        00000 
-1.11808e-29 -1.11980e-29        00000 
 2.02621e-30  2.02823e-30        00000 
-3.64807e-31 -3.65118e-31        00000 
 6.72090e-32  6.72962e-32        00000 
-2.31811e-32 -2.32302e-32        00000 
-9.21021e-25 -2.22937e-24        00000 
 2.52021e-24  6.12125e-24        00000 
-1.24258e-23 -3.04172e-23        00000 
 5.97534e-23  1.48476e-22        00000 
-2.62490e-22 -6.71160e-22        00000 
 9.89105e-22  2.67120e-21        00000 
-2.94271e-21 -8.71164e-21        00000 
 6.60037e-21  2.03730e-20        00000 
-1.47553e-20 -3.15457e-20        00000 
 1.01666e-20  4.47331e-20        00000 
-1.05703e-20 -4.33171e-20        00000 
 5.08771e-21  3.25613e-20        00000 
-7.36325e-21 -1.69532e-20        00000 
 2.75578e-21  7.76297e-21        00000 
-9.85803e-22 -1.52641e-21        00000 
 3.35100e-22  2.26852e-22        00000 
-5.97504e-23 -4.89363e-23        00000 
 1.30430e-23  1.44094e-23        00000 
-2.96220e-24 -2.58074e-24        00000 
 5.00330e-25  3.87992e-25        00000 
-8.64478e-26 -1.00327e-25        00000 
 1.62954e-26  2.04300e-26        00000 
-3.00714e-27 -3.38275e-27        00000 
 5.45637e-28  5.86380e-28        00000 
-9.76136e-29 -1.02614e-28        00000 
 1.73015e-29  1.79763e-29        00000 
-3.04648e-30 -3.14511e-30        00000 
 5.34242e-31  5.49661e-31        00000 
-9.59773e-32 -9.85883e-32        00000 
 3.24246e-32  3.32914e-32        00000 
 1.59214e-24  3.82591e-24        00000 
-4.64862e-24 -1.11543e-23        00000 
 2.51258e-23  6.02888e-23        00000 
-1.35824e-22 -3.27073e-22        00000 
 7.00018e-22  1.70418e-21        00000 
-3.29378e-21 -8.24300e-21        00000 
 1.28222e-20  3.44376e-20        00000 
-3.54944e-20 -1.12925e-19        00000 
 6.07367e-20  2.15491e-19        00000 
-9.06906e-20 -2.98995e-19        00000 
 9.42440e-20  2.53898e-19        00000 
-6.48801e-20 -1.54348e-19        00000 
 2.78962e-20  6.56003e-20        00000 
-1.18576e-20 -1.98192e-20        00000 
 3.25148e-21  4.20878e-21        00000 
-7.29099e-22 -7.87831e-22        00000 
 1.47798e-22  1.40259e-22        00000 
-2.77344e-23 -2.55119e-23        00000 
 5.11785e-24  4.75292e-24        00000 
-9.28922e-25 -8.51180e-25        00000 
 1.57243e-25  1.68964e-25        00000 
-2.74284e-26 -2.88568e-26        00000 
 4.78547e-27  5.07464e-27        00000 
-8.31229e-28 -8.73896e-28        00000 
 1.43782e-28  1.50151e-28        00000 
-2.47814e-29 -2.57829e-29        00000 
 4.25956e-30  4.42466e-30        00000 
-7.31239e-31 -7.59413e-31        00000 
 1.28788e-31  1.33839e-31        00000 
-4.28118e-32 -4.45366e-32        00000 
-2.35241e-24 -5.66121e-24        00000 
 7.19914e-24  1.72423e-23        00000 
-4.15875e-23 -9.90561e-23        00000 
 2.45077e-22  5.80845e-22        00000 
-1.42663e-21 -3.36983e-21        00000 
 8.06912e-21  1.90944e-20        00000 
-4.24331e-20 -1.02237e-19        00000 
 1.75037e-19  4.57883e-19        00000 
-4.23319e-19 -1.56303e-18        00000 
 5.19988e-19  2.07995e-18        00000 
-7.20420e-19 -1.54584e-18        00000 
 3.30468e-19  8.66907e-19        00000 
-1.62897e-19 -2.77704e-19        00000 
 4.22234e-20  4.76827e-20        00000 
-8.51353e-21 -8.24317e-21        00000 
 1.55508e-21  1.42010e-21        00000 
-2.76765e-22 -2.48779e-22        00000 
 4.84168e-23  4.37737e-23        00000 
-8.33413e-24 -7.64747e-24        00000 
 1.42050e-24  1.32813e-24        00000 
-2.35182e-25 -2.28477e-25        00000 
 3.99800e-26  4.00165e-26        00000 
-6.74989e-27 -6.83243e-27        00000 
 1.13891e-27  1.16542e-27        00000 
-1.92185e-28 -1.98115e-28        00000 
 3.24365e-29  3.36208e-29        00000 
-5.47580e-30 -5.70096e-30        00000 
 9.25330e-31  9.67064e-31        00000 
-1.60619e-31 -1.68454e-31        00000 
 5.27676e-32  5.55000e-32        00000 
 2.96479e-24  7.21735e-24        00000 
-9.32994e-24 -2.25749e-23        00000 
 5.60564e-23  1.34558e-22        00000 
-3.47729e-22 -8.26900e-22        00000 
 2.17743e-21  5.11891e-21        00000 
-1.37849e-20 -3.19616e-20        00000 
 8.83588e-20  2.01760e-19        00000 
-5.66979e-19 -1.28314e-18        00000 
 2.60265e-18  6.24637e-18        00000 
-3.08753e-18 -1.44085e-17        00000 
 6.20681e-18  1.44826e-17        00000 
-1.59649e-18 -4.51003e-18        00000 
 5.72866e-19  4.87545e-19        00000 
-9.80813e-20 -7.70017e-20        00000 
 1.55411e-20  1.22254e-20        00000 
-2.56871e-21 -2.12602e-21        00000 
 4.25649e-22  3.76810e-22        00000 
-6.99869e-23 -6.45700e-23        00000 
 1.14656e-23  1.08233e-23        00000 
-1.86398e-24 -1.83994e-24        00000 
 3.08807e-25  3.08322e-25        00000 
-5.07436e-26 -5.06338e-26        00000 
 8.39593e-27  8.50090e-27        00000 
-1.39300e-27 -1.42857e-27        00000 
 2.31651e-28  2.40119e-28        00000 
-3.86010e-29 -4.03540e-29        00000 
 6.44381e-30  6.78229e-30        00000 
-1.07817e-30 -1.14107e-30        00000 
 1.85440e-31  1.97185e-31        00000 
-6.04685e-32 -6.45309e-32        00000 
-3.18593e-24 -7.93376e-24        00000 
 1.01097e-23  2.50558e-23        00000 
-6.14522e-23 -1.51300e-22        00000 
 3.86997e-22  9.44823e-22        00000 
-2.47563e-21 -5.97474e-21        00000 
 1.61969e-20  3.84434e-20        00000 
-1.10038e-19 -2.54508e-19        00000 
 8.08275e-19  1.79017e-18        00000 
-7.95097e-18 -1.66159e-17        00000 
-7.50427e-02 -2.21074e-01        00000 
 7.50427e-02 -2.21074e-01        00000 
 7.42398e-18  5.20981e-18        00000 
-1.03680e-18 -5.93302e-19        00000 
 1.27972e-19  8.28050e-20        00000 
-2.08609e-20 -1.62817e-20        00000 
 3.35246e-21  3.09734e-21        00000 
-5.23913e-22 -5.15622e-22        00000 
 8.34753e-23  7.95003e-23        00000 
-1.26069e-23 -1.40975e-23        00000 
 2.14126e-24  2.14126e-24        00000 
-3.42879e-25 -3.42879e-25        00000 
 5.62060e-26  5.81047e-26        00000 
-9.23300e-27 -9.66987e-27        00000 
 1.52217e-27  1.60925e-27        00000 
-2.51707e-28 -2.68119e-28        00000 
 4.17308e-29  4.47306e-29        00000 
-6.93442e-30 -7.47165e-30        00000 
 1.15545e-30  1.25037e-30        00000 
-1.97952e-31 -2.15020e-31        00000 
 6.43398e-32  7.00890e-32        00000 
 2.92124e-24  7.53396e-24        00000 
-9.16766e-24 -2.36348e-23        00000 
 5.48584e-23  1.41367e-22        00000 
-3.38393e-22 -8.71673e-22        00000 
 2.10118e-21  5.41099e-21        00000 
-1.31215e-20 -3.37963e-20        00000 
 8.20359e-20  2.11644e-19        00000 
-4.97453e-19 -1.29329e-18        00000 
 1.60775e-18  4.57122e-18        00000 
 7.50427e-02 -2.21074e-01        00000 
-7.50427e-02 -2.21074e-01        00000 
-4.68402e-18 -6.56838e-18        00000 
 7.43563e-19  1.17665e-18        00000 
-1.19723e-19 -1.47115e-19        00000 
 1.83669e-20  2.06563e-20        00000 
-2.95058e-21 -3.22239e-21        00000 
 4.68880e-22  5.35888e-22        00000 
-7.65080e-23 -8.70403e-23        00000 
 1.24626e-23  1.40391e-23        00000 
-2.01699e-24 -2.30825e-24        00000 
 3.32590e-25  3.72525e-25        00000 
-5.46280e-26 -6.06097e-26        00000 
 9.01055e-27  9.99972e-27        00000 
-1.49007e-27 -1.65517e-27        00000 
 2.46995e-28  2.74681e-28        00000 
-4.10287e-29 -4.56860e-29        00000 
 6.82839e-30  7.61341e-30        00000 
-1.13923e-30 -1.27179e-30        00000 
 1.95386e-31  2.18383e-31        00000 
-6.35586e-32 -7.11085e-32        00000 
-2.29002e-24 -6.19666e-24        00000 
 6.97634e-24  1.90195e-23        00000 
-4.00350e-23 -1.10392e-22        00000 
 2.33855e-22  6.55381e-22        00000 
-1.34411e-21 -3.86529e-21        00000 
 7.45593e-21  2.24480e-20        00000 
-3.79635e-20 -1.26057e-19        00000 
 1.47924e-19  6.59646e-19        00000 
-5.37755e-19 -4.75041e-18        00000 
 2.79494e-18  7.01984e-18        00000 
-5.68924e-18 -1.57399e-17        00000 
 1.58940e-18  4.23383e-18        00000 
-3.64144e-19 -6.92450e-19        00000 
 6.91652e-20  1.19189e-19        00000 
-1.23076e-20 -1.85749e-20        00000 
 2.09998e-21  2.89718e-21        00000 
-3.47329e-22 -4.81390e-22        00000 
 5.93624e-23  7.72801e-23        00000 
-1.00156e-23 -1.26059e-23        00000 
 1.67863e-24  2.06875e-24        00000 
-2.80263e-25 -3.41423e-25        00000 
 4.68803e-26  5.62717e-26        00000 
-7.83695e-27 -9.29705e-27        00000 
 1.31081e-27  1.54280e-27        00000 
-2.19394e-28 -2.56760e-28        00000 
 3.67487e-29  4.28254e-29        00000 
-6.16051e-30 -7.15595e-30        00000 
 1.03435e-30  1.19846e-30        00000 
-1.78436e-31 -2.06317e-31        00000 
 5.83185e-32  6.73274e-32        00000 
 1.54029e-24  4.42858e-24        00000 
-4.47843e-24 -1.31169e-23        00000 
 2.40753e-23  7.25360e-23        00000 
-1.29411e-22 -4.05945e-22        00000 
 6.63952e-22  2.21919e-21        00000 
-3.13588e-21 -1.16870e-20        00000 
 1.28352e-20  5.84591e-20        00000 
-4.87646e-20 -2.86422e-19        00000 
 1.95380e-19  7.16392e-19        00000 
-4.91432e-19 -1.43684e-18        00000 
 6.37265e-19  1.73537e-18        00000 
-3.92703e-19 -1.05777e-18        00000 
 1.17823e-19  2.92527e-19        00000 
-2.91841e-20 -5.99997e-20        00000 
 6.15264e-21  1.11695e-20        00000 
-1.18661e-21 -1.93604e-21        00000 
 2.26575e-22  3.29925e-22        00000 
-3.97830e-23 -5.62022e-23        00000 
 6.95732e-24  9.51557e-24        00000 
-1.20761e-24 -1.60766e-24        00000 
 2.08134e-25  2.71259e-25        00000 
-3.56797e-26 -4.57329e-26        00000 
 6.09713e-27  7.69797e-27        00000 
-1.03919e-27 -1.29511e-27        00000 
 1.76796e-28  2.17994e-28        00000 
-3.00390e-29 -3.67151e-29        00000 
 5.09931e-30  6.18750e-30        00000 
-8.65767e-31 -1.04416e-30        00000 
 1.50905e-31  1.81036e-31        00000 
-4.97365e-32 -5.94224e-32        00000 
-8.94084e-25 -2.75963e-24        00000 
 2.44680e-24  7.79045e-24        00000 
-1.20994e-23 -4.03765e-23        00000 
 5.87816e-23  2.09156e-22        00000 
-2.65951e-22 -1.03788e-21        00000 
 1.09140e-21  4.83260e-21        00000 
-4.13806e-21 -2.03578e-20        00000 
 1.49103e-20  6.08821e-20        00000 
-4.34532e-20 -1.32214e-19        00000 
 7.51635e-20  2.11270e-19        00000 
-8.41500e-20 -2.43325e-19        00000 
 6.88722e-20  1.69659e-19        00000 
-3.14119e-20 -7.90400e-20        00000 
 1.03032e-20  1.98433e-20        00000 
-2.40235e-21 -4.46924e-21        00000 
 5.43987e-22  8.58188e-22        00000 
-1.21331e-22 -1.73929e-22        00000 
 2.26420e-23  3.31348e-23        00000 
-4.17536e-24 -6.02468e-24        00000 
 7.58735e-25  1.07154e-24        00000 
-1.36124e-25 -1.88152e-25        00000 
 2.41649e-26  3.27610e-26        00000 
-4.25396e-27 -5.67031e-27        00000 
 7.44071e-28  9.76856e-28        00000 
-1.29486e-28 -1.67720e-28        00000 
 2.24431e-29  2.87295e-29        00000 
-3.87757e-30 -4.91315e-30        00000 
 6.68767e-31  8.39861e-31        00000 
-1.18290e-31 -1.47359e-31        00000 
 3.94552e-32  4.88380e-32        00000 
 4.51784e-25  1.50474e-24        00000 
-1.15307e-24 -4.00362e-24        00000 
 5.19300e-24  1.91500e-23        00000 
-2.27465e-23 -9.02100e-23        00000 
 9.22482e-23  3.96670e-22        00000 
-3.45840e-22 -1.56228e-21        00000 
 1.19627e-21  4.94800e-21        00000 
-3.55306e-21 -1.21034e-20        00000 
 8.26086e-21  2.27037e-20        00000 
-1.17034e-20 -3.34116e-20        00000 
 1.30248e-20  3.61148e-20        00000 
-1.06515e-20 -2.79211e-20        00000 
 6.17136e-21  1.52289e-20        00000 
-2.52582e-21 -5.80790e-21        00000 
 7.89853e-22  1.58281e-21        00000 
-2.01160e-22 -3.72228e-22        00000 
 4.66863e-23  8.00702e-23        00000 
-1.05222e-23 -1.63597e-23        00000 
 2.13328e-24  3.23129e-24        00000 
-4.14597e-25 -6.14975e-25        00000 
 7.84691e-26  1.14011e-25        00000 
-1.45683e-26 -2.07518e-26        00000 
 2.66488e-27  3.72720e-27        00000 
-4.81805e-28 -6.62779e-28        00000 
 8.63049e-29  1.16947e-28        00000 
-1.53443e-29 -2.05109e-29        00000 
 2.71159e-30  3.58053e-30        00000 
-4.77201e-31 -6.23250e-31        00000 
 8.60160e-32  1.11199e-31        00000 
-2.91345e-32 -3.73556e-32        00000 
-2.01056e-25 -7.20539e-25        00000 
 4.76904e-25  1.78850e-24        00000 
-1.95435e-24 -7.77723e-24        00000 
 7.79191e-24  3.27304e-23        00000 
-2.88684e-23 -1.24433e-22        00000 
 9.81675e-23  4.02654e-22        00000 
-2.94455e-22 -1.06394e-21        00000 
 7.32883e-22  2.25182e-21        00000 
-1.39919e-21 -3.68878e-21        00000 
 1.88238e-21  5.26487e-21        00000 
-2.02884e-21 -5.58851e-21        00000 
 1.70786e-21  4.52708e-21        00000 
-1.09909e-21 -2.77789e-21        00000 
 5.38095e-22  1.28561e-21        00000 
-2.04413e-22 -4.52795e-22        00000 
 6.30933e-23  1.27240e-22        00000 
-1.71421e-23 -2.98123e-23        00000 
 4.06258e-24  6.96825e-24        00000 
-9.24011e-25 -1.49772e-24        00000 
 1.96233e-25  3.07182e-25        00000 
-3.98025e-26 -6.07100e-26        00000 
 7.81809e-27  1.16629e-26        00000 
-1.49949e-27 -2.19277e-27        00000 
 2.82351e-28  4.05492e-28        00000 
-5.23951e-29 -7.40179e-29        00000 
 9.60893e-30  1.33723e-29        00000 
-1.74536e-30 -2.39593e-30        00000 
 3.14801e-31  4.26781e-31        00000 
-5.80667e-32 -7.77939e-32        00000 
 2.00391e-32  2.65889e-32        00000 
 7.98680e-26  3.04178e-25        00000 
-1.76253e-25 -6.98011e-25        00000 
 6.59221e-25  2.72035e-24        00000 
-2.40380e-24 -1.00722e-23        00000 
 8.12677e-24  3.29267e-23        00000 
-2.46560e-23 -9.16062e-23        00000 
 6.44040e-23  2.12174e-22        00000 
-1.37725e-22 -4.03823e-22        00000 
 2.30340e-22  6.67192e-22        00000 
-3.03121e-22 -8.36475e-22        00000 
 3.21586e-22  8.79907e-22        00000 
-2.76394e-22 -7.35752e-22        00000 
 1.90585e-22  4.88261e-22        00000 
-1.04927e-22 -2.56462e-22        00000 
 4.63877e-23  1.07083e-22        00000 
-1.68002e-23 -3.62045e-23        00000 
 4.65419e-24  1.06737e-23        00000 
-1.37785e-24 -2.59316e-24        00000 
 3.46290e-25  6.09791e-25        00000 
-8.09321e-26 -1.35278e-25        00000 
 1.77971e-26  2.86564e-26        00000 
-3.73814e-27 -5.84920e-27        00000 
 7.58524e-28  1.15913e-27        00000 
-1.49874e-28 -2.24370e-28        00000 
 2.89970e-29  4.26227e-29        00000 
-5.51601e-30 -7.97508e-30        00000 
 1.03488e-30  1.47390e-30        00000 
-1.92137e-31 -2.69899e-31        00000 
 3.64173e-32  5.04840e-32        00000 
-1.28470e-32 -1.76176e-32        00000 
-2.86835e-26 -1.13767e-25        00000 
 5.90027e-26  2.39665e-25        00000 
-2.01011e-25 -8.27384e-25        00000 
 6.59559e-25  2.66142e-24        00000 
-1.80775e-24 -6.90664e-24        00000 
 5.45889e-24  1.78655e-23        00000 
-1.29224e-23 -3.84493e-23        00000 
 2.72858e-23  7.28765e-23        00000 
-3.98986e-23 -1.07726e-22        00000 
 4.86489e-23  1.38004e-22        00000 
-5.35410e-23 -1.36344e-22        00000 
 4.17351e-23  1.13281e-22        00000 
-3.40346e-23 -8.12493e-23        00000 
 1.97978e-23  4.26194e-23        00000 
-1.06829e-23 -2.18626e-23        00000 
 4.22435e-24  8.19780e-24        00000 
-1.44949e-24 -2.86784e-24        00000 