<?xml version="1.0" encoding="utf-8"?>
<VTKFile byte_order="LittleEndian" type="UnstructuredGrid" version="0.1">
   <UnstructuredGrid>
      <Piece NumberOfCells="3364" NumberOfPoints="1741">
         <Points>
            <DataArray Name="Points" NumberOfComponents="3" format="ascii" type="Float32">
0.0000 1.0000 0.0000
0.0000 1.0345 0.0000
0.0000 1.0690 0.0000
0.0000 1.1034 0.0000
0.0000 1.1379 0.0000
0.0000 1.1724 0.0000
0.0000 1.2069 0.0000
0.0000 1.2414 0.0000
0.0000 1.2759 0.0000
0.0000 1.3103 0.0000
0.0000 1.3448 0.0000
0.0000 1.3793 0.0000
0.0000 1.4138 0.0000
0.0000 1.4483 0.0000
0.0000 1.4828 0.0000
0.0000 1.5172 0.0000
0.0000 1.5517 0.0000
0.0000 1.5862 0.0000
0.0000 1.6207 0.0000
0.0000 1.6552 0.0000
0.0000 1.6897 0.0000
0.0000 1.7241 0.0000
0.0000 1.7586 0.0000
0.0000 1.7931 0.0000
0.0000 1.8276 0.0000
0.0000 1.8621 0.0000
0.0000 1.8966 0.0000
0.0000 1.9310 0.0000
0.0000 1.9655 0.0000
0.0000 2.0000 0.0000
0.0690 1.0000 0.0000
0.0690 1.0345 0.0000
0.0690 1.0690 0.0000
0.0690 1.1034 0.0000
0.0690 1.1379 0.0000
0.0690 1.1724 0.0000
0.0690 1.2069 0.0000
0.0690 1.2414 0.0000
0.0690 1.2759 0.0000
0.0690 1.3103 0.0000
0.0690 1.3448 0.0000
0.0690 1.3793 0.0000
0.0690 1.4138 0.0000
0.0690 1.4483 0.0000
0.0690 1.4828 0.0000
0.0690 1.5172 0.0000
0.0690 1.5517 0.0000
0.0690 1.5862 0.0000
0.0690 1.6207 0.0000
0.0690 1.6552 0.0000
0.0690 1.6897 0.0000
0.0690 1.7241 0.0000
0.0690 1.7586 0.0000
0.0690 1.7931 0.0000
0.0690 1.8276 0.0000
0.0690 1.8621 0.0000
0.0690 1.8966 0.0000
0.0690 1.9310 0.0000
0.0690 1.9655 0.0000
0.0690 2.0000 0.0000
0.1379 1.0000 0.0000
0.1379 1.0345 0.0000
0.1379 1.0690 0.0000
0.1379 1.1034 0.0000
0.1379 1.1379 0.0000
0.1379 1.1724 0.0000
0.1379 1.2069 0.0000
0.1379 1.2414 0.0000
0.1379 1.2759 0.0000
0.1379 1.3103 0.0000
0.1379 1.3448 0.0000
0.1379 1.3793 0.0000
0.1379 1.4138 0.0000
0.1379 1.4483 0.0000
0.1379 1.4828 0.0000
0.1379 1.5172 0.0000
0.1379 1.5517 0.0000
0.1379 1.5862 0.0000
0.1379 1.6207 0.0000
0.1379 1.6552 0.0000
0.1379 1.6897 0.0000
0.1379 1.7241 0.0000
0.1379 1.7586 0.0000
0.1379 1.7931 0.0000
0.1379 1.8276 0.0000
0.1379 1.8621 0.0000
0.1379 1.8966 0.0000
0.1379 1.9310 0.0000
0.1379 1.9655 0.0000
0.1379 2.0000 0.0000
0.2069 1.0000 0.0000
0.2069 1.0345 0.0000
0.2069 1.0690 0.0000
0.2069 1.1034 0.0000
0.2069 1.1379 0.0000
0.2069 1.1724 0.0000
0.2069 1.2069 0.0000
0.2069 1.2414 0.0000
0.2069 1.2759 0.0000
0.2069 1.3103 0.0000
0.2069 1.3448 0.0000
0.2069 1.3793 0.0000
0.2069 1.4138 0.0000
0.2069 1.4483 0.0000
0.2069 1.4828 0.0000
0.2069 1.5172 0.0000
0.2069 1.5517 0.0000
0.2069 1.5862 0.0000
0.2069 1.6207 0.0000
0.2069 1.6552 0.0000
0.2069 1.6897 0.0000
0.2069 1.7241 0.0000
0.2069 1.7586 0.0000
0.2069 1.7931 0.0000
0.2069 1.8276 0.0000
0.2069 1.8621 0.0000
0.2069 1.8966 0.0000
0.2069 1.9310 0.0000
0.2069 1.9655 0.0000
0.2069 2.0000 0.0000
0.2759 1.0000 0.0000
0.2759 1.0345 0.0000
0.2759 1.0690 0.0000
0.2759 1.1034 0.0000
0.2759 1.1379 0.0000
0.2759 1.1724 0.0000
0.2759 1.2069 0.0000
0.2759 1.2414 0.0000
0.2759 1.2759 0.0000
0.2759 1.3103 0.0000
0.2759 1.3448 0.0000
0.2759 1.3793 0.0000
0.2759 1.4138 0.0000
0.2759 1.4483 0.0000
0.2759 1.4828 0.0000
0.2759 1.5172 0.0000
0.2759 1.5517 0.0000
0.2759 1.5862 0.0000
0.2759 1.6207 0.0000
0.2759 1.6552 0.0000
0.2759 1.6897 0.0000
0.2759 1.7241 0.0000
0.2759 1.7586 0.0000
0.2759 1.7931 0.0000
0.2759 1.8276 0.0000
0.2759 1.8621 0.0000
0.2759 1.8966 0.0000
0.2759 1.9310 0.0000
0.2759 1.9655 0.0000
0.2759 2.0000 0.0000
0.3448 1.0000 0.0000
0.3448 1.0345 0.0000
0.3448 1.0690 0.0000
0.3448 1.1034 0.0000
0.3448 1.1379 0.0000
0.3448 1.1724 0.0000
0.3448 1.2069 0.0000
0.3448 1.2414 0.0000
0.3448 1.2759 0.0000
0.3448 1.3103 0.0000
0.3448 1.3448 0.0000
0.3448 1.3793 0.0000
0.3448 1.4138 0.0000
0.3448 1.4483 0.0000
0.3448 1.4828 0.0000
0.3448 1.5172 0.0000
0.3448 1.5517 0.0000
0.3448 1.5862 0.0000
0.3448 1.6207 0.0000
0.3448 1.6552 0.0000
0.3448 1.6897 0.0000
0.3448 1.7241 0.0000
0.3448 1.7586 0.0000
0.3448 1.7931 0.0000
0.3448 1.8276 0.0000
0.3448 1.8621 0.0000
0.3448 1.8966 0.0000
0.3448 1.9310 0.0000
0.3448 1.9655 0.0000
0.3448 2.0000 0.0000
0.4138 1.0000 0.0000
0.4138 1.0345 0.0000
0.4138 1.0690 0.0000
0.4138 1.1034 0.0000
0.4138 1.1379 0.0000
0.4138 1.1724 0.0000
0.4138 1.2069 0.0000
0.4138 1.2414 0.0000
0.4138 1.2759 0.0000
0.4138 1.3103 0.0000
0.4138 1.3448 0.0000
0.4138 1.3793 0.0000
0.4138 1.4138 0.0000
0.4138 1.4483 0.0000
0.4138 1.4828 0.0000
0.4138 1.5172 0.0000
0.4138 1.5517 0.0000
0.4138 1.5862 0.0000
0.4138 1.6207 0.0000
0.4138 1.6552 0.0000
0.4138 1.6897 0.0000
0.4138 1.7241 0.0000
0.4138 1.7586 0.0000
0.4138 1.7931 0.0000
0.4138 1.8276 0.0000
0.4138 1.8621 0.0000
0.4138 1.8966 0.0000
0.4138 1.9310 0.0000
0.4138 1.9655 0.0000
0.4138 2.0000 0.0000
0.4828 1.0000 0.0000
0.4828 1.0345 0.0000
0.4828 1.0690 0.0000
0.4828 1.1034 0.0000
0.4828 1.1379 0.0000
0.4828 1.1724 0.0000
0.4828 1.2069 0.0000
0.4828 1.2414 0.0000
0.4828 1.2759 0.0000
0.4828 1.3103 0.0000
0.4828 1.3448 0.0000
0.4828 1.3793 0.0000
0.4828 1.4138 0.0000
0.4828 1.4483 0.0000
0.4828 1.4828 0.0000
0.4828 1.5172 0.0000
0.4828 1.5517 0.0000
0.4828 1.5862 0.0000
0.4828 1.6207 0.0000
0.4828 1.6552 0.0000
0.4828 1.6897 0.0000
0.4828 1.7241 0.0000
0.4828 1.7586 0.0000
0.4828 1.7931 0.0000
0.4828 1.8276 0.0000
0.4828 1.8621 0.0000
0.4828 1.8966 0.0000
0.4828 1.9310 0.0000
0.4828 1.9655 0.0000
0.4828 2.0000 0.0000
0.5517 1.0000 0.0000
0.5517 1.0345 0.0000
0.5517 1.0690 0.0000
0.5517 1.1034 0.0000
0.5517 1.1379 0.0000
0.5517 1.1724 0.0000
0.5517 1.2069 0.0000
0.5517 1.2414 0.0000
0.5517 1.2759 0.0000
0.5517 1.3103 0.0000
0.5517 1.3448 0.0000
0.5517 1.3793 0.0000
0.5517 1.4138 0.0000
0.5517 1.4483 0.0000
0.5517 1.4828 0.0000
0.5517 1.5172 0.0000
0.5517 1.5517 0.0000
0.5517 1.5862 0.0000
0.5517 1.6207 0.0000
0.5517 1.6552 0.0000
0.5517 1.6897 0.0000
0.5517 1.7241 0.0000
0.5517 1.7586 0.0000
0.5517 1.7931 0.0000
0.5517 1.8276 0.0000
0.5517 1.8621 0.0000
0.5517 1.8966 0.0000
0.5517 1.9310 0.0000
0.5517 1.9655 0.0000
0.5517 2.0000 0.0000
0.6207 1.0000 0.0000
0.6207 1.0345 0.0000
0.6207 1.0690 0.0000
0.6207 1.1034 0.0000
0.6207 1.1379 0.0000
0.6207 1.1724 0.0000
0.6207 1.2069 0.0000
0.6207 1.2414 0.0000
0.6207 1.2759 0.0000
0.6207 1.3103 0.0000
0.6207 1.3448 0.0000
0.6207 1.3793 0.0000
0.6207 1.4138 0.0000
0.6207 1.4483 0.0000
0.6207 1.4828 0.0000
0.6207 1.5172 0.0000
0.6207 1.5517 0.0000
0.6207 1.5862 0.0000
0.6207 1.6207 0.0000
0.6207 1.6552 0.0000
0.6207 1.6897 0.0000
0.6207 1.7241 0.0000
0.6207 1.7586 0.0000
0.6207 1.7931 0.0000
0.6207 1.8276 0.0000
0.6207 1.8621 0.0000
0.6207 1.8966 0.0000
0.6207 1.9310 0.0000
0.6207 1.9655 0.0000
0.6207 2.0000 0.0000
0.6897 1.0000 0.0000
0.6897 1.0345 0.0000
0.6897 1.0690 0.0000
0.6897 1.1034 0.0000
0.6897 1.1379 0.0000
0.6897 1.1724 0.0000
0.6897 1.2069 0.0000
0.6897 1.2414 0.0000
0.6897 1.2759 0.0000
0.6897 1.3103 0.0000
0.6897 1.3448 0.0000
0.6897 1.3793 0.0000
0.6897 1.4138 0.0000
0.6897 1.4483 0.0000
0.6897 1.4828 0.0000
0.6897 1.5172 0.0000
0.6897 1.5517 0.0000
0.6897 1.5862 0.0000
0.6897 1.6207 0.0000
0.6897 1.6552 0.0000
0.6897 1.6897 0.0000
0.6897 1.7241 0.0000
0.6897 1.7586 0.0000
0.6897 1.7931 0.0000
0.6897 1.8276 0.0000
0.6897 1.8621 0.0000
0.6897 1.8966 0.0000
0.6897 1.9310 0.0000
0.6897 1.9655 0.0000
0.6897 2.0000 0.0000
0.7586 1.0000 0.0000
0.7586 1.0345 0.0000
0.7586 1.0690 0.0000
0.7586 1.1034 0.0000
0.7586 1.1379 0.0000
0.7586 1.1724 0.0000
0.7586 1.2069 0.0000
0.7586 1.2414 0.0000
0.7586 1.2759 0.0000
0.7586 1.3103 0.0000
0.7586 1.3448 0.0000
0.7586 1.3793 0.0000
0.7586 1.4138 0.0000
0.7586 1.4483 0.0000
0.7586 1.4828 0.0000
0.7586 1.5172 0.0000
0.7586 1.5517 0.0000
0.7586 1.5862 0.0000
0.7586 1.6207 0.0000
0.7586 1.6552 0.0000
0.7586 1.6897 0.0000
0.7586 1.7241 0.0000
0.7586 1.7586 0.0000
0.7586 1.7931 0.0000
0.7586 1.8276 0.0000
0.7586 1.8621 0.0000
0.7586 1.8966 0.0000
0.7586 1.9310 0.0000
0.7586 1.9655 0.0000
0.7586 2.0000 0.0000
0.8276 1.0000 0.0000
0.8276 1.0345 0.0000
0.8276 1.0690 0.0000
0.8276 1.1034 0.0000
0.8276 1.1379 0.0000
0.8276 1.1724 0.0000
0.8276 1.2069 0.0000
0.8276 1.2414 0.0000
0.8276 1.2759 0.0000
0.8276 1.3103 0.0000
0.8276 1.3448 0.0000
0.8276 1.3793 0.0000
0.8276 1.4138 0.0000
0.8276 1.4483 0.0000
0.8276 1.4828 0.0000
0.8276 1.5172 0.0000
0.8276 1.5517 0.0000
0.8276 1.5862 0.0000
0.8276 1.6207 0.0000
0.8276 1.6552 0.0000
0.8276 1.6897 0.0000
0.8276 1.7241 0.0000
0.8276 1.7586 0.0000
0.8276 1.7931 0.0000
0.8276 1.8276 0.0000
0.8276 1.8621 0.0000
0.8276 1.8966 0.0000
0.8276 1.9310 0.0000
0.8276 1.9655 0.0000
0.8276 2.0000 0.0000
0.8966 1.0000 0.0000
0.8966 1.0345 0.0000
0.8966 1.0690 0.0000
0.8966 1.1034 0.0000
0.8966 1.1379 0.0000
0.8966 1.1724 0.0000
0.8966 1.2069 0.0000
0.8966 1.2414 0.0000
0.8966 1.2759 0.0000
0.8966 1.3103 0.0000
0.8966 1.3448 0.0000
0.8966 1.3793 0.0000
0.8966 1.4138 0.0000
0.8966 1.4483 0.0000
0.8966 1.4828 0.0000
0.8966 1.5172 0.0000
0.8966 1.5517 0.0000
0.8966 1.5862 0.0000
0.8966 1.6207 0.0000
0.8966 1.6552 0.0000
0.8966 1.6897 0.0000
0.8966 1.7241 0.0000
0.8966 1.7586 0.0000
0.8966 1.7931 0.0000
0.8966 1.8276 0.0000
0.8966 1.8621 0.0000
0.8966 1.8966 0.0000
0.8966 1.9310 0.0000
0.8966 1.9655 0.0000
0.8966 2.0000 0.0000
0.9655 1.0000 0.0000
0.9655 1.0345 0.0000
0.9655 1.0690 0.0000
0.9655 1.1034 0.0000
0.9655 1.1379 0.0000
0.9655 1.1724 0.0000
0.9655 1.2069 0.0000
0.9655 1.2414 0.0000
0.9655 1.2759 0.0000
0.9655 1.3103 0.0000
0.9655 1.3448 0.0000
0.9655 1.3793 0.0000
0.9655 1.4138 0.0000
0.9655 1.4483 0.0000
0.9655 1.4828 0.0000
0.9655 1.5172 0.0000
0.9655 1.5517 0.0000
0.9655 1.5862 0.0000
0.9655 1.6207 0.0000
0.9655 1.6552 0.0000
0.9655 1.6897 0.0000
0.9655 1.7241 0.0000
0.9655 1.7586 0.0000
0.9655 1.7931 0.0000
0.9655 1.8276 0.0000
0.9655 1.8621 0.0000
0.9655 1.8966 0.0000
0.9655 1.9310 0.0000
0.9655 1.9655 0.0000
0.9655 2.0000 0.0000
1.0345 1.0000 0.0000
1.0345 1.0345 0.0000
1.0345 1.0690 0.0000
1.0345 1.1034 0.0000
1.0345 1.1379 0.0000
1.0345 1.1724 0.0000
1.0345 1.2069 0.0000
1.0345 1.2414 0.0000
1.0345 1.2759 0.0000
1.0345 1.3103 0.0000
1.0345 1.3448 0.0000
[...]
         <PointData>
            <DataArray Name="fValues" NumberOfComponents="3" format="ascii" type="Float64">
 2.45595e-37  2.15534e-35        00000 
-6.80358e-37 -6.02787e-35        00000 
 3.46028e-36  3.13356e-34        00000 
-1.77232e-35 -1.66582e-33        00000 
 8.80484e-35  8.77627e-33        00000 
-4.19180e-34 -4.57025e-32        00000 
 1.87792e-33  2.34776e-31        00000 
-7.65298e-33 -1.18690e-30        00000 
 2.62263e-32  5.88752e-30        00000 
-5.62973e-32 -2.85505e-29        00000 
-1.33556e-31  1.34725e-28        00000 
 2.63950e-30 -6.15028e-28        00000 
-2.02010e-29  2.69628e-27        00000 
 1.07537e-28 -1.12487e-26        00000 
-3.70974e-28  4.41823e-26        00000 
 9.20216e-29 -1.61518e-25        00000 
 9.13092e-27  5.43562e-25        00000 
-6.45567e-26 -1.65912e-24        00000 
 2.35484e-25  4.50183e-24        00000 
-5.06734e-25 -1.06365e-23        00000 
 5.60893e-25  2.20518e-23        00000 
 4.38103e-26 -3.60822e-23        00000 
 5.02402e-27  5.67718e-23        00000 
 5.22702e-25 -7.09620e-23        00000 
-1.30601e-24  7.52742e-23        00000 
 1.98869e-24 -6.72786e-23        00000 
-2.23042e-24  5.07863e-23        00000 
 1.95689e-24 -3.29380e-23        00000 
-1.49564e-24  2.00423e-23        00000 
 1.27987e-24 -1.54476e-23        00000 
-2.71401e-37 -2.37104e-35        00000 
 7.67403e-37  6.68846e-35        00000 
-4.01294e-36 -3.51513e-34        00000 
 2.12471e-35  1.89098e-33        00000 
-1.10109e-34 -1.00983e-32        00000 
 5.54309e-34  5.34119e-32        00000 
-2.68382e-33 -2.79360e-31        00000 
 1.22968e-32  1.44213e-30        00000 
-5.17601e-32 -7.33061e-30        00000 
 1.87400e-31  3.65846e-29        00000 
-4.68931e-31 -1.78595e-28        00000 
-4.11842e-31  8.48790e-28        00000 
 1.62636e-29 -3.90321e-27        00000 
-1.39699e-28  1.72289e-26        00000 
 8.18688e-28 -7.22427e-26        00000 
-3.21700e-27  2.84072e-25        00000 
 2.79555e-27 -1.03312e-24        00000 
 7.21763e-26  3.43892e-24        00000 
-5.17622e-25 -1.02714e-23        00000 
 1.61807e-24  2.67483e-23        00000 
-2.54414e-24 -5.85889e-23        00000 
 6.83230e-25  1.18080e-22        00000 
-6.54402e-25 -1.72623e-22        00000 
-1.35519e-24  2.24436e-22        00000 
 3.96088e-24 -2.39928e-22        00000 
-6.49579e-24  2.11307e-22        00000 
 7.35277e-24 -1.53298e-22        00000 
-6.07894e-24  9.28899e-23        00000 
 4.15972e-24 -5.12259e-23        00000 
-3.30376e-24  3.68651e-23        00000 
 3.39173e-37  3.00329e-35        00000 
-9.99686e-37 -8.63109e-35        00000 
 5.51347e-36  4.64199e-34        00000 
-3.09826e-35 -2.55913e-33        00000 
 1.72240e-34  1.40440e-32        00000 
-9.43485e-34 -7.65793e-32        00000 
 5.06925e-33  4.14456e-31        00000 
-2.65348e-32 -2.22336e-30        00000 
 1.33874e-31  1.18025e-29        00000 
-6.39204e-31 -6.18629e-29        00000 
 2.78828e-30  3.19275e-28        00000 
-1.02135e-29 -1.61649e-27        00000 
 2.24561e-29  7.98919e-27        00000 
 7.97078e-29 -3.82833e-26        00000 
-1.49845e-27  1.76186e-25        00000 
 1.21917e-26 -7.68407e-25        00000 
-6.55416e-26  3.11950e-24        00000 
 1.55646e-25 -1.15662e-23        00000 
 9.94387e-25  3.90652e-23        00000 
-8.23754e-24 -1.16228e-22        00000 
 1.99030e-23  2.91885e-22        00000 
-1.70052e-23 -5.60011e-22        00000 
 4.76887e-24  1.00604e-21        00000 
 6.31931e-24 -1.35572e-21        00000 
-2.11161e-23  1.46764e-21        00000 
 4.15276e-23 -1.26672e-21        00000 
-4.75696e-23  8.68438e-22        00000 
 3.56550e-23 -4.78552e-22        00000 
-2.06661e-23  2.29625e-22        00000 
 1.44916e-23 -1.48545e-22        00000 
-4.20403e-37 -4.00320e-35        00000 
 1.28984e-36  1.17212e-34        00000 
-7.46669e-36 -6.44791e-34        00000 
 4.41491e-35  3.63901e-33        00000 
-2.59625e-34 -2.04848e-32        00000 
 1.51460e-33  1.14846e-31        00000 
-8.74322e-33 -6.40762e-31        00000 
 4.97628e-32  3.55426e-30        00000 
-2.77781e-31 -1.95767e-29        00000 
 1.50845e-30  1.06901e-28        00000 
-7.86325e-30 -5.77533e-28        00000 
 3.84179e-29  3.07846e-27        00000 
-1.67409e-28 -1.61308e-26        00000 
 5.67162e-28  8.26734e-26        00000 
-5.32787e-28 -4.11501e-25        00000 
-1.40524e-26  1.96837e-24        00000 
 1.69668e-25 -8.90228e-24        00000 
-1.20947e-24  3.71147e-23        00000 
 4.28635e-24 -1.38169e-22        00000 
 1.87357e-23  4.74053e-22        00000 
-1.49373e-22 -1.38386e-21        00000 
 1.81926e-22  3.31653e-21        00000 
 2.95372e-23 -5.94756e-21        00000 
-1.13319e-23  8.43821e-21        00000 
 8.60284e-23 -9.32755e-21        00000 
-2.96396e-22  7.83998e-21        00000 
 3.22277e-22 -4.97272e-21        00000 
-2.09353e-22  2.42950e-21        00000 
 9.72140e-23 -9.81301e-22        00000 
-5.68730e-23  5.50989e-22        00000 
 4.70677e-37  5.27812e-35        00000 
-1.49642e-36 -1.56899e-34        00000 
 9.02579e-36  8.78867e-34        00000 
-5.56322e-35 -5.05321e-33        00000 
 3.41983e-34  2.90214e-32        00000 
-2.09345e-33 -1.66281e-31        00000 
 1.27458e-32  9.49966e-31        00000 
-7.70536e-32 -5.40806e-30        00000 
 4.61445e-31  3.06545e-29        00000 
-2.72801e-30 -1.72829e-28        00000 
 1.58365e-29  9.67895e-28        00000 
-8.94882e-29 -5.37467e-27        00000 
 4.84673e-28  2.95216e-26        00000 
-2.44204e-27 -1.59863e-25        00000 
 1.07468e-26  8.49601e-25        00000 
-3.32212e-26 -4.40179e-24        00000 
-4.09610e-26  2.20013e-23        00000 
 1.95605e-24 -1.04120e-22        00000 
-2.16176e-23  4.49512e-22        00000 
 1.19950e-22 -1.63734e-21        00000 
 4.58571e-22  5.94184e-21        00000 
-2.91889e-21 -1.63857e-20        00000 
-2.91068e-21  3.53905e-20        00000 
-1.71401e-21 -5.19276e-20        00000 
-5.74517e-22  6.12888e-20        00000 
 2.26823e-21 -4.85522e-20        00000 
-2.21975e-21  2.76562e-20        00000 
 1.13219e-21 -1.13505e-20        00000 
-3.99240e-22  3.70549e-21        00000 
 1.67396e-22 -1.66759e-21        00000 
-4.38404e-37 -6.68546e-35        00000 
 1.44799e-36  2.01040e-34        00000 
-9.10575e-36 -1.14169e-33        00000 
 5.84330e-35  6.65783e-33        00000 
-3.74323e-34 -3.88246e-32        00000 
 2.39230e-33  2.26169e-31        00000 
-1.52501e-32 -1.31578e-30        00000 
 9.69311e-32  7.64200e-30        00000 
-6.13958e-31 -4.42911e-29        00000 
 3.87171e-30  2.56018e-28        00000 
-2.42730e-29 -1.47488e-27        00000 
 1.50918e-28  8.45984e-27        00000 
-9.26434e-28 -4.82521e-26        00000 
 5.56360e-27  2.73150e-25        00000 
-3.20260e-26 -1.53040e-24        00000 
 1.72388e-25  8.45752e-24        00000 
-8.11059e-25 -4.58525e-23        00000 
 2.46711e-24  2.41942e-22        00000 
 1.03228e-23 -1.22129e-21        00000 
-3.52255e-22  5.63138e-21        00000 
 3.70023e-21 -1.81087e-20        00000 
 4.08383e-21  8.73160e-20        00000 
-3.64236e-21 -2.11306e-19        00000 
-1.65897e-21  3.45301e-19        00000 
-5.10942e-22 -3.92820e-19        00000 
-2.21269e-20  3.10325e-19        00000 
 1.31780e-20 -1.38121e-19        00000 
-5.71905e-21  4.77859e-20        00000 
 1.00889e-21 -1.05855e-20        00000 
-3.82077e-22  3.81746e-21        00000 
 2.80498e-37  8.03965e-35        00000 
-9.94079e-37 -2.43809e-34        00000 
 6.69736e-36  1.39855e-33        00000 
-4.56298e-35 -8.24089e-33        00000 
 3.09037e-34  4.85999e-32        00000 
-2.08284e-33 -2.86617e-31        00000 
 1.39862e-32  1.69014e-30        00000 
-9.36615e-32 -9.96432e-30        00000 
 6.26048e-31  5.87230e-29        00000 
-4.17983e-30 -3.45874e-28        00000 
 2.78944e-29  2.03548e-27        00000 
-1.86208e-28 -1.19648e-26        00000 
 1.24449e-27  7.02174e-26        00000 
-8.33504e-27 -4.11158e-25        00000 
 5.58458e-26  2.39953e-24        00000 
-3.63642e-25 -1.39187e-23        00000 
 2.32134e-24  8.01535e-23        00000 
-1.44291e-23 -4.56322e-22        00000 
 8.24935e-23  2.56754e-21        00000 
-3.96263e-22 -1.42175e-20        00000 
-3.51411e-21  7.83500e-20        00000 
-3.29069e-20 -3.22775e-19        00000 
 4.87776e-20  1.18802e-18        00000 
 3.21372e-20 -2.21344e-18        00000 
-3.92038e-20  2.64475e-18        00000 
 1.31532e-19 -1.75417e-18        00000 
-9.28575e-20  6.18454e-19        00000 
 9.32217e-21 -1.24013e-19        00000 
-1.86185e-21  2.18447e-20        00000 
 9.02802e-22 -5.05569e-21        00000 
 1.88285e-38 -9.13711e-35        00000 
 7.12590e-38  2.78669e-34        00000 
-1.31467e-36 -1.60940e-33        00000 
 1.34854e-35  9.55037e-33        00000 
-1.17585e-34 -5.67559e-32        00000 
 9.48048e-34  3.37543e-31        00000 
-7.30656e-33 -2.00900e-30        00000 
 5.47389e-32  1.19668e-29        00000 
-4.02598e-31 -7.13412e-29        00000 
 2.92586e-30  4.25675e-28        00000 
-2.11098e-29 -2.54218e-27        00000 
 1.51785e-28  1.51963e-26        00000 
-1.09183e-27 -9.09278e-26        00000 
 7.90037e-27  5.44675e-25        00000 
-5.82284e-26 -3.26771e-24        00000 
 4.53369e-25  1.96557e-23        00000 
-3.27477e-24 -1.17739e-22        00000 
 2.41474e-23  7.06579e-22        00000 
-1.87393e-22 -4.19971e-21        00000 
 1.45993e-21  2.51216e-20        00000 
-1.92664e-20 -1.51220e-19        00000 
 8.76430e-20  7.66015e-19        00000 
-6.14310e-19 -5.43248e-18        00000 
-5.14588e-19  1.54376e-17        00000 
-3.74128e-19 -1.97150e-17        00000 
-1.73801e-18  1.02120e-17        00000 
 2.59969e-19 -1.29984e-18        00000 
-6.14916e-21  1.14284e-19        00000 
 3.51258e-21 -1.96780e-20        00000 
-1.52173e-21  6.01819e-21        00000 
-4.34562e-37  9.79596e-35        00000 
 1.24613e-36 -2.99693e-34        00000 
-6.63563e-36  1.73727e-33        00000 
 3.58037e-35 -1.03492e-32        00000 
-1.88957e-34  6.17640e-32        00000 
 9.63527e-34 -3.69044e-31        00000 
-4.64781e-33  2.20786e-30        00000 
 2.02479e-32 -1.32273e-29        00000 
-6.93323e-32  7.93665e-29        00000 
 5.51398e-32 -4.77024e-28        00000 
 2.19884e-30  2.87250e-27        00000 
-3.11329e-29 -1.73334e-26        00000 
 3.14848e-28  1.04835e-25        00000 
-2.79590e-27 -6.35672e-25        00000 
 2.29029e-26  3.86538e-24        00000 
-1.75586e-25 -2.35998e-23        00000 
 2.54979e-24  1.46891e-22        00000 
-1.77815e-23 -8.96296e-22        00000 
 1.43006e-22  5.64949e-21        00000 
-1.39938e-21 -3.39312e-20        00000 
 1.66788e-21  2.09702e-19        00000 
-1.60602e-20 -1.47053e-18        00000 
 1.04198e-18  5.21835e-18        00000 
-7.50427e-02 -2.21074e-01        00000 
 7.50427e-02 -2.21074e-01        00000 
 2.05835e-18 -1.13209e-17        00000 
-3.22441e-19  6.44883e-19        00000 
 4.87994e-20 -1.05732e-19        00000 
-8.74804e-21  1.38904e-20        00000 
 2.76637e-21 -4.10786e-21        00000 
 9.01142e-37 -9.89883e-35        00000 
-2.74290e-36  3.03020e-34        00000 
 1.58027e-35 -1.75780e-33        00000 
-9.35356e-35  1.04793e-32        00000 
 5.54314e-34 -6.25922e-32        00000 
-3.28668e-33  3.74337e-31        00000 
 1.94978e-32 -2.24187e-30        00000 
-1.15734e-31  1.34470e-29        00000 
 6.87398e-31 -8.07960e-29        00000 
-4.08579e-30  4.86396e-28        00000 
 2.43081e-29 -2.93448e-27        00000 
-1.44817e-28  1.77473e-26        00000 
 8.64942e-28 -1.07628e-25        00000 
-5.19943e-27  6.54649e-25        00000 
 3.20075e-26 -3.99347e-24        00000 
-2.23994e-25  2.43823e-23        00000 
 3.98872e-24 -1.46205e-22        00000 
-6.40089e-24  9.41068e-22        00000 
 6.70050e-23 -5.93335e-21        00000 
-9.41973e-22  3.84658e-20        00000 
 8.80933e-21 -2.57828e-19        00000 
-6.44498e-20  1.77512e-18        00000 
 1.22846e-18 -1.72051e-17        00000 
 7.50427e-02 -2.21074e-01        00000 
-7.50427e-02 -2.21074e-01        00000 
-3.15435e-18 -1.44234e-17        00000 
 5.23737e-19  2.45283e-19        00000 
-9.81705e-20  2.85066e-21        00000 
 1.27482e-20 -2.71089e-21        00000 
-3.45053e-21  1.32208e-21        00000 
-1.32940e-36  9.42331e-35        00000 
 4.12010e-36 -2.87910e-34        00000 
-2.42613e-35  1.66630e-33        00000 
 1.46956e-34 -9.90989e-33        00000 
-8.93389e-34  5.90353e-32        00000 
 5.44939e-33 -3.52047e-31        00000 
-3.33668e-32  2.10168e-30        00000 
 2.05207e-31 -1.25621e-29        00000 
-1.26849e-30  7.51864e-29        00000 
 7.88784e-30 -4.50682e-28        00000 
-4.93864e-29  2.70607e-27        00000 
 3.11636e-28 -1.62798e-26        00000 
-1.98303e-27  9.81614e-26        00000 
 1.27089e-26 -5.93498e-25        00000 
-8.12479e-26  3.60127e-24        00000 
 4.86806e-25 -2.19811e-23        00000 
-9.93788e-26  1.36786e-22        00000 
 2.23901e-23 -7.90525e-22        00000 
-1.73477e-22  4.88397e-21        00000 
 1.31322e-21 -3.06353e-20        00000 
-1.04323e-20  2.00151e-19        00000 
 3.26633e-20 -1.07649e-18        00000 
-3.30065e-19  4.05530e-18        00000 
 1.56804e-18 -2.29582e-18        00000 
-1.36844e-20  2.51734e-18        00000 
 1.03582e-18  4.96044e-18        00000 
-2.26186e-19 -9.54010e-19        00000 
 6.51018e-20  6.15150e-20        00000 
-8.24734e-21 -3.63528e-21        00000 
 3.04933e-21  1.27569e-21        00000 
 1.63456e-36 -8.44780e-35        00000 
-5.09282e-36  2.56957e-34        00000 
 3.01714e-35 -1.47919e-33        00000 
-1.83845e-34  8.74762e-33        00000 
 1.12442e-33 -5.17905e-32        00000 
-6.90066e-33  3.06746e-31        00000 
 4.25114e-32 -1.81746e-30        00000 
-2.63016e-31  1.07721e-29        00000 
 1.63518e-30 -6.38680e-29        00000 
-1.02221e-29  3.78787e-28        00000 
 6.43034e-29 -2.24709e-27        00000 
-4.07423e-28  1.33333e-26        00000 
 2.60293e-27 -7.91291e-26        00000 
-1.67963e-26  4.69721e-25        00000 
 1.09921e-25 -2.79012e-24        00000 
-7.46063e-25  1.66125e-23        00000 
 7.19856e-24 -9.97175e-23        00000 
-2.36767e-23  5.25453e-22        00000 
 1.41423e-22 -2.98088e-21        00000 
-7.97219e-22  1.61388e-20        00000 
 3.06246e-21 -7.17655e-20        00000 
-2.26304e-20  2.74680e-19        00000 
 9.46301e-20 -4.70805e-19        00000 
-1.44918e-19  4.50335e-19        00000 
 1.58509e-19 -1.57722e-19        00000 
-1.16621e-19 -2.91283e-19        00000 
 6.67533e-20  2.42000e-19        00000 
-1.84556e-20 -6.25800e-20        00000 
 4.78851e-21  8.17440e-21        00000 
-1.65607e-21 -1.95794e-21        00000 
-1.76338e-36  7.12962e-35        00000 
 5.48530e-36 -2.15340e-34        00000 
-3.24221e-35  1.22912e-33        00000 
 1.96995e-34 -7.20410e-33        00000 
-1.20049e-33  4.22351e-32        00000 
 7.33376e-33 -2.47445e-31        00000 
-4.49200e-32  1.44845e-30        00000 
 2.75921e-31 -8.46924e-30        00000 
-1.70003e-30  4.94500e-29        00000 
 1.05088e-29 -2.88199e-28        00000 
-6.51922e-29  1.67565e-27        00000 
 4.06015e-28 -9.71207e-27        00000 
-2.54047e-27  5.60533e-26        00000 
 1.60012e-26 -3.21588e-25        00000 
-1.02055e-25  1.82804e-24        00000 
 6.69948e-25 -1.02041e-23        00000 
-3.67661e-24  5.35492e-23        00000 
 2.83698e-23 -2.85401e-22        00000 
-8.69316e-23  1.32532e-21        00000 
 4.33263e-22 -6.00637e-21        00000 
-1.72869e-21  2.27502e-20        00000 
 8.20624e-21 -4.97471e-20        00000 
-1.43013e-20  7.52298e-20        00000 
 1.69008e-20 -4.94098e-20        00000 
-2.34827e-20  1.40068e-20        00000 
 1.93056e-20  2.53382e-20        00000 
-1.16755e-20 -3.36656e-20        00000 
 5.32156e-21  1.89778e-20        00000 
-1.57635e-21 -4.61684e-21        00000 
 7.34932e-22  1.53450e-21        00000 
 1.70878e-36 -5.66311e-35        00000 
-5.28058e-36  1.69402e-34        00000 
 3.09560e-35 -9.55670e-34        00000 
-1.86386e-34  5.53281e-33        00000 
 1.12404e-33 -3.20000e-32        00000 
-6.78429e-33  1.84678e-31        00000 
 4.09745e-32 -1.06299e-30        00000 
-2.47577e-31  6.09878e-30        00000 
 1.49604e-30 -3.48516e-29        00000 
-9.03623e-30  1.98168e-28        00000 
 5.45120e-29 -1.11965e-27        00000 
-3.28021e-28  6.27395e-27        00000 
 1.96445e-27 -3.47697e-26        00000 
-1.16522e-26  1.89766e-25        00000 
 6.74577e-26 -1.01328e-24        00000 
-3.56384e-25  5.25478e-24        00000 
 1.62039e-24 -2.77058e-23        00000 
-8.65795e-24  1.13240e-22        00000 
 3.62548e-23 -4.73341e-22        00000 
-1.46193e-22  1.70122e-21        00000 
 5.61017e-22 -4.44817e-21        00000 
-1.39738e-21  8.28411e-21        00000 
 2.28698e-21 -1.02942e-20        00000 
-3.01763e-21  8.12098e-21        00000 
 3.22333e-21 -6.70391e-21        00000 
-3.04885e-21 -2.56458e-21        00000 
 2.41597e-21  4.88502e-21        00000 
-1.19457e-21 -3.80865e-21        00000 
 4.49840e-22  1.43457e-21        00000 
-2.41930e-22 -6.82478e-22        00000 
-1.50661e-36  4.23272e-35        00000 
 4.60643e-36 -1.25067e-34        00000 
-2.66512e-35  6.95095e-34        00000 
 1.58201e-34 -3.96139e-33        00000 
-9.38863e-34  2.25171e-32        00000 
 5.56402e-33 -1.27464e-31        00000 
-3.29081e-32  7.17973e-31        00000 
 1.94088e-31 -4.01991e-30        00000 
-1.14024e-30  2.23420e-29        00000 
 6.66215e-30 -1.23039e-28        00000 
-3.86239e-29  6.69772e-28        00000 
 2.21403e-28 -3.59178e-27        00000 
-1.24754e-27  1.88854e-26        00000 
 6.83949e-27 -9.67037e-26        00000 
-3.58937e-26  4.77800e-25        00000 
 1.84055e-25 -2.24859e-24        00000 
-1.08048e-24  8.93529e-24        00000 
 3.11007e-24 -3.81933e-23        00000 
-1.20237e-23  1.33630e-22        00000 
 4.27795e-23 -3.76766e-22        00000 
-1.19133e-22  8.15721e-22        00000 
 2.43414e-22 -1.31598e-21        00000 
-3.82128e-22  1.54819e-21        00000 
 4.88167e-22 -1.39948e-21        00000 
-5.28895e-22  9.87833e-22        00000 
 4.95269e-22  8.80660e-23        00000 
-3.84712e-22 -6.32006e-22        00000 
 2.28933e-22  5.77454e-22        00000 
-1.08340e-22 -3.28151e-22        00000 
 6.77215e-23  2.06047e-22        00000 
 1.21825e-36 -2.97657e-35        00000 
-3.67203e-36  8.66476e-35        00000 
 2.08763e-35 -4.72878e-34        00000 
-1.21616e-34  2.64378e-33        00000 
 7.06723e-34 -1.47129e-32        00000 
-4.08992e-33  8.13466e-32        00000 
 2.35448e-32 -4.46261e-31        00000 
-1.34633e-31  2.42519e-30        00000 
 7.63189e-31 -1.30288e-29        00000 
-4.27732e-30  6.90054e-29        00000 
 2.36136e-29 -3.59001e-28        00000 
-1.27755e-28  1.82556e-27        00000 
 6.72805e-28 -9.01196e-27        00000 
-3.42693e-27  4.27721e-26        00000 
 1.69700e-26 -1.92196e-25        00000 
-8.29163e-26  7.89551e-25        00000 
 3.37365e-25 -3.13440e-24        00000 
-9.90775e-25  1.08571e-23        00000 
 3.36358e-24 -3.19084e-23        00000 
-9.80508e-24  7.59001e-23        00000 
 2.28797e-23 -1.43096e-22        00000 
-4.21729e-23  2.10940e-22        00000 
 6.31059e-23 -2.44044e-22        00000 
-7.90598e-23  2.25680e-22        00000 
 7.98420e-23 -1.77917e-22        00000 
-8.00042e-23  1.48656e-23        00000 
 6.34741e-23  7.48836e-23        00000 
-4.12147e-23 -8.69599e-23        00000 
 2.31747e-23  6.26980e-23        00000 
-1.64750e-23 -4.86068e-23        00000 
-9.08307e-37  1.96950e-35        00000 
 2.69015e-36 -5.63355e-35        00000 
-1.49685e-35  3.00923e-34        00000 
 8.52226e-35 -1.64488e-33        00000 
-4.82732e-34  8.92878e-33        00000 
 2.71453e-33 -4.80177e-32        00000 
-1.51279e-32  2.55375e-31        00000 
 8.33700e-32 -1.34015e-30        00000 
-4.53074e-31  6.91958e-30        00000 
 2.41916e-30 -3.50231e-29        00000 
-1.26314e-29  1.72931e-28        00000 
 6.41220e-29 -8.27654e-28        00000 
-3.14441e-28  3.80677e-27        00000 
 1.48017e-27 -1.66321e-26        00000 
-6.57345e-27  6.80387e-26        00000 
 2.51637e-26 -2.63229e-25        00000 
-7.15996e-26  9.49466e-25        00000 