<?xml version="1.0" encoding="utf-8"?>
<VTKFile byte_order="LittleEndian" type="UnstructuredGrid" version="0.1">
   <UnstructuredGrid>
      <Piece NumberOfCells="3364" NumberOfPoints="1741">
         <Points>
            <DataArray Name="Points" NumberOfComponents="3" format="ascii" type="Float32">
0.0000 1.0000 0.0000
0.0000 1.0345 0.0000
0.0000 1.0690 0.0000
0.0000 1.1034 0.0000
0.0000 1.1379 0.0000
0.0000 1.1724 0.0000
0.0000 1.2069 0.0000
0.0000 1.2414 0.0000
0.0000 1.2759 0.0000
0.0000 1.3103 0.0000
0.0000 1.3448 0.0000
0.0000 1.3793 0.0000
0.0000 1.4138 0.0000
0.0000 1.4483 0.0000
0.0000 1.4828 0.0000
0.0000 1.5172 0.0000
0.0000 1.5517 0.0000
0.0000 1.5862 0.0000
0.0000 1.6207 0.0000
0.0000 1.6552 0.0000
0.0000 1.6897 0.0000
0.0000 1.7241 0.0000
0.0000 1.7586 0.0000
0.0000 1.7931 0.0000
0.0000 1.8276 0.0000
0.0000 1.8621 0.0000
0.0000 1.8966 0.0000
0.0000 1.9310 0.0000
0.0000 1.9655 0.0000
0.0000 2.0000 0.0000
0.0690 1.0000 0.0000
0.0690 1.0345 0.0000
0.0690 1.0690 0.0000
0.0690 1.1034 0.0000
0.0690 1.1379 0.0000
0.0690 1.1724 0.0000
0.0690 1.2069 0.0000
0.0690 1.2414 0.0000
0.0690 1.2759 0.0000
0.0690 1.3103 0.0000
0.0690 1.3448 0.0000
0.0690 1.3793 0.0000
0.0690 1.4138 0.0000
0.0690 1.4483 0.0000
0.0690 1.4828 0.0000
0.0690 1.5172 0.0000
0.0690 1.5517 0.0000
0.0690 1.5862 0.0000
0.0690 1.6207 0.0000
0.0690 1.6552 0.0000
0.0690 1.6897 0.0000
0.0690 1.7241 0.0000
0.0690 1.7586 0.0000
0.0690 1.7931 0.0000
0.0690 1.8276 0.0000
0.0690 1.8621 0.0000
0.0690 1.8966 0.0000
0.0690 1.9310 0.0000
0.0690 1.9655 0.0000
0.0690 2.0000 0.0000
0.1379 1.0000 0.0000
0.1379 1.0345 0.0000
0.1379 1.0690 0.0000
0.1379 1.1034 0.0000
0.1379 1.1379 0.0000
0.1379 1.1724 0.0000
0.1379 1.2069 0.0000
0.1379 1.2414 0.0000
0.1379 1.2759 0.0000
0.1379 1.3103 0.0000
0.1379 1.3448 0.0000
0.1379 1.3793 0.0000
0.1379 1.4138 0.0000
0.1379 1.4483 0.0000
0.1379 1.4828 0.0000
0.1379 1.5172 0.0000
0.1379 1.5517 0.0000
0.1379 1.5862 0.0000
0.1379 1.6207 0.0000
0.1379 1.6552 0.0000
0.1379 1.6897 0.0000
0.1379 1.7241 0.0000
0.1379 1.7586 0.0000
0.1379 1.7931 0.0000
0.1379 1.8276 0.0000
0.1379 1.8621 0.0000
0.1379 1.8966 0.0000
0.1379 1.9310 0.0000
0.1379 1.9655 0.0000
0.1379 2.0000 0.0000
0.2069 1.0000 0.0000
0.2069 1.0345 0.0000
0.2069 1.0690 0.0000
0.2069 1.1034 0.0000
0.2069 1.1379 0.0000
0.2069 1.1724 0.0000
0.2069 1.2069 0.0000
0.2069 1.2414 0.0000
0.2069 1.2759 0.0000
0.2069 1.3103 0.0000
0.2069 1.3448 0.0000
0.2069 1.3793 0.0000
0.2069 1.4138 0.0000
0.2069 1.4483 0.0000
0.2069 1.4828 0.0000
0.2069 1.5172 0.0000
0.2069 1.5517 0.0000
0.2069 1.5862 0.0000
0.2069 1.6207 0.0000
0.2069 1.6552 0.0000
0.2069 1.6897 0.0000
0.2069 1.7241 0.0000
0.2069 1.7586 0.0000
0.2069 1.7931 0.0000
0.2069 1.8276 0.0000
0.2069 1.8621 0.0000
0.2069 1.8966 0.0000
0.2069 1.9310 0.0000
0.2069 1.9655 0.0000
0.2069 2.0000 0.0000
0.2759 1.0000 0.0000
0.2759 1.0345 0.0000
0.2759 1.0690 0.0000
0.2759 1.1034 0.0000
0.2759 1.1379 0.0000
0.2759 1.1724 0.0000
0.2759 1.2069 0.0000
0.2759 1.2414 0.0000
0.2759 1.2759 0.0000
0.2759 1.3103 0.0000
0.2759 1.3448 0.0000
0.2759 1.3793 0.0000
0.2759 1.4138 0.0000
0.2759 1.4483 0.0000
0.2759 1.4828 0.0000
0.2759 1.5172 0.0000
0.2759 1.5517 0.0000
0.2759 1.5862 0.0000
0.2759 1.6207 0.0000
0.2759 1.6552 0.0000
0.2759 1.6897 0.0000
0.2759 1.7241 0.0000
0.2759 1.7586 0.0000
0.2759 1.7931 0.0000
0.2759 1.8276 0.0000
0.2759 1.8621 0.0000
0.2759 1.8966 0.0000
0.2759 1.9310 0.0000
0.2759 1.9655 0.0000
0.2759 2.0000 0.0000
0.3448 1.0000 0.0000
0.3448 1.0345 0.0000
0.3448 1.0690 0.0000
0.3448 1.1034 0.0000
0.3448 1.1379 0.0000
0.3448 1.1724 0.0000
0.3448 1.2069 0.0000
0.3448 1.2414 0.0000
0.3448 1.2759 0.0000
0.3448 1.3103 0.0000
0.3448 1.3448 0.0000
0.3448 1.3793 0.0000
0.3448 1.4138 0.0000
0.3448 1.4483 0.0000
0.3448 1.4828 0.0000
0.3448 1.5172 0.0000
0.3448 1.5517 0.0000
0.3448 1.5862 0.0000
0.3448 1.6207 0.0000
0.3448 1.6552 0.0000
0.3448 1.6897 0.0000
0.3448 1.7241 0.0000
0.3448 1.7586 0.0000
0.3448 1.7931 0.0000
0.3448 1.8276 0.0000
0.3448 1.8621 0.0000
0.3448 1.8966 0.0000
0.3448 1.9310 0.0000
0.3448 1.9655 0.0000
0.3448 2.0000 0.0000
0.4138 1.0000 0.0000
0.4138 1.0345 0.0000
0.4138 1.0690 0.0000
0.4138 1.1034 0.0000
0.4138 1.1379 0.0000
0.4138 1.1724 0.0000
0.4138 1.2069 0.0000
0.4138 1.2414 0.0000
0.4138 1.2759 0.0000
0.4138 1.3103 0.0000
0.4138 1.3448 0.0000
0.4138 1.3793 0.0000
0.4138 1.4138 0.0000
0.4138 1.4483 0.0000
0.4138 1.4828 0.0000
0.4138 1.5172 0.0000
0.4138 1.5517 0.0000
0.4138 1.5862 0.0000
0.4138 1.6207 0.0000
0.4138 1.6552 0.0000
0.4138 1.6897 0.0000
0.4138 1.7241 0.0000
0.4138 1.7586 0.0000
0.4138 1.7931 0.0000
0.4138 1.8276 0.0000
0.4138 1.8621 0.0000
0.4138 1.8966 0.0000
0.4138 1.9310 0.0000
0.4138 1.9655 0.0000
0.4138 2.0000 0.0000
0.4828 1.0000 0.0000
0.4828 1.0345 0.0000
0.4828 1.0690 0.0000
0.4828 1.1034 0.0000
0.4828 1.1379 0.0000
0.4828 1.1724 0.0000
0.4828 1.2069 0.0000
0.4828 1.2414 0.0000
0.4828 1.2759 0.0000
0.4828 1.3103 0.0000
0.4828 1.3448 0.0000
0.4828 1.3793 0.0000
0.4828 1.4138 0.0000
0.4828 1.4483 0.0000
0.4828 1.4828 0.0000
0.4828 1.5172 0.0000
0.4828 1.5517 0.0000
0.4828 1.5862 0.0000
0.4828 1.6207 0.0000
0.4828 1.6552 0.0000
0.4828 1.6897 0.0000
0.4828 1.7241 0.0000
0.4828 1.7586 0.0000
0.4828 1.7931 0.0000
0.4828 1.8276 0.0000
0.4828 1.8621 0.0000
0.4828 1.8966 0.0000
0.4828 1.9310 0.0000
0.4828 1.9655 0.0000
0.4828 2.0000 0.0000
0.5517 1.0000 0.0000
0.5517 1.0345 0.0000
0.5517 1.0690 0.0000
0.5517 1.1034 0.0000
0.5517 1.1379 0.0000
0.5517 1.1724 0.0000
0.5517 1.2069 0.0000
0.5517 1.2414 0.0000
0.5517 1.2759 0.0000
0.5517 1.3103 0.0000
0.5517 1.3448 0.0000
0.5517 1.3793 0.0000
0.5517 1.4138 0.0000
0.5517 1.4483 0.0000
0.5517 1.4828 0.0000
0.5517 1.5172 0.0000
0.5517 1.5517 0.0000
0.5517 1.5862 0.0000
0.5517 1.6207 0.0000
0.5517 1.6552 0.0000
0.5517 1.6897 0.0000
0.5517 1.7241 0.0000
0.5517 1.7586 0.0000
0.5517 1.7931 0.0000
0.5517 1.8276 0.0000
0.5517 1.8621 0.0000
0.5517 1.8966 0.0000
0.5517 1.9310 0.0000
0.5517 1.9655 0.0000
0.5517 2.0000 0.0000
0.6207 1.0000 0.0000
0.6207 1.0345 0.0000
0.6207 1.0690 0.0000
0.6207 1.1034 0.0000
0.6207 1.1379 0.0000
0.6207 1.1724 0.0000
0.6207 1.2069 0.0000
0.6207 1.2414 0.0000
0.6207 1.2759 0.0000
0.6207 1.3103 0.0000
0.6207 1.3448 0.0000
0.6207 1.3793 0.0000
0.6207 1.4138 0.0000
0.6207 1.4483 0.0000
0.6207 1.4828 0.0000
0.6207 1.5172 0.0000
0.6207 1.5517 0.0000
0.6207 1.5862 0.0000
0.6207 1.6207 0.0000
0.6207 1.6552 0.0000
0.6207 1.6897 0.0000
0.6207 1.7241 0.0000
0.6207 1.7586 0.0000
0.6207 1.7931 0.0000
0.6207 1.8276 0.0000
0.6207 1.8621 0.0000
0.6207 1.8966 0.0000
0.6207 1.9310 0.0000
0.6207 1.9655 0.0000
0.6207 2.0000 0.0000
0.6897 1.0000 0.0000
0.6897 1.0345 0.0000
0.6897 1.0690 0.0000
0.6897 1.1034 0.0000
0.6897 1.1379 0.0000
0.6897 1.1724 0.0000
0.6897 1.2069 0.0000
0.6897 1.2414 0.0000
0.6897 1.2759 0.0000
0.6897 1.3103 0.0000
0.6897 1.3448 0.0000
0.6897 1.3793 0.0000
0.6897 1.4138 0.0000
0.6897 1.4483 0.0000
0.6897 1.4828 0.0000
0.6897 1.5172 0.0000
0.6897 1.5517 0.0000
0.6897 1.5862 0.0000
0.6897 1.6207 0.0000
0.6897 1.6552 0.0000
0.6897 1.6897 0.0000
0.6897 1.7241 0.0000
0.6897 1.7586 0.0000
0.6897 1.7931 0.0000
0.6897 1.8276 0.0000
0.6897 1.8621 0.0000
0.6897 1.8966 0.0000
0.6897 1.9310 0.0000
0.6897 1.9655 0.0000
0.6897 2.0000 0.0000
0.7586 1.0000 0.0000
0.7586 1.0345 0.0000
0.7586 1.0690 0.0000
0.7586 1.1034 0.0000
0.7586 1.1379 0.0000
0.7586 1.1724 0.0000
0.7586 1.2069 0.0000
0.7586 1.2414 0.0000
0.7586 1.2759 0.0000
0.7586 1.3103 0.0000
0.7586 1.3448 0.0000
0.7586 1.3793 0.0000
0.7586 1.4138 0.0000
0.7586 1.4483 0.0000
0.7586 1.4828 0.0000
0.7586 1.5172 0.0000
0.7586 1.5517 0.0000
0.7586 1.5862 0.0000
0.7586 1.6207 0.0000
0.7586 1.6552 0.0000
0.7586 1.6897 0.0000
0.7586 1.7241 0.0000
0.7586 1.7586 0.0000
0.7586 1.7931 0.0000
0.7586 1.8276 0.0000
0.7586 1.8621 0.0000
0.7586 1.8966 0.0000
0.7586 1.9310 0.0000
0.7586 1.9655 0.0000
0.7586 2.0000 0.0000
0.8276 1.0000 0.0000
0.8276 1.0345 0.0000
0.8276 1.0690 0.0000
0.8276 1.1034 0.0000
0.8276 1.1379 0.0000
0.8276 1.1724 0.0000
0.8276 1.2069 0.0000
0.8276 1.2414 0.0000
0.8276 1.2759 0.0000
0.8276 1.3103 0.0000
0.8276 1.3448 0.0000
0.8276 1.3793 0.0000
0.8276 1.4138 0.0000
0.8276 1.4483 0.0000
0.8276 1.4828 0.0000
0.8276 1.5172 0.0000
0.8276 1.5517 0.0000
0.8276 1.5862 0.0000
0.8276 1.6207 0.0000
0.8276 1.6552 0.0000
0.8276 1.6897 0.0000
0.8276 1.7241 0.0000
0.8276 1.7586 0.0000
0.8276 1.7931 0.0000
0.8276 1.8276 0.0000
0.8276 1.8621 0.0000
0.8276 1.8966 0.0000
0.8276 1.9310 0.0000
0.8276 1.9655 0.0000
0.8276 2.0000 0.0000
0.8966 1.0000 0.0000
0.8966 1.0345 0.0000
0.8966 1.0690 0.0000
0.8966 1.1034 0.0000
0.8966 1.1379 0.0000
0.8966 1.1724 0.0000
0.8966 1.2069 0.0000
0.8966 1.2414 0.0000
0.8966 1.2759 0.0000
0.8966 1.3103 0.0000
0.8966 1.3448 0.0000
0.8966 1.3793 0.0000
0.8966 1.4138 0.0000
0.8966 1.4483 0.0000
0.8966 1.4828 0.0000
0.8966 1.5172 0.0000
0.8966 1.5517 0.0000
0.8966 1.5862 0.0000
0.8966 1.6207 0.0000
0.8966 1.6552 0.0000
0.8966 1.6897 0.0000
0.8966 1.7241 0.0000
0.8966 1.7586 0.0000
0.8966 1.7931 0.0000
0.8966 1.8276 0.0000
0.8966 1.8621 0.0000
0.8966 1.8966 0.0000
0.8966 1.9310 0.0000
0.8966 1.9655 0.0000
0.8966 2.0000 0.0000
0.9655 1.0000 0.0000
0.9655 1.0345 0.0000
0.9655 1.0690 0.0000
0.9655 1.1034 0.0000
0.9655 1.1379 0.0000
0.9655 1.1724 0.0000
0.9655 1.2069 0.0000
0.9655 1.2414 0.0000
0.9655 1.2759 0.0000
0.9655 1.3103 0.0000
0.9655 1.3448 0.0000
0.9655 1.3793 0.0000
0.9655 1.4138 0.0000
0.9655 1.4483 0.0000
0.9655 1.4828 0.0000
0.9655 1.5172 0.0000
0.9655 1.5517 0.0000
0.9655 1.5862 0.0000
0.9655 1.6207 0.0000
0.9655 1.6552 0.0000
0.9655 1.6897 0.0000
0.9655 1.7241 0.0000
0.9655 1.7586 0.0000
0.9655 1.7931 0.0000
0.9655 1.8276 0.0000
0.9655 1.8621 0.0000
0.9655 1.8966 0.0000
0.9655 1.9310 0.0000
0.9655 1.9655 0.0000
0.9655 2.0000 0.0000
1.0345 1.0000 0.0000
1.0345 1.0345 0.0000
1.0345 1.0690 0.0000
1.0345 1.1034 0.0000
1.0345 1.1379 0.0000
1.0345 1.1724 0.0000
1.0345 1.2069 0.0000
1.0345 1.2414 0.0000
1.0345 1.2759 0.0000
1.0345 1.3103 0.0000
1.0345 1.3448 0.0000
[...]
         <PointData>
            <DataArray Name="fValues" NumberOfComponents="3" format="ascii" type="Float64">
-1.45437e-24  6.16662e-24        00000 
 1.46125e-24 -5.88338e-24        00000 
-1.43361e-24  5.09751e-24        00000 
 1.28743e-24 -3.98573e-24        00000 
-1.00723e-24  2.78835e-24        00000 
 6.69718e-25 -1.72979e-24        00000 
-3.75392e-25  9.44360e-25        00000 
 1.77668e-25 -4.51482e-25        00000 
-7.16005e-26  1.88808e-25        00000 
 2.49254e-26 -6.93246e-26        00000 
-7.64083e-27  2.25514e-26        00000 
 2.10722e-27 -6.59005e-27        00000 
-5.33387e-28  1.75885e-27        00000 
 1.25973e-28 -4.35879e-28        00000 
-2.81205e-29  1.01761e-28        00000 
 5.99335e-30 -2.26466e-29        00000 
-1.22936e-30  4.84934e-30        00000 
 2.44235e-31 -1.00644e-30        00000 
-4.72338e-32  2.03604e-31        00000 
 8.92851e-33 -4.03298e-32        00000 
-1.65504e-33  7.84942e-33        00000 
 3.01641e-34 -1.50537e-33        00000 
-5.41688e-35  2.85120e-34        00000 
 9.60140e-36 -5.34303e-35        00000 
-1.68209e-36  9.92151e-36        00000 
 2.91591e-37 -1.82784e-36        00000 
-5.00603e-38  3.34447e-37        00000 
 8.52325e-39 -6.08882e-38        00000 
-1.47650e-39  1.13595e-38        00000 
 4.80685e-40 -3.96314e-39        00000 
 4.31381e-24 -1.90997e-23        00000 
-4.40557e-24  1.81833e-23        00000 
 4.44452e-24 -1.56370e-23        00000 
-4.02729e-24  1.20388e-23        00000 
 3.08408e-24 -8.19984e-24        00000 
-1.94864e-24  4.88295e-24        00000 
 1.01207e-24 -2.51857e-24        00000 
-4.35329e-25  1.11969e-24        00000 
 1.57631e-25 -4.29632e-25        00000 
-4.92233e-26  1.43550e-25        00000 
 1.36372e-26 -4.24534e-26        00000 
-3.44129e-27  1.13484e-26        00000 
 8.07156e-28 -2.80020e-27        00000 
-1.78621e-28  6.49102e-28        00000 
 3.77172e-29 -1.43296e-28        00000 
-7.66523e-30  3.04385e-29        00000 
 1.50939e-30 -6.26975e-30        00000 
-2.89499e-31  1.25971e-30        00000 
 5.43069e-32 -2.47993e-31        00000 
-9.99653e-33  4.80045e-32        00000 
 1.81034e-33 -9.16211e-33        00000 
-3.23215e-34  1.72796e-33        00000 
 5.69853e-35 -3.22603e-34        00000 
-9.93453e-36  5.97065e-35        00000 
 1.71434e-36 -1.09675e-35        00000 
-2.93061e-37  2.00151e-36        00000 
 4.96596e-38 -3.63192e-37        00000 
-8.35036e-39  6.56370e-38        00000 
 1.42843e-39 -1.21623e-38        00000 
-4.59861e-40  4.22021e-39        00000 
-2.37055e-23  1.12302e-22        00000 
 2.49611e-23 -1.06678e-22        00000 
-2.64011e-23  9.09707e-23        00000 
 2.42017e-23 -6.87081e-23        00000 
-1.78868e-23  4.51677e-23        00000 
 1.04553e-23 -2.54163e-23        00000 
-4.85027e-24  1.20930e-23        00000 
 1.81596e-24 -4.84224e-24        00000 
-5.65288e-25  1.64140e-24        00000 
 1.52238e-25 -4.79740e-25        00000 
-3.68580e-26  1.24348e-25        00000 
 8.24308e-27 -2.94439e-26        00000 
-1.73469e-27  6.52341e-27        00000 
 3.48111e-28 -1.37612e-27        00000 
-6.72841e-29  2.79843e-28        00000 
 1.26209e-29 -5.53437e-29        00000 
-2.31074e-30  1.07115e-29        00000 
 4.14763e-31 -2.03820e-30        00000 
-7.32295e-32  3.82588e-31        00000 
 1.27499e-32 -7.10244e-32        00000 
-2.19331e-33  1.30653e-32        00000 
 3.73319e-34 -2.38518e-33        00000 
-6.29370e-35  4.32638e-34        00000 
 1.05170e-35 -7.80443e-35        00000 
-1.74278e-36  1.40120e-35        00000 
 2.86453e-37 -2.50539e-36        00000 
-4.67013e-38  4.46372e-37        00000 
 7.55475e-39 -7.93479e-38        00000 
-1.23998e-39  1.44757e-38        00000 
 3.84011e-40 -4.95992e-39        00000 
 1.29271e-22 -6.78284e-22        00000 
-1.43964e-22  6.43301e-22        00000 
 1.63928e-22 -5.44437e-22        00000 
-1.51763e-22  4.02737e-22        00000 
 1.06035e-22 -2.53724e-22        00000 
-5.55393e-23  1.32942e-22        00000 
 2.21663e-23 -5.70442e-23        00000 
-6.98510e-24  2.00164e-23        00000 
 1.83891e-24 -5.84921e-24        00000 
-4.28944e-25  1.47790e-24        00000 
 9.18644e-26 -3.37021e-25        00000 
-1.84510e-26  7.16155e-26        00000 
 3.52737e-27 -1.44864e-26        00000 
-6.48932e-28  2.82906e-27        00000 
 1.15829e-28 -5.38476e-28        00000 
-2.01810e-29  1.00547e-28        00000 
 3.44775e-30 -1.85031e-29        00000 
-5.79472e-31  3.36695e-30        00000 
 9.60456e-32 -6.07296e-31        00000 
-1.57254e-32  1.08773e-31        00000 
 2.54615e-33 -1.93727e-32        00000 
-4.07933e-34  3.43454e-33        00000 
 6.46816e-35 -6.06602e-34        00000 
-1.01467e-35  1.06801e-34        00000 
 1.57352e-36 -1.87540e-35        00000 
-2.40879e-37  3.28581e-36        00000 
 3.63182e-38 -5.74599e-37        00000 
-5.37624e-39  1.00402e-37        00000 
 7.90845e-40 -1.80160e-38        00000 
-2.17047e-40  6.08897e-39        00000 
-6.53684e-22  4.10182e-21        00000 
 8.19514e-22 -3.88858e-21        00000 
-1.05186e-21  3.27137e-21        00000 
 9.73328e-22 -2.36353e-21        00000 
-6.18224e-22  1.40834e-21        00000 
 2.74179e-22 -6.68236e-22        00000 
-8.84656e-23  2.47932e-22        00000 
 2.25252e-23 -7.27748e-23        00000 
-5.00893e-24  1.77725e-23        00000 
 1.01954e-24 -3.86458e-24        00000 
-1.94241e-25  7.81999e-25        00000 
 3.51939e-26 -1.51082e-25        00000 
-6.13667e-27  2.82977e-26        00000 
 1.03860e-27 -5.18722e-27        00000 
-1.71635e-28  9.36315e-28        00000 
 2.78076e-29 -1.67108e-28        00000 
-4.42847e-30  2.95734e-29        00000 
 6.94241e-31 -5.20011e-30        00000 
-1.07188e-31  9.09864e-31        00000 
 1.62915e-32 -1.58588e-31        00000 
-2.43390e-33  2.75584e-32        00000 
 3.56389e-34 -4.77753e-33        00000 
-5.08976e-35  8.26669e-34        00000 
 7.03076e-36 -1.42825e-34        00000 
-9.25450e-37  2.46463e-35        00000 
 1.12653e-37 -4.24891e-36        00000 
-1.17762e-38  7.31935e-37        00000 
 7.84269e-40 -1.26110e-37        00000 
 7.88795e-41  2.23206e-38        00000 
-8.81445e-41 -7.45725e-39        00000 
 2.66402e-21 -2.47893e-20        00000 
-4.57529e-21  2.35375e-20        00000 
 7.13957e-21 -1.97602e-20        00000 
-6.38842e-21  1.39012e-20        00000 
 3.42313e-21 -7.65301e-21        00000 
-1.16122e-21  3.11968e-21        00000 
 2.78798e-22 -9.29053e-22        00000 
-5.79569e-23  2.15259e-22        00000 
 1.10687e-23 -4.37874e-23        00000 
-1.97442e-24  8.32352e-24        00000 
 3.34577e-25 -1.52270e-24        00000 
-5.45777e-26  2.72165e-25        00000 
 8.64614e-27 -4.79290e-26        00000 
-1.33726e-27  8.35734e-27        00000 
 2.02459e-28 -1.44739e-27        00000 
-3.00190e-29  2.49472e-28        00000 
 4.35207e-30 -4.28518e-29        00000 
-6.14409e-31  7.34238e-30        00000 
 8.38049e-32 -1.25579e-30        00000 
-1.08827e-32  2.14501e-31        00000 
 1.30551e-33 -3.66039e-32        00000 
-1.34194e-34  6.24216e-33        00000 
 8.71728e-36 -1.06400e-33        00000 
 7.78223e-37  1.81311e-34        00000 
-4.94328e-37 -3.08908e-35        00000 
 1.42003e-37  5.26267e-36        00000 
-3.34252e-38 -8.96591e-37        00000 
 7.17961e-39  1.52882e-37        00000 
-1.51208e-39 -2.67840e-38        00000 
 5.72072e-40  8.87122e-39        00000 
-1.51553e-21  1.49567e-19        00000 
 2.51569e-20 -1.42417e-19        00000 
-5.33270e-20  1.20400e-19        00000 
 4.22730e-20 -8.23978e-20        00000 
-1.62605e-20  3.98060e-20        00000 
 3.47025e-21 -1.23840e-20        00000 
-6.54208e-22  2.61991e-21        00000 
 1.15696e-22 -4.82877e-22        00000 
-1.89358e-23  8.46512e-23        00000 
 2.93145e-24 -1.45195e-23        00000 
-4.36285e-25  2.46452e-24        00000 
 6.29311e-26 -4.16145e-25        00000 
-8.81500e-27  7.00846e-26        00000 
 1.19509e-27 -1.17888e-26        00000 
-1.55296e-28  1.98209e-27        00000 
 1.89360e-29 -3.33250e-28        00000 
-2.06230e-30  5.60435e-29        00000 
 1.71822e-31 -9.42870e-30        00000 
-1.60735e-33  1.58704e-30        00000 
-3.99027e-33 -2.67274e-31        00000 
 1.33767e-33  4.50370e-32        00000 
-3.29534e-34 -7.59329e-33        00000 
 7.18722e-35  1.28098e-33        00000 
-1.46839e-35 -2.16223e-34        00000 
 2.88067e-36  3.65182e-35        00000 
-5.49788e-37 -6.17106e-36        00000 
 1.02878e-37  1.04342e-36        00000 
-1.89866e-38 -1.76655e-37        00000 
 3.56897e-39  3.07327e-38        00000 
-1.24884e-39 -1.01184e-38        00000 
-1.85315e-19 -9.11279e-19        00000 
-1.48979e-19  8.49503e-19        00000 
 4.63111e-19 -7.45830e-19        00000 
-2.57852e-19  5.03441e-19        00000 
 4.23148e-20 -1.78799e-19        00000 
-6.93046e-21  3.16410e-20        00000 
 1.13735e-21 -4.99926e-21        00000 
-1.64024e-22  7.91227e-22        00000 
 2.20220e-23 -1.26352e-22        00000 
-2.81111e-24  2.03517e-23        00000 
 3.40010e-25 -3.30182e-24        00000 
-3.79368e-26  5.38848e-25        00000 
 3.60836e-27 -8.83632e-26        00000 
-2.06906e-28  1.45482e-26        00000 
-2.32387e-29 -2.40322e-27        00000 
 1.23927e-29  3.98116e-28        00000 
-3.33469e-30 -6.61121e-29        00000 
 7.46685e-31  1.10019e-29        00000 
-1.53431e-31 -1.83426e-30        00000 
 3.00119e-32  3.06314e-31        00000 
-5.68809e-33 -5.12282e-32        00000 
 1.05490e-33  8.57876e-33        00000 
-1.92594e-34 -1.43834e-33        00000 
 3.47513e-35  2.41420e-34        00000 
-6.21396e-36 -4.05624e-35        00000 
 1.10324e-36  6.82150e-36        00000 
-1.94759e-37 -1.14821e-36        00000 
 3.42514e-38  1.93575e-37        00000 
-6.17153e-39 -3.35357e-38        00000 
 2.09011e-39  1.10019e-38        00000 
 4.24288e-18  7.17550e-18        00000 
 1.32384e-18 -3.59141e-18        00000 
-5.10587e-18  5.55874e-18        00000 
 4.43791e-19 -3.00284e-18        00000 
-6.14136e-20  3.57664e-19        00000 
 1.03687e-20 -4.36381e-20        00000 
-1.14221e-21  6.21743e-21        00000 
 1.09370e-22 -9.35215e-22        00000 
-8.43076e-24  1.44943e-22        00000 
 2.16662e-25 -2.28905e-23        00000 
 1.11901e-25  3.66180e-24        00000 
-3.76423e-26 -5.91262e-25        00000 
 8.78183e-27  9.61463e-26        00000 
-1.80381e-27 -1.57214e-26        00000 
 3.47911e-28  2.58219e-27        00000 
-6.47041e-29 -4.25682e-28        00000 
 1.17586e-29  7.03921e-29        00000 
-2.10380e-30 -1.16710e-29        00000 
 3.72281e-31  1.93945e-30        00000 
-6.53509e-32 -3.22933e-31        00000 
 1.14031e-32  5.38650e-32        00000 
-1.98062e-33 -8.99865e-33        00000 
 3.42791e-34  1.50541e-33        00000 
-5.91609e-35 -2.52162e-34        00000 
 1.01874e-35  4.22867e-35        00000 
-1.75108e-36 -7.09876e-36        00000 
 3.00549e-37  1.19286e-36        00000 
-5.15645e-38 -2.00777e-37        00000 
 9.08121e-39  3.47272e-38        00000 
-3.01946e-39 -1.13767e-38        00000 
 2.70245e-18 -3.68002e-18        00000 
-2.13623e-01 -1.47736e-01        00000 
-2.13623e-01  1.47736e-01        00000 
-2.27606e-18  2.49832e-18        00000 
 1.03023e-19 -1.78677e-19        00000 
-2.65272e-21  3.16617e-20        00000 
-4.31062e-22 -5.02429e-21        00000 
 1.33892e-22  8.00230e-22        00000 
-2.75121e-23 -1.28456e-22        00000 
 5.07375e-24  2.07665e-23        00000 
-8.95843e-25 -3.37714e-24        00000 
 1.54892e-25  5.51931e-25        00000 
-2.64840e-26 -9.05789e-26        00000 
 4.50007e-27  1.49177e-26        00000 
-7.61868e-28 -2.46430e-27        00000 
 1.28714e-28  4.08151e-28        00000 
-2.17198e-29 -6.77552e-29        00000 
 3.66282e-30  1.12704e-29        00000 
-6.17538e-31 -1.87807e-30        00000 
 1.04112e-31  3.13456e-31        00000 
-1.75545e-32 -5.23918e-32        00000 
 2.96058e-33  8.76824e-33        00000 
-4.99444e-34 -1.46917e-33        00000 
 8.42826e-35  2.46432e-34        00000 
-1.42278e-35 -4.13762e-35        00000 
 2.40266e-36  6.95340e-36        00000 
-4.05892e-37 -1.16955e-36        00000 
 6.86463e-38  1.97019e-37        00000 
-1.19268e-38 -3.41033e-38        00000 
 3.92161e-39  1.11792e-38        00000 
-3.72213e-19 -6.04294e-18        00000 
-2.13623e-01  1.47736e-01        00000 
-2.13623e-01 -1.47736e-01        00000 
-1.04416e-18 -3.14479e-18        00000 
 1.64986e-19  3.97598e-20        00000 
-2.30093e-20 -1.27262e-20        00000 
 3.19681e-21  2.75519e-21        00000 
-4.66943e-22 -5.11518e-22        00000 
 7.05103e-23  8.99180e-23        00000 
-1.08908e-23 -1.54362e-23        00000 
 1.70956e-24  2.61975e-24        00000 
-2.71611e-25 -4.42025e-25        00000 
 4.35562e-26  7.43597e-26        00000 
-7.03650e-27 -1.24910e-26        00000 
 1.14357e-27  2.09703e-27        00000 
-1.86772e-28 -3.52025e-28        00000 
 3.06311e-29  5.91065e-29        00000 
-5.04129e-30 -9.92806e-30        00000 
 8.32217e-31  1.66841e-30        00000 
-1.37744e-31 -2.80528e-31        00000 
 2.28512e-32  4.71945e-32        00000 
-3.79863e-33 -7.94426e-33        00000 
 6.32601e-34  1.33801e-33        00000 
-1.05520e-34 -2.25479e-34        00000 
 1.76266e-35  3.80175e-35        00000 
-2.94830e-36 -6.41336e-36        00000 
 4.93743e-37  1.08246e-36        00000 
-8.28377e-38 -1.82930e-37        00000 
 1.42822e-38  3.17608e-38        00000 
-4.66605e-39 -1.04376e-38        00000 
 6.81065e-19  1.95077e-18        00000 
-4.68525e-18 -2.92197e-18        00000 
-4.42016e-18  2.86010e-18        00000 
 3.83212e-19  8.23170e-19        00000 
-3.42018e-19 -1.23560e-20        00000 
 3.46525e-20  5.31935e-21        00000 
-4.46793e-21 -1.28449e-21        00000 
 6.26727e-22  2.71004e-22        00000 
-9.20015e-23 -5.25801e-23        00000 
 1.39012e-23  9.72212e-24        00000 
-2.14306e-24 -1.74671e-24        00000 
 3.35314e-25  3.08224e-25        00000 
-5.30655e-26 -5.37543e-26        00000 
 8.47397e-27  9.30084e-27        00000 
-1.36312e-27 -1.60049e-27        00000 
 2.20601e-28  2.74349e-28        00000 
-3.58822e-29 -4.68975e-29        00000 
 5.86167e-30  8.00065e-30        00000 
-9.61109e-31 -1.36291e-30        00000 
 1.58096e-31  2.31923e-31        00000 
-2.60790e-32 -3.94352e-32        00000 
 4.31261e-33  6.70164e-33        00000 
-7.14739e-34 -1.13843e-33        00000 
 1.18689e-34  1.93337e-34        00000 
-1.97443e-35 -3.28282e-35        00000 
 3.28977e-36  5.57359e-36        00000 
-5.48945e-37 -9.46268e-37        00000 
 9.17882e-38  1.60781e-37        00000 
-1.57731e-38 -2.80609e-38        00000 
 5.13867e-39  9.26189e-39        00000 
-2.29158e-20 -5.55288e-19        00000 
 1.41492e-19  5.34826e-19        00000 
 1.79339e-19 -2.72761e-19        00000 
-4.18539e-19 -5.81031e-20        00000 
 2.41760e-20  4.41038e-20        00000 
-1.78904e-20 -4.42811e-21        00000 
 3.13975e-21  7.33320e-22        00000 
-5.03910e-22 -1.42167e-22        00000 
 7.97032e-23  2.81813e-23        00000 
-1.26169e-23 -5.47009e-24        00000 
 2.00670e-24  1.03413e-24        00000 
-3.20942e-25 -1.91164e-25        00000 
 5.16077e-26  3.47239e-26        00000 
-8.33984e-27 -6.22359e-27        00000 
 1.35374e-27  1.10412e-27        00000 
-2.20618e-28 -1.94345e-28        00000 
 3.60812e-29  3.40001e-29        00000 
-5.91958e-30 -5.91973e-30        00000 
 9.73919e-31  1.02677e-30        00000 
-1.60639e-31 -1.77549e-31        00000 
 2.65562e-32  3.06267e-32        00000 
-4.39916e-33 -5.27246e-33        00000 
 7.30098e-34  9.06187e-34        00000 
-1.21374e-34 -1.55539e-34        00000 
 2.02087e-35  2.66673e-35        00000 
-3.36950e-36 -4.56793e-36        00000 
 5.62552e-37  7.81877e-37        00000 
-9.41023e-38 -1.33853e-37        00000 
 1.61759e-38  2.35318e-38        00000 
-5.27101e-39 -7.81441e-39        00000 
 1.22741e-20  9.10490e-20        00000 
-3.42254e-21 -7.90515e-20        00000 
-2.58649e-20  4.37317e-20        00000 
 4.11508e-20 -7.23187e-21        00000 
-2.10455e-20 -4.95635e-21        00000 
 4.09413e-21  2.33246e-21        00000 
-1.27406e-21 -4.12433e-22        00000 
 2.66951e-22  7.57526e-23        00000 
-4.92231e-23 -1.46428e-23        00000 
 8.60724e-24  2.87804e-24        00000 
-1.46760e-24 -5.61760e-25        00000 
 2.47040e-25  1.07918e-25        00000 
-4.13057e-26 -2.03775e-26        00000 
 6.88267e-27  3.78781e-27        00000 
-1.14501e-27 -6.94710e-28        00000 
 1.90386e-28  1.26001e-28        00000 
-3.16597e-29 -2.26439e-29        00000 
 5.26730e-30  4.03866e-30        00000 
-8.76948e-31 -7.15819e-31        00000 
 1.46123e-31  1.26215e-31        00000 
-2.43695e-32 -2.21584e-32        00000 
 4.06792e-33  3.87599e-33        00000 
-6.79660e-34 -6.75918e-34        00000 
 1.13658e-34  1.17564e-34        00000 
-1.90232e-35 -2.04028e-35        00000 
 3.18662e-36  3.53409e-36        00000 
-5.34238e-37 -6.11174e-37        00000 
 8.97014e-38  1.05632e-37        00000 
-1.54737e-38 -1.87429e-38        00000 
 5.05678e-39  6.27247e-39        00000 
-1.04426e-21 -1.41996e-20        00000 
-4.59693e-22  1.22690e-20        00000 
 3.67232e-21 -7.44185e-21        00000 
-5.23188e-21  2.52305e-21        00000 
 3.67352e-21 -2.98978e-24        00000 
-1.42539e-21 -3.66885e-22        00000 
 3.75617e-22  1.47203e-22        00000 
-1.01236e-22 -3.34796e-23        00000 
 2.27019e-23  6.92566e-24        00000 
-4.55820e-24 -1.40595e-24        00000 
 8.59373e-25  2.82847e-25        00000 
-1.56039e-25 -5.62045e-26        00000 
 2.76721e-26  1.09994e-26        00000 
-4.83250e-27 -2.11872e-27        00000 
 8.35246e-28  4.02045e-28        00000 
-1.43342e-28 -7.52741e-29        00000 
 2.44784e-29  1.39295e-29        00000 
-4.16558e-30 -2.55184e-30        00000 
 7.07119e-31  4.63483e-31        00000 
-1.19825e-31 -8.35644e-32        00000 
 2.02801e-32  1.49720e-32        00000 
-3.42945e-33 -2.66808e-33        00000 
 5.79607e-34  4.73267e-34        00000 
-9.79238e-35 -8.36134e-35        00000 
 1.65408e-35  1.47211e-35        00000 
-2.79377e-36 -2.58402e-36        00000 
 4.71887e-37  4.52395e-37        00000 
-7.97725e-38 -7.90877e-38        00000 
 1.38501e-38  1.41896e-38        00000 
-4.55045e-39 -4.79304e-39        00000 
 1.32536e-23  2.21487e-21        00000 
 1.70829e-22 -1.94040e-21        00000 
-5.41137e-22  1.26904e-21        00000 
 7.30531e-22 -5.62473e-22        00000 
-5.86526e-22  1.22586e-22        00000 
 3.04377e-22  2.29668e-23        00000 
-1.09478e-22 -2.73012e-23        00000 
 3.14950e-23  1.03152e-23        00000 
-8.31308e-24 -2.65744e-24        00000 
 1.93846e-24  6.01274e-25        00000 
-4.11921e-25 -1.28907e-25        00000 
 8.21938e-26  2.68410e-26        00000 
-1.57151e-26 -5.47018e-27        00000 
 2.91695e-27  1.09412e-27        00000 
-5.30137e-28 -2.15128e-28        00000 
 9.48824e-29  4.16458e-29        00000 
-1.67895e-29 -7.95045e-30        00000 
 2.94548e-30  1.49920e-30        00000 
-5.13350e-31 -2.79660e-31        00000 
 8.90126e-32  5.16776e-32        00000 
-1.53727e-32 -9.47107e-33        00000 
 2.64652e-33  1.72338e-33        00000 
-4.54471e-34 -3.11633e-34        00000 
 7.78865e-35  5.60439e-35        00000 
-1.33264e-35 -1.00306e-35        00000 
 2.27718e-36  1.78768e-36        00000 
-3.88716e-37 -3.17429e-37        00000 
 6.63499e-38  5.62290e-38        00000 
-1.16264e-38 -1.02189e-38        00000 
 3.84919e-39  3.48918e-39        00000 
 1.78576e-23 -3.48638e-22        00000 
-3.95046e-23  3.10147e-22        00000 
 8.31290e-23 -2.15239e-22        00000 
-1.07156e-22  1.11040e-22        00000 
 9.25192e-23 -3.77439e-23        00000 
-5.64246e-23  4.73535e-24        00000 
 2.52705e-23  2.87188e-24        00000 
-8.80787e-24 -2.09046e-24        00000 
 2.60127e-24  7.68119e-25        00000 
-6.90980e-25 -2.11695e-25        00000 
 1.65895e-25  5.10725e-26        00000 
-3.67372e-26 -1.14928e-26        00000 
 7.66037e-27  2.48008e-27        00000 
-1.52820e-27 -5.19729e-28        00000 
 2.95032e-28  1.06431e-28        00000 
-5.55712e-29 -2.13751e-29        00000 
 1.02719e-29  4.22079e-30        00000 