<?xml version="1.0" encoding="utf-8"?>
<VTKFile byte_order="LittleEndian" type="UnstructuredGrid" version="0.1">
   <UnstructuredGrid>
      <Piece NumberOfCells="3364" NumberOfPoints="1741">
         <Points>
            <DataArray Name="Points" NumberOfComponents="3" format="ascii" type="Float32">
0.0000 1.0000 0.0000
0.0000 1.0345 0.0000
0.0000 1.0690 0.0000
0.0000 1.1034 0.0000
0.0000 1.1379 0.0000
0.0000 1.1724 0.0000
0.0000 1.2069 0.0000
0.0000 1.2414 0.0000
0.0000 1.2759 0.0000
0.0000 1.3103 0.0000
0.0000 1.3448 0.0000
0.0000 1.3793 0.0000
0.0000 1.4138 0.0000
0.0000 1.4483 0.0000
0.0000 1.4828 0.0000
0.0000 1.5172 0.0000
0.0000 1.5517 0.0000
0.0000 1.5862 0.0000
0.0000 1.6207 0.0000
0.0000 1.6552 0.0000
0.0000 1.6897 0.0000
0.0000 1.7241 0.0000
0.0000 1.7586 0.0000
0.0000 1.7931 0.0000
0.0000 1.8276 0.0000
0.0000 1.8621 0.0000
0.0000 1.8966 0.0000
0.0000 1.9310 0.0000
0.0000 1.9655 0.0000
0.0000 2.0000 0.0000
0.0690 1.0000 0.0000
0.0690 1.0345 0.0000
0.0690 1.0690 0.0000
0.0690 1.1034 0.0000
0.0690 1.1379 0.0000
0.0690 1.1724 0.0000
0.0690 1.2069 0.0000
0.0690 1.2414 0.0000
0.0690 1.2759 0.0000
0.0690 1.3103 0.0000
0.0690 1.3448 0.0000
0.0690 1.3793 0.0000
0.0690 1.4138 0.0000
0.0690 1.4483 0.0000
0.0690 1.4828 0.0000
0.0690 1.5172 0.0000
0.0690 1.5517 0.0000
0.0690 1.5862 0.0000
0.0690 1.6207 0.0000
0.0690 1.6552 0.0000
0.0690 1.6897 0.0000
0.0690 1.7241 0.0000
0.0690 1.7586 0.0000
0.0690 1.7931 0.0000
0.0690 1.8276 0.0000
0.0690 1.8621 0.0000
0.0690 1.8966 0.0000
0.0690 1.9310 0.0000
0.0690 1.9655 0.0000
0.0690 2.0000 0.0000
0.1379 1.0000 0.0000
0.1379 1.0345 0.0000
0.1379 1.0690 0.0000
0.1379 1.1034 0.0000
0.1379 1.1379 0.0000
0.1379 1.1724 0.0000
0.1379 1.2069 0.0000
0.1379 1.2414 0.0000
0.1379 1.2759 0.0000
0.1379 1.3103 0.0000
0.1379 1.3448 0.0000
0.1379 1.3793 0.0000
0.1379 1.4138 0.0000
0.1379 1.4483 0.0000
0.1379 1.4828 0.0000
0.1379 1.5172 0.0000
0.1379 1.5517 0.0000
0.1379 1.5862 0.0000
0.1379 1.6207 0.0000
0.1379 1.6552 0.0000
0.1379 1.6897 0.0000
0.1379 1.7241 0.0000
0.1379 1.7586 0.0000
0.1379 1.7931 0.0000
0.1379 1.8276 0.0000
0.1379 1.8621 0.0000
0.1379 1.8966 0.0000
0.1379 1.9310 0.0000
0.1379 1.9655 0.0000
0.1379 2.0000 0.0000
0.2069 1.0000 0.0000
0.2069 1.0345 0.0000
0.2069 1.0690 0.0000
0.2069 1.1034 0.0000
0.2069 1.1379 0.0000
0.2069 1.1724 0.0000
0.2069 1.2069 0.0000
0.2069 1.2414 0.0000
0.2069 1.2759 0.0000
0.2069 1.3103 0.0000
0.2069 1.3448 0.0000
0.2069 1.3793 0.0000
0.2069 1.4138 0.0000
0.2069 1.4483 0.0000
0.2069 1.4828 0.0000
0.2069 1.5172 0.0000
0.2069 1.5517 0.0000
0.2069 1.5862 0.0000
0.2069 1.6207 0.0000
0.2069 1.6552 0.0000
0.2069 1.6897 0.0000
0.2069 1.7241 0.0000
0.2069 1.7586 0.0000
0.2069 1.7931 0.0000
0.2069 1.8276 0.0000
0.2069 1.8621 0.0000
0.2069 1.8966 0.0000
0.2069 1.9310 0.0000
0.2069 1.9655 0.0000
0.2069 2.0000 0.0000
0.2759 1.0000 0.0000
0.2759 1.0345 0.0000
0.2759 1.0690 0.0000
0.2759 1.1034 0.0000
0.2759 1.1379 0.0000
0.2759 1.1724 0.0000
0.2759 1.2069 0.0000
0.2759 1.2414 0.0000
0.2759 1.2759 0.0000
0.2759 1.3103 0.0000
0.2759 1.3448 0.0000
0.2759 1.3793 0.0000
0.2759 1.4138 0.0000
0.2759 1.4483 0.0000
0.2759 1.4828 0.0000
0.2759 1.5172 0.0000
0.2759 1.5517 0.0000
0.2759 1.5862 0.0000
0.2759 1.6207 0.0000
0.2759 1.6552 0.0000
0.2759 1.6897 0.0000
0.2759 1.7241 0.0000
0.2759 1.7586 0.0000
0.2759 1.7931 0.0000
0.2759 1.8276 0.0000
0.2759 1.8621 0.0000
0.2759 1.8966 0.0000
0.2759 1.9310 0.0000
0.2759 1.9655 0.0000
0.2759 2.0000 0.0000
0.3448 1.0000 0.0000
0.3448 1.0345 0.0000
0.3448 1.0690 0.0000
0.3448 1.1034 0.0000
0.3448 1.1379 0.0000
0.3448 1.1724 0.0000
0.3448 1.2069 0.0000
0.3448 1.2414 0.0000
0.3448 1.2759 0.0000
0.3448 1.3103 0.0000
0.3448 1.3448 0.0000
0.3448 1.3793 0.0000
0.3448 1.4138 0.0000
0.3448 1.4483 0.0000
0.3448 1.4828 0.0000
0.3448 1.5172 0.0000
0.3448 1.5517 0.0000
0.3448 1.5862 0.0000
0.3448 1.6207 0.0000
0.3448 1.6552 0.0000
0.3448 1.6897 0.0000
0.3448 1.7241 0.0000
0.3448 1.7586 0.0000
0.3448 1.7931 0.0000
0.3448 1.8276 0.0000
0.3448 1.8621 0.0000
0.3448 1.8966 0.0000
0.3448 1.9310 0.0000
0.3448 1.9655 0.0000
0.3448 2.0000 0.0000
0.4138 1.0000 0.0000
0.4138 1.0345 0.0000
0.4138 1.0690 0.0000
0.4138 1.1034 0.0000
0.4138 1.1379 0.0000
0.4138 1.1724 0.0000
0.4138 1.2069 0.0000
0.4138 1.2414 0.0000
0.4138 1.2759 0.0000
0.4138 1.3103 0.0000
0.4138 1.3448 0.0000
0.4138 1.3793 0.0000
0.4138 1.4138 0.0000
0.4138 1.4483 0.0000
0.4138 1.4828 0.0000
0.4138 1.5172 0.0000
0.4138 1.5517 0.0000
0.4138 1.5862 0.0000
0.4138 1.6207 0.0000
0.4138 1.6552 0.0000
0.4138 1.6897 0.0000
0.4138 1.7241 0.0000
0.4138 1.7586 0.0000
0.4138 1.7931 0.0000
0.4138 1.8276 0.0000
0.4138 1.8621 0.0000
0.4138 1.8966 0.0000
0.4138 1.9310 0.0000
0.4138 1.9655 0.0000
0.4138 2.0000 0.0000
0.4828 1.0000 0.0000
0.4828 1.0345 0.0000
0.4828 1.0690 0.0000
0.4828 1.1034 0.0000
0.4828 1.1379 0.0000
0.4828 1.1724 0.0000
0.4828 1.2069 0.0000
0.4828 1.2414 0.0000
0.4828 1.2759 0.0000
0.4828 1.3103 0.0000
0.4828 1.3448 0.0000
0.4828 1.3793 0.0000
0.4828 1.4138 0.0000
0.4828 1.4483 0.0000
0.4828 1.4828 0.0000
0.4828 1.5172 0.0000
0.4828 1.5517 0.0000
0.4828 1.5862 0.0000
0.4828 1.6207 0.0000
0.4828 1.6552 0.0000
0.4828 1.6897 0.0000
0.4828 1.7241 0.0000
0.4828 1.7586 0.0000
0.4828 1.7931 0.0000
0.4828 1.8276 0.0000
0.4828 1.8621 0.0000
0.4828 1.8966 0.0000
0.4828 1.9310 0.0000
0.4828 1.9655 0.0000
0.4828 2.0000 0.0000
0.5517 1.0000 0.0000
0.5517 1.0345 0.0000
0.5517 1.0690 0.0000
0.5517 1.1034 0.0000
0.5517 1.1379 0.0000
0.5517 1.1724 0.0000
0.5517 1.2069 0.0000
0.5517 1.2414 0.0000
0.5517 1.2759 0.0000
0.5517 1.3103 0.0000
0.5517 1.3448 0.0000
0.5517 1.3793 0.0000
0.5517 1.4138 0.0000
0.5517 1.4483 0.0000
0.5517 1.4828 0.0000
0.5517 1.5172 0.0000
0.5517 1.5517 0.0000
0.5517 1.5862 0.0000
0.5517 1.6207 0.0000
0.5517 1.6552 0.0000
0.5517 1.6897 0.0000
0.5517 1.7241 0.0000
0.5517 1.7586 0.0000
0.5517 1.7931 0.0000
0.5517 1.8276 0.0000
0.5517 1.8621 0.0000
0.5517 1.8966 0.0000
0.5517 1.9310 0.0000
0.5517 1.9655 0.0000
0.5517 2.0000 0.0000
0.6207 1.0000 0.0000
0.6207 1.0345 0.0000
0.6207 1.0690 0.0000
0.6207 1.1034 0.0000
0.6207 1.1379 0.0000
0.6207 1.1724 0.0000
0.6207 1.2069 0.0000
0.6207 1.2414 0.0000
0.6207 1.2759 0.0000
0.6207 1.3103 0.0000
0.6207 1.3448 0.0000
0.6207 1.3793 0.0000
0.6207 1.4138 0.0000
0.6207 1.4483 0.0000
0.6207 1.4828 0.0000
0.6207 1.5172 0.0000
0.6207 1.5517 0.0000
0.6207 1.5862 0.0000
0.6207 1.6207 0.0000
0.6207 1.6552 0.0000
0.6207 1.6897 0.0000
0.6207 1.7241 0.0000
0.6207 1.7586 0.0000
0.6207 1.7931 0.0000
0.6207 1.8276 0.0000
0.6207 1.8621 0.0000
0.6207 1.8966 0.0000
0.6207 1.9310 0.0000
0.6207 1.9655 0.0000
0.6207 2.0000 0.0000
0.6897 1.0000 0.0000
0.6897 1.0345 0.0000
0.6897 1.0690 0.0000
0.6897 1.1034 0.0000
0.6897 1.1379 0.0000
0.6897 1.1724 0.0000
0.6897 1.2069 0.0000
0.6897 1.2414 0.0000
0.6897 1.2759 0.0000
0.6897 1.3103 0.0000
0.6897 1.3448 0.0000
0.6897 1.3793 0.0000
0.6897 1.4138 0.0000
0.6897 1.4483 0.0000
0.6897 1.4828 0.0000
0.6897 1.5172 0.0000
0.6897 1.5517 0.0000
0.6897 1.5862 0.0000
0.6897 1.6207 0.0000
0.6897 1.6552 0.0000
0.6897 1.6897 0.0000
0.6897 1.7241 0.0000
0.6897 1.7586 0.0000
0.6897 1.7931 0.0000
0.6897 1.8276 0.0000
0.6897 1.8621 0.0000
0.6897 1.8966 0.0000
0.6897 1.9310 0.0000
0.6897 1.9655 0.0000
0.6897 2.0000 0.0000
0.7586 1.0000 0.0000
0.7586 1.0345 0.0000
0.7586 1.0690 0.0000
0.7586 1.1034 0.0000
0.7586 1.1379 0.0000
0.7586 1.1724 0.0000
0.7586 1.2069 0.0000
0.7586 1.2414 0.0000
0.7586 1.2759 0.0000
0.7586 1.3103 0.0000
0.7586 1.3448 0.0000
0.7586 1.3793 0.0000
0.7586 1.4138 0.0000
0.7586 1.4483 0.0000
0.7586 1.4828 0.0000
0.7586 1.5172 0.0000
0.7586 1.5517 0.0000
0.7586 1.5862 0.0000
0.7586 1.6207 0.0000
0.7586 1.6552 0.0000
0.7586 1.6897 0.0000
0.7586 1.7241 0.0000
0.7586 1.7586 0.0000
0.7586 1.7931 0.0000
0.7586 1.8276 0.0000
0.7586 1.8621 0.0000
0.7586 1.8966 0.0000
0.7586 1.9310 0.0000
0.7586 1.9655 0.0000
0.7586 2.0000 0.0000
0.8276 1.0000 0.0000
0.8276 1.0345 0.0000
0.8276 1.0690 0.0000
0.8276 1.1034 0.0000
0.8276 1.1379 0.0000
0.8276 1.1724 0.0000
0.8276 1.2069 0.0000
0.8276 1.2414 0.0000
0.8276 1.2759 0.0000
0.8276 1.3103 0.0000
0.8276 1.3448 0.0000
0.8276 1.3793 0.0000
0.8276 1.4138 0.0000
0.8276 1.4483 0.0000
0.8276 1.4828 0.0000
0.8276 1.5172 0.0000
0.8276 1.5517 0.0000
0.8276 1.5862 0.0000
0.8276 1.6207 0.0000
0.8276 1.6552 0.0000
0.8276 1.6897 0.0000
0.8276 1.7241 0.0000
0.8276 1.7586 0.0000
0.8276 1.7931 0.0000
0.8276 1.8276 0.0000
0.8276 1.8621 0.0000
0.8276 1.8966 0.0000
0.8276 1.9310 0.0000
0.8276 1.9655 0.0000
0.8276 2.0000 0.0000
0.8966 1.0000 0.0000
0.8966 1.0345 0.0000
0.8966 1.0690 0.0000
0.8966 1.1034 0.0000
0.8966 1.1379 0.0000
0.8966 1.1724 0.0000
0.8966 1.2069 0.0000
0.8966 1.2414 0.0000
0.8966 1.2759 0.0000
0.8966 1.3103 0.0000
0.8966 1.3448 0.0000
0.8966 1.3793 0.0000
0.8966 1.4138 0.0000
0.8966 1.4483 0.0000
0.8966 1.4828 0.0000
0.8966 1.5172 0.0000
0.8966 1.5517 0.0000
0.8966 1.5862 0.0000
0.8966 1.6207 0.0000
0.8966 1.6552 0.0000
0.8966 1.6897 0.0000
0.8966 1.7241 0.0000
0.8966 1.7586 0.0000
0.8966 1.7931 0.0000
0.8966 1.8276 0.0000
0.8966 1.8621 0.0000
0.8966 1.8966 0.0000
0.8966 1.9310 0.0000
0.8966 1.9655 0.0000
0.8966 2.0000 0.0000
0.9655 1.0000 0.0000
0.9655 1.0345 0.0000
0.9655 1.0690 0.0000
0.9655 1.1034 0.0000
0.9655 1.1379 0.0000
0.9655 1.1724 0.0000
0.9655 1.2069 0.0000
0.9655 1.2414 0.0000
0.9655 1.2759 0.0000
0.9655 1.3103 0.0000
0.9655 1.3448 0.0000
0.9655 1.3793 0.0000
0.9655 1.4138 0.0000
0.9655 1.4483 0.0000
0.9655 1.4828 0.0000
0.9655 1.5172 0.0000
0.9655 1.5517 0.0000
0.9655 1.5862 0.0000
0.9655 1.6207 0.0000
0.9655 1.6552 0.0000
0.9655 1.6897 0.0000
0.9655 1.7241 0.0000
0.9655 1.7586 0.0000
0.9655 1.7931 0.0000
0.9655 1.8276 0.0000
0.9655 1.8621 0.0000
0.9655 1.8966 0.0000
0.9655 1.9310 0.0000
0.9655 1.9655 0.0000
0.9655 2.0000 0.0000
1.0345 1.0000 0.0000
1.0345 1.0345 0.0000
1.0345 1.0690 0.0000
1.0345 1.1034 0.0000
1.0345 1.1379 0.0000
1.0345 1.1724 0.0000
1.0345 1.2069 0.0000
1.0345 1.2414 0.0000
1.0345 1.2759 0.0000
1.0345 1.3103 0.0000
1.0345 1.3448 0.0000
[...]
         <PointData>
            <DataArray Name="fValues" NumberOfComponents="3" format="ascii" type="Float64">
 4.69431e-33 -1.63545e-32        00000 
-1.12756e-32  3.66719e-32        00000 
 4.79659e-32 -1.43066e-31        00000 
-2.04316e-31  5.59518e-31        00000 
 8.32389e-31 -2.08644e-30        00000 
-3.21147e-30  7.35167e-30        00000 
 1.16272e-29 -2.43116e-29        00000 
-3.91224e-29  7.49834e-29        00000 
 1.21146e-28 -2.14486e-28        00000 
-3.42090e-28  5.66174e-28        00000 
 8.73924e-28 -1.37286e-27        00000 
-2.00697e-27  3.04441e-27        00000 
 4.12343e-27 -6.14756e-27        00000 
-7.55373e-27  1.12573e-26        00000 
 1.23115e-26 -1.86231e-26        00000 
-1.78332e-26  2.77385e-26        00000 
 2.29519e-26 -3.70859e-26        00000 
-2.62606e-26  4.43848e-26        00000 
 2.67391e-26 -4.74323e-26        00000 
-2.42625e-26  4.51612e-26        00000 
 1.96462e-26 -3.82391e-26        00000 
-1.42140e-26  2.87564e-26        00000 
 9.19778e-27 -1.91963e-26        00000 
-5.32814e-27  1.13810e-26        00000 
 2.76638e-27 -6.00397e-27        00000 
-1.28999e-27  2.82843e-27        00000 
 5.42411e-28 -1.19699e-27        00000 
-2.08068e-28  4.61352e-28        00000 
 7.83003e-29 -1.74493e-28        00000 
-4.56520e-29  1.02142e-28        00000 
-6.20346e-33  2.34404e-32        00000 
 1.53811e-32 -5.43693e-32        00000 
-6.82327e-32  2.21807e-31        00000 
 3.04084e-31 -9.08749e-31        00000 
-1.30367e-30  3.56443e-30        00000 
 5.32623e-30 -1.32614e-29        00000 
-2.05449e-29  4.64382e-29        00000 
 7.40307e-29 -1.51890e-28        00000 
-2.46335e-28  4.60752e-28        00000 
 7.48128e-28 -1.28825e-27        00000 
-2.05159e-27  3.30184e-27        00000 
 5.03457e-27 -7.71752e-27        00000 
-1.09795e-26  1.63645e-26        00000 
 2.11738e-26 -3.13176e-26        00000 
-3.59902e-26  5.38314e-26        00000 
 5.38205e-26 -8.27468e-26        00000 
-7.07703e-26  1.13305e-25        00000 
 8.18715e-26 -1.37722e-25        00000 
-8.34437e-26  1.48119e-25        00000 
 7.50651e-26 -1.40545e-25        00000 
-5.97155e-26  1.17375e-25        00000 
 4.20748e-26 -8.61339e-26        00000 
-2.62871e-26  5.55119e-26        00000 
 1.45778e-26 -3.14530e-26        00000 
-7.18701e-27  1.57155e-26        00000 
 3.15941e-27 -6.96214e-27        00000 
-1.24527e-27  2.75732e-27        00000 
 4.45751e-28 -9.91226e-28        00000 
-1.55469e-28  3.47678e-28        00000 
 8.57947e-29 -1.92823e-28        00000 
 1.11064e-32 -4.83298e-32        00000 
-2.90099e-32  1.18071e-31        00000 
 1.37461e-31 -5.14608e-31        00000 
-6.56127e-31  2.25476e-30        00000 
 3.03185e-30 -9.49982e-30        00000 
-1.34418e-29  3.81254e-29        00000 
 5.66394e-29 -1.44461e-28        00000 
-2.24235e-28  5.11961e-28        00000 
 8.22973e-28 -1.68138e-27        00000 
-2.75937e-27  5.07593e-27        00000 
 8.33077e-27 -1.39929e-26        00000 
-2.23614e-26  3.50217e-26        00000 
 5.28409e-26 -7.91122e-26        00000 
-1.09159e-25  1.60293e-25        00000 
 1.96225e-25 -2.89520e-25        00000 
-3.06118e-25  4.63575e-25        00000 
 4.14063e-25 -6.54781e-25        00000 
-4.85945e-25  8.12179e-25        00000 
 4.95810e-25 -8.80948e-25        00000 
-4.40985e-25  8.32322e-25        00000 
 3.42814e-25 -6.82698e-25        00000 
-2.33370e-25  4.85027e-25        00000 
 1.39261e-25 -2.98276e-25        00000 
-7.29034e-26  1.59050e-25        00000 
 3.35426e-26 -7.38905e-26        00000 
-1.36225e-26  3.01548e-26        00000 
 4.92254e-27 -1.09363e-26        00000 
-1.60669e-27  3.58696e-27        00000 
 5.06788e-28 -1.13991e-27        00000 
-2.59448e-28  5.87621e-28        00000 
-2.03291e-32  1.01996e-31        00000 
 5.55556e-32 -2.60669e-31        00000 
-2.78504e-31  1.20279e-30        00000 
 1.41015e-30 -5.59038e-30        00000 
-6.95409e-30  2.51172e-29        00000 
 3.31399e-29 -1.08111e-28        00000 
-1.51293e-28  4.41725e-28        00000 
 6.54376e-28 -1.69515e-27        00000 
-2.64436e-27  6.04022e-27        00000 
 9.81810e-27 -1.97656e-26        00000 
-3.28803e-26  5.88669e-26        00000 
 9.75555e-26 -1.58498e-25        00000 
-2.52683e-25  3.83433e-25        00000 
 5.65415e-25 -8.27385e-25        00000 
-1.08549e-24  1.57989e-24        00000 
 1.78037e-24 -2.64992e-24        00000 
-2.49010e-24  3.87913e-24        00000 
 2.97182e-24 -4.92710e-24        00000 
-3.03499e-24  5.39937e-24        00000 
 2.66318e-24 -5.07720e-24        00000 
-2.01570e-24  4.07736e-24        00000 
 1.31893e-24 -2.78749e-24        00000 
-7.46501e-25  1.62130e-24        00000 
 3.65597e-25 -8.04890e-25        00000 
-1.55362e-25  3.43858e-25        00000 
 5.77075e-26 -1.28073e-25        00000 
-1.89710e-26  4.22807e-26        00000 
 5.62763e-27 -1.26315e-26        00000 
-1.61024e-27  3.65107e-27        00000 
 7.67190e-28 -1.75530e-27        00000 
 3.47208e-32 -2.02229e-31        00000 
-9.86591e-32  5.37975e-31        00000 
 5.19263e-31 -2.61191e-30        00000 
-2.76948e-30  1.28122e-29        00000 
 1.44791e-29 -6.11305e-29        00000 
-7.37250e-29  2.81425e-28        00000 
 3.62938e-28 -1.23923e-27        00000 
-1.71062e-27  5.16288e-27        00000 
 7.61896e-27 -2.00857e-26        00000 
-3.15192e-26  7.19198e-26        00000 
 1.18528e-25 -2.33872e-25        00000 
-3.95544e-25  6.83998e-25        00000 
 1.14492e-24 -1.78834e-24        00000 
-2.82661e-24  4.15013e-24        00000 
 5.88975e-24 -8.46231e-24        00000 
-1.02883e-23  1.50047e-23        00000 
 1.50101e-23 -2.29367e-23        00000 
-1.82898e-23  2.99981e-23        00000 
 1.86894e-23 -3.33087e-23        00000 
-1.61226e-23  3.11519e-23        00000 
 1.18124e-23 -2.43674e-23        00000 
-7.36797e-24  1.58673e-23        00000 
 3.90862e-24 -8.59945e-24        00000 
-1.76295e-24  3.90466e-24        00000 
 6.79875e-25 -1.50756e-24        00000 
-2.27220e-25  5.05343e-25        00000 
 6.71183e-26 -1.50382e-25        00000 
-1.79868e-26  4.07298e-26        00000 
 4.67668e-27 -1.07275e-26        00000 
-2.07726e-27  4.81704e-27        00000 
-5.40219e-32  3.70579e-31        00000 
 1.58867e-31 -1.02202e-30        00000 
-8.72787e-31  5.19429e-30        00000 
 4.87595e-30 -2.67659e-29        00000 
-2.68710e-29  1.35030e-28        00000 
 1.45351e-28 -6.62419e-28        00000 
-7.67368e-28  3.13626e-27        00000 
 3.92339e-27 -1.41881e-26        00000 
-1.92149e-26  6.05262e-26        00000 
 8.87568e-26 -2.39452e-25        00000 
-3.78354e-25  8.61972e-25        00000 
 1.44605e-24 -2.77718e-24        00000 
-4.79721e-24  7.93187e-24        00000 
 1.34046e-23 -2.00116e-23        00000 
-3.10005e-23  4.41293e-23        00000 
 5.87606e-23 -8.37277e-23        00000 
-9.06159e-23  1.34991e-22        00000 
 1.13402e-22 -1.83176e-22        00000 
-1.15827e-22  2.06981e-22        00000 
 9.77171e-23 -1.92401e-22        00000 
-6.87910e-23  1.45487e-22        00000 
 4.04534e-23 -8.88544e-23        00000 
-1.97632e-23  4.38824e-23        00000 
 8.02232e-24 -1.77864e-23        00000 
-2.74465e-24  6.08645e-24        00000 
 8.10512e-25 -1.81170e-24        00000 
-2.12761e-25  4.81573e-25        00000 
 5.15892e-26 -1.18435e-25        00000 
-1.22637e-26  2.85760e-26        00000 
 5.08721e-27 -1.20011e-26        00000 
 7.57235e-32 -6.24846e-31        00000 
-2.29470e-31  1.77902e-30        00000 
 1.30868e-30 -9.41377e-30        00000 
-7.61492e-30  5.06839e-29        00000 
 4.39632e-29 -2.68848e-28        00000 
-2.50940e-28  1.39758e-27        00000 
 1.41063e-27 -7.07795e-27        00000 
-7.76642e-27  3.46381e-26        00000 
 4.15438e-26 -1.61936e-25        00000 
-2.13335e-25  7.11690e-25        00000 
 1.03265e-24 -2.87654e-24        00000 
-4.58156e-24  1.04135e-23        00000 
 1.78879e-23 -3.30796e-23        00000 
-5.87512e-23  9.15313e-23        00000 
 1.55654e-22 -2.21509e-22        00000 
-3.28731e-22  4.57511e-22        00000 
 5.47473e-22 -7.88196e-22        00000 
-7.10647e-22  1.12115e-21        00000 
 7.23315e-22 -1.29825e-21        00000 
-5.91861e-22  1.19890e-21        00000 
 3.97057e-22 -8.66251e-22        00000 
-2.16715e-22  4.83966e-22        00000 
 9.46436e-23 -2.10301e-22        00000 
-3.34673e-23  7.38870e-23        00000 
 9.91688e-24 -2.20898e-23        00000 
-2.53354e-24  5.73269e-24        00000 
 5.94107e-25 -1.36785e-24        00000 
-1.31900e-25  3.08537e-25        00000 
 2.87733e-26 -6.83991e-26        00000 
-1.11664e-26  2.69191e-26        00000 
-9.44997e-32  9.67268e-31        00000 
 2.93801e-31 -2.82995e-30        00000 
-1.72970e-30  1.54991e-29        00000 
 1.04208e-29 -8.66550e-29        00000 
-6.26071e-29  4.80062e-28        00000 
 3.74257e-28 -2.62519e-27        00000 
-2.22107e-27  1.41121e-26        00000 
 1.30430e-26 -7.41389e-26        00000 
-7.54148e-26  3.77410e-25        00000 
 4.26040e-25 -1.83790e-24        00000 
-2.32242e-24  8.39577e-24        00000 
 1.19621e-23 -3.49225e-23        00000 
-5.61282e-23  1.27077e-22        00000 
 2.25533e-22 -3.94609e-22        00000 
-7.28150e-22  1.04532e-21        00000 
 1.76734e-21 -2.42694e-21        00000 
-3.29623e-21  4.54514e-21        00000 
 4.53728e-21 -6.85807e-21        00000 
-4.55250e-21  8.24974e-21        00000 
 3.56276e-21 -7.56392e-21        00000 
-2.27331e-21  5.12532e-21        00000 
 1.11533e-21 -2.50251e-21        00000 
-4.11177e-22  9.00537e-22        00000 
 1.23969e-22 -2.74720e-22        00000 
-3.02955e-23  6.85361e-23        00000 
 6.78904e-24 -1.57109e-23        00000 
-1.46513e-24  3.45070e-24        00000 
 2.97212e-25 -7.11640e-25        00000 
-5.96720e-26  1.45541e-25        00000 
 2.17603e-26 -5.39512e-26        00000 
 1.03026e-31 -1.37239e-30        00000 
-3.27174e-31  4.10559e-30        00000 
 1.97730e-30 -2.31257e-29        00000 
-1.22589e-29  1.33358e-28        00000 
 7.61111e-29 -7.65745e-28        00000 
-4.72679e-28  4.36723e-27        00000 
 2.93390e-27 -2.46789e-26        00000 
-1.81766e-26  1.37693e-25        00000 
 1.12157e-25 -7.54490e-25        00000 
-6.86767e-25  4.02651e-24        00000 
 4.14691e-24 -2.06456e-23        00000 
-2.44107e-23  9.93647e-23        00000 
 1.36985e-22 -4.30726e-22        00000 
-6.99108e-22  1.57018e-21        00000 
 2.92012e-21 -4.69553e-21        00000 
-9.16429e-21  1.16725e-20        00000 
 1.88276e-20 -2.68081e-20        00000 
-3.07315e-20  4.02501e-20        00000 
 2.83637e-20 -5.47991e-20        00000 
-2.10618e-20  4.73838e-20        00000 
 1.33141e-20 -3.09105e-20        00000 
-5.00367e-21  1.07560e-20        00000 
 1.61375e-21 -3.55166e-21        00000 
-3.63713e-22  8.22844e-22        00000 
 7.55163e-23 -1.76516e-22        00000 
-1.61787e-23  3.84730e-23        00000 
 3.11989e-24 -7.54731e-24        00000 
-5.78884e-25  1.42998e-24        00000 
 1.08014e-25 -2.72821e-25        00000 
-3.73455e-26  9.60959e-26        00000 
-9.44943e-32  1.78221e-30        00000 
 3.05225e-31 -5.42289e-30        00000 
-1.88349e-30  3.12062e-29        00000 
 1.19459e-29 -1.84273e-28        00000 
-7.61194e-29  1.08766e-27        00000 
 4.87159e-28 -6.40812e-27        00000 
-3.13236e-27  3.76466e-26        00000 
 2.02395e-26 -2.20199e-25        00000 
-1.31429e-25  1.27923e-24        00000 
 8.57492e-25 -7.35178e-24        00000 
-5.61503e-24  4.15103e-23        00000 
 3.67981e-23 -2.27370e-22        00000 
-2.39648e-22  1.17790e-21        00000 
 1.52271e-21 -5.45437e-21        00000 
-8.94041e-21  1.96644e-20        00000 
 3.91839e-20 -5.52939e-20        00000 
-1.18237e-19  1.23126e-19        00000 
 1.77760e-19 -3.06228e-19        00000 
-1.78083e-19  3.67208e-19        00000 
 1.19991e-19 -2.67280e-19        00000 
-5.36241e-20  1.32480e-19        00000 
 1.87327e-20 -4.25054e-20        00000 
-4.28387e-21  1.01181e-20        00000 
 8.66350e-22 -2.11840e-21        00000 
-1.81301e-22  4.36187e-22        00000 
 3.17732e-23 -7.77765e-23        00000 
-5.54644e-24  1.39684e-23        00000 
 9.59044e-25 -2.48142e-24        00000 
-1.69206e-25  4.48521e-25        00000 
 5.61695e-26 -1.51687e-25        00000 
 6.60167e-32 -2.11559e-30        00000 
-2.16253e-31  6.51152e-30        00000 
 1.35713e-30 -3.80161e-29        00000 
-8.76423e-30  2.28125e-28        00000 
 5.69882e-29 -1.37204e-27        00000 
-3.73232e-28  8.26554e-27        00000 
 2.46469e-27 -4.98766e-26        00000 
-1.64330e-26  3.01454e-25        00000 
 1.10808e-25 -1.82449e-24        00000 
-7.57252e-25  1.10509e-23        00000 
 5.25895e-24 -6.68914e-23        00000 
-3.72432e-23  4.03329e-22        00000 
 2.70121e-22 -2.40388e-21        00000 
-2.01615e-21  1.38757e-20        00000 
 1.55179e-20 -7.26159e-20        00000 
-1.20163e-19  2.47366e-19        00000 
 5.46875e-19 -6.40452e-19        00000 
-1.29111e-18  2.05618e-18        00000 
 1.14689e-18 -2.67879e-18        00000 
-6.97413e-19  1.52383e-18        00000 
 2.70801e-19 -5.77537e-19        00000 
-5.17982e-20  1.23919e-19        00000 
 9.36738e-21 -2.36072e-20        00000 
-1.62252e-21  4.24363e-21        00000 
 2.98331e-22 -7.38312e-22        00000 
-4.92549e-23  1.28112e-22        00000 
 8.11998e-24 -2.18857e-23        00000 
-1.34379e-24  3.71720e-24        00000 
 2.28692e-25 -6.45792e-25        00000 
-7.39096e-26  2.11869e-25        00000 
-2.11081e-32  2.29277e-30        00000 
 7.09011e-32 -7.09733e-30        00000 
-4.57435e-31  4.17374e-29        00000 
 3.03483e-30 -2.52499e-28        00000 
-2.02861e-29  1.53324e-27        00000 
 1.36725e-28 -9.34301e-27        00000 
-9.30607e-28  5.71681e-26        00000 
 6.40953e-27 -3.51526e-25        00000 
-4.47891e-26  2.17447e-24        00000 
 3.18671e-25 -1.35502e-23        00000 
-2.31995e-24  8.52247e-23        00000 
 1.74056e-23 -5.42458e-22        00000 
-1.36059e-22  3.50739e-21        00000 
 1.12828e-21 -2.31559e-20        00000 
-1.02581e-20  1.56909e-19        00000 
 1.09913e-19 -1.07371e-18        00000 
-1.80414e-18  2.94240e-18        00000 
 6.28056e-18 -9.16783e-18        00000 
-1.13868e-17  2.28257e-17        00000 
 3.60580e-18 -1.05163e-17        00000 
-5.89412e-19  1.49634e-18        00000 
 9.51592e-20 -2.51272e-19        00000 
-1.49070e-20  4.09426e-20        00000 
 2.30527e-21 -6.66027e-21        00000 
-3.83870e-22  1.07639e-21        00000 
 6.10672e-23 -1.77716e-22        00000 
-9.83719e-24  2.92127e-23        00000 
 1.59550e-24 -4.80654e-24        00000 
-2.66861e-25  8.12978e-25        00000 
 8.51146e-26 -2.61399e-25        00000 
-3.05608e-32 -2.26559e-30        00000 
 9.79967e-32  7.01141e-30        00000 
-6.00956e-31 -4.12217e-29        00000 
 3.79811e-30  2.49331e-28        00000 
-2.41884e-29 -1.51384e-27        00000 
 1.55308e-28  9.22494e-27        00000 
-1.00682e-27 -5.64583e-26        00000 
 6.60219e-27  3.47354e-25        00000 
-4.38998e-26 -2.15101e-24        00000 
 2.96966e-25  1.34309e-23        00000 
-2.05313e-24 -8.47772e-23        00000 
 1.46049e-23  5.43126e-22        00000 
-1.08004e-22 -3.55515e-21        00000 
 8.44752e-22  2.40699e-20        00000 
-7.21935e-21 -1.73067e-19        00000 
 7.27863e-20  1.42303e-18        00000 
-1.20116e-18 -1.96384e-17        00000 
-7.50427e-02 -2.21074e-01        00000 
 7.50427e-02 -2.21074e-01        00000 
-6.84382e-18  1.63637e-17        00000 
 8.24048e-19 -2.37523e-18        00000 
-1.16016e-19  3.42139e-19        00000 
 1.59733e-20 -5.25697e-20        00000 
-2.34886e-21  7.87185e-21        00000 
 3.83990e-22 -1.30345e-21        00000 
-6.17898e-23  2.05981e-22        00000 
 9.93814e-24 -3.29957e-23        00000 
-1.61111e-24  5.33909e-24        00000 
 2.69387e-25 -8.91788e-25        00000 
-8.58946e-26  2.84179e-25        00000 
 7.65222e-32  2.03825e-30        00000 
-2.47345e-31 -6.26706e-30        00000 
 1.53001e-30  3.65477e-29        00000 
-9.74780e-30 -2.19087e-28        00000 
 6.25561e-29  1.31646e-27        00000 
-4.04535e-28 -7.92485e-27        00000 
 2.63933e-27  4.78007e-26        00000 
-1.74003e-26 -2.88943e-25        00000 
 1.16147e-25  1.75060e-24        00000 
-7.87023e-25 -1.06311e-23        00000 
 5.43288e-24  6.46962e-23        00000 
-3.83952e-23 -3.94166e-22        00000 
 2.79790e-22  2.39713e-21        00000 
-2.12523e-21 -1.44165e-20        00000 
 1.71188e-20  8.27566e-20        00000 
-1.50074e-19 -3.61070e-19        00000 
 1.33821e-18 -5.82986e-18        00000 
 7.50427e-02 -2.21074e-01        00000 
-7.50427e-02 -2.21074e-01        00000 
 3.68625e-21 -1.87497e-17        00000 
-4.03876e-19  1.98141e-18        00000 
 7.12731e-20 -2.98456e-19        00000 
-1.18975e-20  4.61257e-20        00000 
 1.90820e-21 -7.28491e-21        00000 
-3.16106e-22  1.21642e-21        00000 
 5.09594e-23 -1.93008e-22        00000 
-8.39133e-24  3.11118e-23        00000 
 1.38700e-24 -5.06004e-24        00000 
-2.35703e-25  8.49028e-25        00000 
 7.60721e-26 -2.71527e-25        00000 
-1.06406e-31 -1.66660e-30        00000 
 3.41656e-31  5.05783e-30        00000 
-2.09538e-30 -2.90135e-29        00000 
 1.32194e-29  1.70756e-28        00000 
-8.38465e-29 -1.00418e-27        00000 
 5.34610e-28  5.89195e-27        00000 
-3.42851e-27 -3.44514e-26        00000 
 2.21288e-26  2.00393e-25        00000 
-1.43837e-25 -1.15618e-24        00000 
 9.42097e-25  6.58377e-24        00000 
-6.21960e-24 -3.66621e-23        00000 
 4.13667e-23  1.95879e-22        00000 
-2.76399e-22 -9.58409e-22        00000 
 1.83732e-21  3.66225e-21        00000 
-1.17415e-20 -3.08326e-22        00000 
 6.15374e-20 -2.31295e-19        00000 
-2.65100e-21  5.91092e-19        00000 
 2.56077e-19 -1.54324e-18        00000 
-1.31179e-18  6.29950e-19        00000 
-1.58719e-19  1.15046e-19        00000 
 3.80782e-20 -8.36430e-19        00000 
-2.41890e-20  1.62145e-19        00000 
 5.59043e-21 -2.88866e-20        00000 
-1.08533e-21  4.97154e-21        00000 
 1.86224e-22 -8.46554e-22        00000 
-3.41022e-23  1.44921e-22        00000 
 5.93238e-24 -2.43428e-23        00000 
-1.02033e-24  4.07568e-24        00000 
 1.79105e-25 -6.99754e-25        00000 
-5.92184e-26  2.27601e-25        00000 
 1.15748e-31  1.23578e-30        00000 
-3.66755e-31 -3.67568e-30        00000 
 2.21233e-30  2.05517e-29        00000 
-1.37020e-29 -1.17523e-28        00000 
 8.50620e-29  6.67980e-28        00000 
-5.28824e-28 -3.76139e-27        00000 
 3.29069e-27  2.09058e-26        00000 
-2.04778e-26 -1.14028e-25        00000 
 1.27242e-25  6.04491e-25        00000 
-7.87314e-25 -3.06062e-24        00000 
 4.82689e-24  1.42743e-23        00000 
-2.90422e-23 -5.58142e-23        00000 
 1.68107e-22  1.18421e-22        00000 
-8.93334e-22  7.78321e-22        00000 
 3.80541e-21 -1.25390e-20        00000 
-7.07185e-21  5.12452e-20        00000 
 2.08397e-20 -1.54688e-19        00000 
-7.56444e-20  1.75742e-19        00000 
 1.06887e-19 -1.09803e-19        00000 
-4.12290e-20 -1.25820e-20        00000 
-1.99161e-20  7.37113e-20        00000 
 4.96107e-21 -4.94948e-20        00000 
-1.79625e-21  1.22910e-20        00000 
 4.53513e-22 -2.52245e-21        00000 
-1.02573e-22  4.89008e-22        00000 
 1.90105e-23 -8.87817e-23        00000 
-3.53909e-24  1.58708e-23        00000 
 6.43807e-25 -2.79150e-24        00000 
-1.18485e-25  4.99082e-25        00000 
 4.05884e-26 -1.67263e-25        00000 
-1.06801e-31 -8.28512e-31        00000 
 3.32101e-31  2.39657e-30        00000 
-1.95688e-30 -1.29265e-29        00000 
 1.18099e-29  7.09616e-29        00000 
-7.11500e-29 -3.84020e-28        00000 
 4.27054e-28  2.03553e-27        00000 
-2.54872e-27 -1.04768e-26        00000 
 1.50811e-26  5.16087e-26        00000 
-8.80777e-26 -2.36862e-25        00000 
 5.04066e-25  9.54590e-25        00000 
-2.79269e-24 -2.80781e-24        00000 
 1.46564e-23 -4.25559e-25        00000 
-6.98553e-23  9.13804e-23        00000 
 2.76390e-22 -8.30945e-22        00000 
-7.51135e-22  3.78972e-21        00000 
 1.98469e-21 -1.16200e-20        00000 
-6.53371e-21  2.00077e-20        00000 