<?xml version="1.0" encoding="utf-8"?>
<VTKFile byte_order="LittleEndian" type="UnstructuredGrid" version="0.1">
   <UnstructuredGrid>
      <Piece NumberOfCells="3364" NumberOfPoints="1741">
         <Points>
            <DataArray Name="Points" NumberOfComponents="3" format="ascii" type="Float32">
0.0000 1.0000 0.0000
0.0000 1.0345 0.0000
0.0000 1.0690 0.0000
0.0000 1.1034 0.0000
0.0000 1.1379 0.0000
0.0000 1.1724 0.0000
0.0000 1.2069 0.0000
0.0000 1.2414 0.0000
0.0000 1.2759 0.0000
0.0000 1.3103 0.0000
0.0000 1.3448 0.0000
0.0000 1.3793 0.0000
0.0000 1.4138 0.0000
0.0000 1.4483 0.0000
0.0000 1.4828 0.0000
0.0000 1.5172 0.0000
0.0000 1.5517 0.0000
0.0000 1.5862 0.0000
0.0000 1.6207 0.0000
0.0000 1.6552 0.0000
0.0000 1.6897 0.0000
0.0000 1.7241 0.0000
0.0000 1.7586 0.0000
0.0000 1.7931 0.0000
0.0000 1.8276 0.0000
0.0000 1.8621 0.0000
0.0000 1.8966 0.0000
0.0000 1.9310 0.0000
0.0000 1.9655 0.0000
0.0000 2.0000 0.0000
0.0690 1.0000 0.0000
0.0690 1.0345 0.0000
0.0690 1.0690 0.0000
0.0690 1.1034 0.0000
0.0690 1.1379 0.0000
0.0690 1.1724 0.0000
0.0690 1.2069 0.0000
0.0690 1.2414 0.0000
0.0690 1.2759 0.0000
0.0690 1.3103 0.0000
0.0690 1.3448 0.0000
0.0690 1.3793 0.0000
0.0690 1.4138 0.0000
0.0690 1.4483 0.0000
0.0690 1.4828 0.0000
0.0690 1.5172 0.0000
0.0690 1.5517 0.0000
0.0690 1.5862 0.0000
0.0690 1.6207 0.0000
0.0690 1.6552 0.0000
0.0690 1.6897 0.0000
0.0690 1.7241 0.0000
0.0690 1.7586 0.0000
0.0690 1.7931 0.0000
0.0690 1.8276 0.0000
0.0690 1.8621 0.0000
0.0690 1.8966 0.0000
0.0690 1.9310 0.0000
0.0690 1.9655 0.0000
0.0690 2.0000 0.0000
0.1379 1.0000 0.0000
0.1379 1.0345 0.0000
0.1379 1.0690 0.0000
0.1379 1.1034 0.0000
0.1379 1.1379 0.0000
0.1379 1.1724 0.0000
0.1379 1.2069 0.0000
0.1379 1.2414 0.0000
0.1379 1.2759 0.0000
0.1379 1.3103 0.0000
0.1379 1.3448 0.0000
0.1379 1.3793 0.0000
0.1379 1.4138 0.0000
0.1379 1.4483 0.0000
0.1379 1.4828 0.0000
0.1379 1.5172 0.0000
0.1379 1.5517 0.0000
0.1379 1.5862 0.0000
0.1379 1.6207 0.0000
0.1379 1.6552 0.0000
0.1379 1.6897 0.0000
0.1379 1.7241 0.0000
0.1379 1.7586 0.0000
0.1379 1.7931 0.0000
0.1379 1.8276 0.0000
0.1379 1.8621 0.0000
0.1379 1.8966 0.0000
0.1379 1.9310 0.0000
0.1379 1.9655 0.0000
0.1379 2.0000 0.0000
0.2069 1.0000 0.0000
0.2069 1.0345 0.0000
0.2069 1.0690 0.0000
0.2069 1.1034 0.0000
0.2069 1.1379 0.0000
0.2069 1.1724 0.0000
0.2069 1.2069 0.0000
0.2069 1.2414 0.0000
0.2069 1.2759 0.0000
0.2069 1.3103 0.0000
0.2069 1.3448 0.0000
0.2069 1.3793 0.0000
0.2069 1.4138 0.0000
0.2069 1.4483 0.0000
0.2069 1.4828 0.0000
0.2069 1.5172 0.0000
0.2069 1.5517 0.0000
0.2069 1.5862 0.0000
0.2069 1.6207 0.0000
0.2069 1.6552 0.0000
0.2069 1.6897 0.0000
0.2069 1.7241 0.0000
0.2069 1.7586 0.0000
0.2069 1.7931 0.0000
0.2069 1.8276 0.0000
0.2069 1.8621 0.0000
0.2069 1.8966 0.0000
0.2069 1.9310 0.0000
0.2069 1.9655 0.0000
0.2069 2.0000 0.0000
0.2759 1.0000 0.0000
0.2759 1.0345 0.0000
0.2759 1.0690 0.0000
0.2759 1.1034 0.0000
0.2759 1.1379 0.0000
0.2759 1.1724 0.0000
0.2759 1.2069 0.0000
0.2759 1.2414 0.0000
0.2759 1.2759 0.0000
0.2759 1.3103 0.0000
0.2759 1.3448 0.0000
0.2759 1.3793 0.0000
0.2759 1.4138 0.0000
0.2759 1.4483 0.0000
0.2759 1.4828 0.0000
0.2759 1.5172 0.0000
0.2759 1.5517 0.0000
0.2759 1.5862 0.0000
0.2759 1.6207 0.0000
0.2759 1.6552 0.0000
0.2759 1.6897 0.0000
0.2759 1.7241 0.0000
0.2759 1.7586 0.0000
0.2759 1.7931 0.0000
0.2759 1.8276 0.0000
0.2759 1.8621 0.0000
0.2759 1.8966 0.0000
0.2759 1.9310 0.0000
0.2759 1.9655 0.0000
0.2759 2.0000 0.0000
0.3448 1.0000 0.0000
0.3448 1.0345 0.0000
0.3448 1.0690 0.0000
0.3448 1.1034 0.0000
0.3448 1.1379 0.0000
0.3448 1.1724 0.0000
0.3448 1.2069 0.0000
0.3448 1.2414 0.0000
0.3448 1.2759 0.0000
0.3448 1.3103 0.0000
0.3448 1.3448 0.0000
0.3448 1.3793 0.0000
0.3448 1.4138 0.0000
0.3448 1.4483 0.0000
0.3448 1.4828 0.0000
0.3448 1.5172 0.0000
0.3448 1.5517 0.0000
0.3448 1.5862 0.0000
0.3448 1.6207 0.0000
0.3448 1.6552 0.0000
0.3448 1.6897 0.0000
0.3448 1.7241 0.0000
0.3448 1.7586 0.0000
0.3448 1.7931 0.0000
0.3448 1.8276 0.0000
0.3448 1.8621 0.0000
0.3448 1.8966 0.0000
0.3448 1.9310 0.0000
0.3448 1.9655 0.0000
0.3448 2.0000 0.0000
0.4138 1.0000 0.0000
0.4138 1.0345 0.0000
0.4138 1.0690 0.0000
0.4138 1.1034 0.0000
0.4138 1.1379 0.0000
0.4138 1.1724 0.0000
0.4138 1.2069 0.0000
0.4138 1.2414 0.0000
0.4138 1.2759 0.0000
0.4138 1.3103 0.0000
0.4138 1.3448 0.0000
0.4138 1.3793 0.0000
0.4138 1.4138 0.0000
0.4138 1.4483 0.0000
0.4138 1.4828 0.0000
0.4138 1.5172 0.0000
0.4138 1.5517 0.0000
0.4138 1.5862 0.0000
0.4138 1.6207 0.0000
0.4138 1.6552 0.0000
0.4138 1.6897 0.0000
0.4138 1.7241 0.0000
0.4138 1.7586 0.0000
0.4138 1.7931 0.0000
0.4138 1.8276 0.0000
0.4138 1.8621 0.0000
0.4138 1.8966 0.0000
0.4138 1.9310 0.0000
0.4138 1.9655 0.0000
0.4138 2.0000 0.0000
0.4828 1.0000 0.0000
0.4828 1.0345 0.0000
0.4828 1.0690 0.0000
0.4828 1.1034 0.0000
0.4828 1.1379 0.0000
0.4828 1.1724 0.0000
0.4828 1.2069 0.0000
0.4828 1.2414 0.0000
0.4828 1.2759 0.0000
0.4828 1.3103 0.0000
0.4828 1.3448 0.0000
0.4828 1.3793 0.0000
0.4828 1.4138 0.0000
0.4828 1.4483 0.0000
0.4828 1.4828 0.0000
0.4828 1.5172 0.0000
0.4828 1.5517 0.0000
0.4828 1.5862 0.0000
0.4828 1.6207 0.0000
0.4828 1.6552 0.0000
0.4828 1.6897 0.0000
0.4828 1.7241 0.0000
0.4828 1.7586 0.0000
0.4828 1.7931 0.0000
0.4828 1.8276 0.0000
0.4828 1.8621 0.0000
0.4828 1.8966 0.0000
0.4828 1.9310 0.0000
0.4828 1.9655 0.0000
0.4828 2.0000 0.0000
0.5517 1.0000 0.0000
0.5517 1.0345 0.0000
0.5517 1.0690 0.0000
0.5517 1.1034 0.0000
0.5517 1.1379 0.0000
0.5517 1.1724 0.0000
0.5517 1.2069 0.0000
0.5517 1.2414 0.0000
0.5517 1.2759 0.0000
0.5517 1.3103 0.0000
0.5517 1.3448 0.0000
0.5517 1.3793 0.0000
0.5517 1.4138 0.0000
0.5517 1.4483 0.0000
0.5517 1.4828 0.0000
0.5517 1.5172 0.0000
0.5517 1.5517 0.0000
0.5517 1.5862 0.0000
0.5517 1.6207 0.0000
0.5517 1.6552 0.0000
0.5517 1.6897 0.0000
0.5517 1.7241 0.0000
0.5517 1.7586 0.0000
0.5517 1.7931 0.0000
0.5517 1.8276 0.0000
0.5517 1.8621 0.0000
0.5517 1.8966 0.0000
0.5517 1.9310 0.0000
0.5517 1.9655 0.0000
0.5517 2.0000 0.0000
0.6207 1.0000 0.0000
0.6207 1.0345 0.0000
0.6207 1.0690 0.0000
0.6207 1.1034 0.0000
0.6207 1.1379 0.0000
0.6207 1.1724 0.0000
0.6207 1.2069 0.0000
0.6207 1.2414 0.0000
0.6207 1.2759 0.0000
0.6207 1.3103 0.0000
0.6207 1.3448 0.0000
0.6207 1.3793 0.0000
0.6207 1.4138 0.0000
0.6207 1.4483 0.0000
0.6207 1.4828 0.0000
0.6207 1.5172 0.0000
0.6207 1.5517 0.0000
0.6207 1.5862 0.0000
0.6207 1.6207 0.0000
0.6207 1.6552 0.0000
0.6207 1.6897 0.0000
0.6207 1.7241 0.0000
0.6207 1.7586 0.0000
0.6207 1.7931 0.0000
0.6207 1.8276 0.0000
0.6207 1.8621 0.0000
0.6207 1.8966 0.0000
0.6207 1.9310 0.0000
0.6207 1.9655 0.0000
0.6207 2.0000 0.0000
0.6897 1.0000 0.0000
0.6897 1.0345 0.0000
0.6897 1.0690 0.0000
0.6897 1.1034 0.0000
0.6897 1.1379 0.0000
0.6897 1.1724 0.0000
0.6897 1.2069 0.0000
0.6897 1.2414 0.0000
0.6897 1.2759 0.0000
0.6897 1.3103 0.0000
0.6897 1.3448 0.0000
0.6897 1.3793 0.0000
0.6897 1.4138 0.0000
0.6897 1.4483 0.0000
0.6897 1.4828 0.0000
0.6897 1.5172 0.0000
0.6897 1.5517 0.0000
0.6897 1.5862 0.0000
0.6897 1.6207 0.0000
0.6897 1.6552 0.0000
0.6897 1.6897 0.0000
0.6897 1.7241 0.0000
0.6897 1.7586 0.0000
0.6897 1.7931 0.0000
0.6897 1.8276 0.0000
0.6897 1.8621 0.0000
0.6897 1.8966 0.0000
0.6897 1.9310 0.0000
0.6897 1.9655 0.0000
0.6897 2.0000 0.0000
0.7586 1.0000 0.0000
0.7586 1.0345 0.0000
0.7586 1.0690 0.0000
0.7586 1.1034 0.0000
0.7586 1.1379 0.0000
0.7586 1.1724 0.0000
0.7586 1.2069 0.0000
0.7586 1.2414 0.0000
0.7586 1.2759 0.0000
0.7586 1.3103 0.0000
0.7586 1.3448 0.0000
0.7586 1.3793 0.0000
0.7586 1.4138 0.0000
0.7586 1.4483 0.0000
0.7586 1.4828 0.0000
0.7586 1.5172 0.0000
0.7586 1.5517 0.0000
0.7586 1.5862 0.0000
0.7586 1.6207 0.0000
0.7586 1.6552 0.0000
0.7586 1.6897 0.0000
0.7586 1.7241 0.0000
0.7586 1.7586 0.0000
0.7586 1.7931 0.0000
0.7586 1.8276 0.0000
0.7586 1.8621 0.0000
0.7586 1.8966 0.0000
0.7586 1.9310 0.0000
0.7586 1.9655 0.0000
0.7586 2.0000 0.0000
0.8276 1.0000 0.0000
0.8276 1.0345 0.0000
0.8276 1.0690 0.0000
0.8276 1.1034 0.0000
0.8276 1.1379 0.0000
0.8276 1.1724 0.0000
0.8276 1.2069 0.0000
0.8276 1.2414 0.0000
0.8276 1.2759 0.0000
0.8276 1.3103 0.0000
0.8276 1.3448 0.0000
0.8276 1.3793 0.0000
0.8276 1.4138 0.0000
0.8276 1.4483 0.0000
0.8276 1.4828 0.0000
0.8276 1.5172 0.0000
0.8276 1.5517 0.0000
0.8276 1.5862 0.0000
0.8276 1.6207 0.0000
0.8276 1.6552 0.0000
0.8276 1.6897 0.0000
0.8276 1.7241 0.0000
0.8276 1.7586 0.0000
0.8276 1.7931 0.0000
0.8276 1.8276 0.0000
0.8276 1.8621 0.0000
0.8276 1.8966 0.0000
0.8276 1.9310 0.0000
0.8276 1.9655 0.0000
0.8276 2.0000 0.0000
0.8966 1.0000 0.0000
0.8966 1.0345 0.0000
0.8966 1.0690 0.0000
0.8966 1.1034 0.0000
0.8966 1.1379 0.0000
0.8966 1.1724 0.0000
0.8966 1.2069 0.0000
0.8966 1.2414 0.0000
0.8966 1.2759 0.0000
0.8966 1.3103 0.0000
0.8966 1.3448 0.0000
0.8966 1.3793 0.0000
0.8966 1.4138 0.0000
0.8966 1.4483 0.0000
0.8966 1.4828 0.0000
0.8966 1.5172 0.0000
0.8966 1.5517 0.0000
0.8966 1.5862 0.0000
0.8966 1.6207 0.0000
0.8966 1.6552 0.0000
0.8966 1.6897 0.0000
0.8966 1.7241 0.0000
0.8966 1.7586 0.0000
0.8966 1.7931 0.0000
0.8966 1.8276 0.0000
0.8966 1.8621 0.0000
0.8966 1.8966 0.0000
0.8966 1.9310 0.0000
0.8966 1.9655 0.0000
0.8966 2.0000 0.0000
0.9655 1.0000 0.0000
0.9655 1.0345 0.0000
0.9655 1.0690 0.0000
0.9655 1.1034 0.0000
0.9655 1.1379 0.0000
0.9655 1.1724 0.0000
0.9655 1.2069 0.0000
0.9655 1.2414 0.0000
0.9655 1.2759 0.0000
0.9655 1.3103 0.0000
0.9655 1.3448 0.0000
0.9655 1.3793 0.0000
0.9655 1.4138 0.0000
0.9655 1.4483 0.0000
0.9655 1.4828 0.0000
0.9655 1.5172 0.0000
0.9655 1.5517 0.0000
0.9655 1.5862 0.0000
0.9655 1.6207 0.0000
0.9655 1.6552 0.0000
0.9655 1.6897 0.0000
0.9655 1.7241 0.0000
0.9655 1.7586 0.0000
0.9655 1.7931 0.0000
0.9655 1.8276 0.0000
0.9655 1.8621 0.0000
0.9655 1.8966 0.0000
0.9655 1.9310 0.0000
0.9655 1.9655 0.0000
0.9655 2.0000 0.0000
1.0345 1.0000 0.0000
1.0345 1.0345 0.0000
1.0345 1.0690 0.0000
1.0345 1.1034 0.0000
1.0345 1.1379 0.0000
1.0345 1.1724 0.0000
1.0345 1.2069 0.0000
1.0345 1.2414 0.0000
1.0345 1.2759 0.0000
1.0345 1.3103 0.0000
1.0345 1.3448 0.0000
[...]
         <PointData>
            <DataArray Name="fValues" NumberOfComponents="3" format="ascii" type="Float64">
-1.85964e-35 -5.34533e-35        00000 
 4.16356e-35  1.24516e-34        00000 
-1.63094e-34 -5.12881e-34        00000 
 6.45906e-34  2.13422e-33        00000 
-2.46351e-33 -8.56714e-33        00000 
 8.98447e-33  3.29173e-32        00000 
-3.11797e-32 -1.20265e-31        00000 
 1.02507e-31  4.14772e-31        00000 
-3.18019e-31 -1.33965e-30        00000 
 9.28069e-31  4.01853e-30        00000 
-2.54049e-30 -1.11017e-29        00000 
 6.50302e-30  2.80189e-29        00000 
-1.55021e-29 -6.41162e-29        00000 
 3.42292e-29  1.32103e-28        00000 
-6.95649e-29 -2.43456e-28        00000 
 1.29285e-28  3.98635e-28        00000 
-2.18437e-28 -5.75466e-28        00000 
 3.33926e-28  7.24822e-28        00000 
-4.60273e-28 -7.83446e-28        00000 
 5.70756e-28  7.04022e-28        00000 
-6.35992e-28 -4.86645e-28        00000 
 6.36666e-28  1.88231e-28        00000 
-5.72877e-28  1.01400e-28        00000 
 4.63924e-28 -3.03290e-28        00000 
-3.38806e-28  3.84062e-28        00000 
 2.23863e-28 -3.61156e-28        00000 
-1.34743e-28  2.81563e-28        00000 
 7.55494e-29 -1.93779e-28        00000 
-4.31978e-29  1.30834e-28        00000 
 3.30848e-29 -1.08469e-28        00000 
 2.68048e-35  7.35845e-35        00000 
-6.17344e-35 -1.76072e-34        00000 
 2.50935e-34  7.51163e-34        00000 
-1.03217e-33 -3.24320e-33        00000 
 4.10081e-33  1.35615e-32        00000 
-1.56250e-32 -5.45223e-32        00000 
 5.67885e-32  2.09405e-31        00000 
-1.95822e-31 -7.62682e-31        00000 
 6.37469e-31  2.61212e-30        00000 
-1.95093e-30 -8.33493e-30        00000 
 5.59514e-30  2.45360e-29        00000 
-1.49945e-29 -6.59798e-29        00000 
 3.74155e-29  1.60551e-28        00000 
-8.64711e-29 -3.50423e-28        00000 
 1.83785e-28  6.80472e-28        00000 
-3.56353e-28 -1.16628e-27        00000 
 6.25505e-28  1.74894e-27        00000 
-9.87540e-28 -2.26891e-27        00000 
 1.39567e-27  2.50184e-27        00000 
-1.76026e-27 -2.26681e-27        00000 
 1.97812e-27  1.55075e-27        00000 
-1.97996e-27 -5.52452e-28        00000 
 1.76641e-27 -4.05664e-28        00000 
-1.40691e-27  1.04567e-27        00000 
 1.00302e-27 -1.26360e-27        00000 
-6.42531e-28  1.13955e-27        00000 
 3.72454e-28 -8.47852e-28        00000 
-1.99557e-28  5.51689e-28        00000 
 1.08182e-28 -3.49282e-28        00000 
-8.02135e-29  2.79168e-28        00000 
-5.62489e-35 -1.42984e-34        00000 
 1.35318e-34  3.57086e-34        00000 
-5.81239e-34 -1.60801e-33        00000 
 2.52684e-33  7.33643e-33        00000 
-1.06438e-32 -3.25549e-32        00000 
 4.31364e-32  1.39558e-31        00000 
-1.67194e-31 -5.74354e-31        00000 
 6.15810e-31  2.25245e-30        00000 
-2.14148e-30 -8.34334e-30        00000 
 6.99023e-30  2.88924e-29        00000 
-2.13243e-29 -9.24751e-29        00000 
 6.06222e-29  2.70296e-28        00000 
-1.60208e-28 -7.12940e-28        00000 
 3.91930e-28  1.67809e-27        00000 
-8.81199e-28 -3.48891e-27        00000 
 1.80335e-27  6.34625e-27        00000 
-3.32483e-27 -9.99937e-27        00000 
 5.47325e-27  1.34805e-26        00000 
-7.99088e-27 -1.52590e-26        00000 
 1.03028e-26  1.39857e-26        00000 
-1.17055e-26 -9.45700e-27        00000 
 1.17138e-26  3.01734e-27        00000 
-1.03346e-26  3.07492e-27        00000 
 8.05630e-27 -6.92178e-27        00000 
-5.56798e-27  7.92962e-27        00000 
 3.42810e-27 -6.79689e-27        00000 
-1.89445e-27  4.77315e-27        00000 
 9.58640e-28 -2.89614e-27        00000 
-4.85551e-28  1.68765e-27        00000 
 3.44791e-28 -1.28284e-27        00000 
 1.22400e-34  2.88972e-34        00000 
-3.05910e-34 -7.48973e-34        00000 
 1.37849e-33  3.53260e-33        00000 
-6.29172e-33 -1.69014e-32        00000 
 2.79234e-32  7.89598e-32        00000 
-1.19703e-31 -3.58039e-31        00000 
 4.92674e-31  1.56676e-30        00000 
-1.93345e-30 -6.57031e-30        00000 
 7.17985e-30  2.61788e-29        00000 
-2.50345e-29 -9.80741e-29        00000 
 8.14116e-29  3.41205e-28        00000 
-2.45861e-28 -1.08706e-27        00000 
 6.88224e-28  3.12508e-27        00000 
-1.78211e-27 -7.99082e-27        00000 
 4.24463e-27  1.79342e-26        00000 
-9.20126e-27 -3.49041e-26        00000 
 1.79126e-26  5.82140e-26        00000 
-3.09208e-26 -8.20635e-26        00000 
 4.68690e-26  9.58084e-26        00000 
-6.19943e-26 -8.90994e-26        00000 
 7.13346e-26  5.95748e-26        00000 
-7.13605e-26 -1.66199e-26        00000 
 6.21453e-26 -2.33432e-26        00000 
-4.72580e-26  4.69180e-26        00000 
 3.15268e-26 -5.08611e-26        00000 
-1.85676e-26  4.12395e-26        00000 
 9.73919e-27 -2.71767e-26        00000 
-4.63813e-27  1.52823e-26        00000 
 2.18672e-27 -8.12845e-27        00000 
-1.48085e-27  5.82760e-27        00000 
-2.53770e-34 -5.56720e-34        00000 
 6.56451e-34  1.49088e-33        00000 
-3.08889e-33 -7.32445e-33        00000 
 1.47437e-32  3.65629e-32        00000 
-6.87095e-32 -1.78968e-31        00000 
 3.10752e-31  8.54491e-31        00000 
-1.35618e-30 -3.95968e-30        00000 
 5.67213e-30  1.76981e-29        00000 
-2.25508e-29 -7.56993e-29        00000 
 8.44372e-29  3.06789e-28        00000 
-2.94912e-28 -1.16343e-27        00000 
 9.53214e-28  4.06570e-27        00000 
-2.84072e-27 -1.28642e-26        00000 
 7.80671e-27  3.61782e-26        00000 
-1.97540e-26 -8.88459e-26        00000 
 4.56105e-26  1.87495e-25        00000 
-9.45332e-26 -3.35001e-25        00000 
 1.72704e-25  4.98735e-25        00000 
-2.74017e-25 -6.05042e-25        00000 
 3.74006e-25  5.73506e-25        00000 
-4.37103e-25 -3.79274e-25        00000 
 4.37020e-25  8.86858e-26        00000 
-3.74523e-25  1.76168e-25        00000 
 2.76325e-25 -3.19308e-25        00000 
-1.76690e-25  3.25663e-25        00000 
 9.87741e-26 -2.47583e-25        00000 
-4.88054e-26  1.51504e-25        00000 
 2.17254e-26 -7.80725e-26        00000 
-9.46229e-27  3.73910e-26        00000 
 6.06582e-27 -2.49680e-26        00000 
 4.93604e-34  1.00433e-33        00000 
-1.31797e-33 -2.77006e-33        00000 
 6.45306e-33  1.41182e-32        00000 
-3.21099e-32 -7.32550e-32        00000 
 1.56668e-31  3.74254e-31        00000 
-7.45587e-31 -1.87436e-30        00000 
 3.44343e-30  9.16367e-30        00000 
-1.53362e-29 -4.35024e-29        00000 
 6.53503e-29  1.99173e-28        00000 
-2.63841e-28 -8.71754e-28        00000 
 9.97624e-28  3.60564e-27        00000 
-3.48941e-27 -1.38804e-26        00000 
 1.11809e-26  4.87776e-26        00000 
-3.27646e-26 -1.52945e-25        00000 
 8.81913e-26  4.17860e-25        00000 
-2.17657e-25 -9.72910e-25        00000 
 4.84457e-25  1.89252e-24        00000 
-9.47785e-25 -3.01622e-24        00000 
 1.59196e-24  3.84140e-24        00000 
-2.26070e-24 -3.73491e-24        00000 
 2.69436e-24  2.44475e-24        00000 
-2.69139e-24 -4.46013e-25        00000 
 2.25995e-24 -1.32925e-24        00000 
-1.60576e-24  2.18199e-24        00000 
 9.75033e-25 -2.07569e-24        00000 
-5.12414e-25  1.46154e-24        00000 
 2.36421e-25 -8.18712e-25        00000 
-9.76120e-26  3.80972e-25        00000 
 3.89279e-26 -1.61715e-25        00000 
-2.34014e-26  9.90989e-26        00000 
-8.97494e-34 -1.68913e-33        00000 
 2.46680e-33  4.78379e-33        00000 
-1.25231e-32 -2.51970e-32        00000 
 6.47391e-32  1.35379e-31        00000 
-3.29549e-31 -7.19023e-31        00000 
 1.64455e-30  3.76147e-30        00000 
-8.01122e-30 -1.93167e-29        00000 
 3.78903e-29  9.69625e-29        00000 
-1.72783e-28 -4.73096e-28        00000 
 7.52787e-28  2.22730e-27        00000 
-3.09689e-27 -1.00191e-26        00000 
 1.18529e-26  4.24888e-26        00000 
-4.15017e-26 -1.66729e-25        00000 
 1.31260e-25  5.90203e-25        00000 
-3.76433e-25 -1.82799e-24        00000 
 9.91463e-25  4.80083e-24        00000 
-2.38422e-24 -1.03922e-23        00000 
 5.06661e-24  1.80709e-23        00000 
-9.15374e-24 -2.45149e-23        00000 
 1.36891e-23  2.46739e-23        00000 
-1.67360e-23 -1.60111e-23        00000 
 1.66916e-23  1.97411e-24        00000 
-1.36455e-23  1.00825e-23        00000 
 9.23941e-24 -1.49733e-23        00000 
-5.26298e-24  1.31162e-23        00000 
 2.57074e-24 -8.40830e-24        00000 
-1.09717e-24  4.22911e-24        00000 
 4.16550e-25 -1.74374e-24        00000 
-1.50454e-25  6.44721e-25        00000 
 8.37827e-26 -3.56874e-25        00000 
 1.52311e-33  2.64327e-33        00000 
-4.29664e-33 -7.66253e-33        00000 
 2.25303e-32  4.15428e-32        00000 
-1.20543e-31 -2.30182e-31        00000 
 6.37592e-31  1.26538e-30        00000 
-3.32203e-30 -6.88188e-30        00000 
 1.69929e-29  3.69340e-29        00000 
-8.49679e-29 -1.94965e-28        00000 
 4.12945e-28  1.00792e-27        00000 
-1.93584e-27 -5.07376e-27        00000 
 8.66340e-27  2.46764e-26        00000 
-3.64905e-26 -1.14712e-25        00000 
 1.41882e-25  5.01946e-25        00000 
-4.96950e-25 -2.02004e-24        00000 
 1.53873e-24  7.22171e-24        00000 
-4.29346e-24 -2.19766e-23        00000 
 1.11061e-23  5.45517e-23        00000 
-2.60021e-23 -1.06385e-22        00000 
 5.17070e-23  1.57082e-22        00000 
-8.29847e-23 -1.65944e-22        00000 
 1.05031e-22  1.07092e-22        00000 
-1.04460e-22 -5.81752e-24        00000 
 8.23144e-23 -7.73166e-23        00000 
-5.23060e-23  1.03101e-22        00000 
 2.75137e-23 -8.15684e-23        00000 
-1.23415e-23  4.64580e-23        00000 
 4.82758e-24 -2.04397e-23        00000 
-1.66656e-24  7.29352e-24        00000 
 5.36887e-25 -2.30795e-24        00000 
-2.72834e-25  1.13803e-24        00000 
-2.41007e-33 -3.84306e-33        00000 
 6.95586e-33  1.13648e-32        00000 
-3.75230e-32 -6.31524e-32        00000 
 2.06915e-31  3.59283e-31        00000 
-1.13207e-30 -2.03455e-30        00000 
 6.12800e-30  1.14432e-29        00000 
-3.27381e-29 -6.38142e-29        00000 
 1.72060e-28  3.52028e-28        00000 
-8.85792e-28 -1.91511e-27        00000 
 4.44097e-27  1.02316e-26        00000 
-2.15078e-26 -5.33716e-26        00000 
 9.94663e-26  2.69638e-25        00000 
-4.31898e-25 -1.30432e-24        00000 
 1.71645e-24  5.94057e-24        00000 
-6.00814e-24 -2.47531e-23        00000 
 1.78954e-23  8.97208e-23        00000 
-4.83846e-23 -2.65782e-22        00000 
 1.24887e-22  6.05782e-22        00000 
-2.82603e-22 -1.00712e-21        00000 
 5.02666e-22  1.14183e-21        00000 
-6.68893e-22 -7.37430e-22        00000 
 6.61667e-22 -2.03122e-23        00000 
-4.94197e-22  6.03343e-22        00000 
 2.87989e-22 -7.10136e-22        00000 
-1.37349e-22  4.92293e-22        00000 
 5.60671e-23 -2.40462e-22        00000 
-1.98945e-23  8.94302e-23        00000 
 6.11835e-24 -2.68771e-23        00000 
-1.72282e-24  7.17751e-24        00000 
 7.88843e-25 -3.13741e-24        00000 
 3.55297e-33  5.18423e-33        00000 
-1.04565e-32 -1.55833e-32        00000 
 5.77851e-32  8.83604e-32        00000 
-3.26976e-31 -5.13739e-31        00000 
 1.84148e-30  2.98139e-30        00000 
-1.03004e-29 -1.72430e-29        00000 
 5.71269e-29  9.92829e-29        00000 
-3.13461e-28 -5.68331e-28        00000 
 1.69668e-27  3.22822e-27        00000 
-9.02259e-27 -1.81465e-26        00000 
 4.68700e-26  1.00558e-25        00000 
-2.35888e-25 -5.46266e-25        00000 
 1.13607e-24  2.88534e-24        00000 
-5.13609e-24 -1.46449e-23        00000 
 2.10976e-23  7.02822e-23        00000 
-7.38048e-23 -3.08115e-22        00000 
 2.02348e-22  1.13887e-21        00000 
-5.38194e-22 -3.22757e-21        00000 
 1.44131e-21  6.39768e-21        00000 
-3.02456e-21 -8.09468e-21        00000 
 4.35852e-21  5.29911e-21        00000 
-4.26122e-21  6.73845e-22        00000 
 2.92327e-21 -4.82975e-21        00000 
-1.50904e-21  4.84745e-21        00000 
 6.44812e-22 -2.80280e-21        00000 
-2.39304e-22  1.11726e-21        00000 
 7.49485e-23 -3.37244e-22        00000 
-1.98101e-23  8.29929e-23        00000 
 4.81282e-24 -1.87783e-23        00000 
-1.97562e-24  7.34431e-24        00000 
-4.87700e-33 -6.48019e-33        00000 
 1.45855e-32  1.97246e-32        00000 
-8.22143e-32 -1.13589e-31        00000 
 4.75187e-31  6.71590e-31        00000 
-2.74078e-30 -3.97217e-30        00000 
 1.57511e-29  2.34778e-29        00000 
-9.01042e-29 -1.38613e-28        00000 
 5.12408e-28  8.16970e-28        00000 
-2.89172e-27 -4.80273e-27        00000 
 1.61546e-26  2.81243e-26        00000 
-8.90227e-26 -1.63728e-25        00000 
 4.81417e-25  9.44604e-25        00000 
-2.53479e-24 -5.37373e-24        00000 
 1.28354e-23  2.98964e-23        00000 
-6.12646e-23 -1.60617e-22        00000 
 2.65859e-22  8.26083e-22        00000 
-9.36476e-22 -3.92616e-21        00000 
 2.06339e-21  1.49116e-20        00000 
-6.13808e-21 -3.90650e-20        00000 
 1.76989e-20  5.96870e-20        00000 
-2.95953e-20 -4.07902e-20        00000 
 2.80753e-20 -1.03304e-20        00000 
-1.65183e-20  4.00292e-20        00000 
 7.26114e-21 -3.18644e-20        00000 
-2.86890e-21  1.41896e-20        00000 
 9.40359e-22 -4.37026e-21        00000 
-2.42005e-22  1.01028e-21        00000 
 5.39873e-23 -2.05314e-22        00000 
-1.13261e-23  4.04868e-23        00000 
 4.19537e-24 -1.44619e-23        00000 
 6.23035e-33  7.49548e-33        00000 
-1.88671e-32 -2.30105e-32        00000 
 1.07996e-31  1.33921e-31        00000 
-6.34595e-31 -8.00970e-31        00000 
 3.72884e-30  4.79992e-30        00000 
-2.18866e-29 -2.88017e-29        00000 
 1.28269e-28  1.73054e-28        00000 
-7.50159e-28 -1.04121e-27        00000 
 4.37446e-27  6.27285e-27        00000 
-2.54058e-26 -3.78357e-26        00000 
 1.46701e-25  2.28397e-25        00000 
-8.40035e-25 -1.37876e-24        00000 
 4.75056e-24  8.30965e-24        00000 
-2.63552e-23 -4.98224e-23        00000 
 1.41825e-22  2.94708e-22        00000 
-7.26881e-22 -1.68274e-21        00000 
 3.48193e-21  9.47119e-21        00000 
-1.28554e-20 -5.20186e-20        00000 
 1.17131e-20  2.04042e-19        00000 
-8.96148e-20 -4.60403e-19        00000 
 2.21311e-19  3.58792e-19        00000 
-1.88882e-19  1.52593e-19        00000 
 7.90006e-20 -3.43502e-19        00000 
-3.33397e-20  1.81651e-19        00000 
 1.22714e-20 -5.96330e-20        00000 
-3.00555e-21  1.23524e-20        00000 
 6.27340e-22 -2.25509e-21        00000 
-1.18202e-22  3.99350e-22        00000 
 2.18563e-23 -7.14642e-23        00000 
-7.43833e-24  2.39068e-23        00000 
-7.40485e-33 -8.01105e-33        00000 
 2.26233e-32  2.46999e-32        00000 
-1.30913e-31 -1.44532e-31        00000 
 7.78317e-31  8.69580e-31        00000 
-4.63406e-30 -5.24685e-30        00000 
 2.76109e-29  3.17355e-29        00000 
-1.64627e-28 -1.92481e-28        00000 
 9.82205e-28  1.17114e-27        00000 
-5.86330e-27 -7.15194e-27        00000 
 3.50138e-26  4.38642e-26        00000 
-2.09096e-25 -2.70401e-25        00000 
 1.24793e-24  1.67707e-24        00000 
-7.43485e-24 -1.04780e-23        00000 
 4.41213e-23  6.60462e-23        00000 
-2.59647e-22 -4.20639e-22        00000 
 1.49998e-21  2.70214e-21        00000 
-8.31609e-21 -1.60212e-20        00000 
 4.79952e-20  9.94562e-20        00000 
-2.14053e-19 -7.41746e-19        00000 
-3.85113e-19  2.95266e-18        00000 
-2.52821e-18 -4.91933e-18        00000 
 8.63436e-19 -3.49169e-18        00000 
-3.30733e-19  2.21924e-18        00000 
 1.74297e-19 -8.97142e-19        00000 
-3.77311e-20  1.48503e-19        00000 
 7.21060e-21 -2.29554e-20        00000 
-1.21404e-21  3.73704e-21        00000 
 2.00964e-22 -6.13348e-22        00000 
-3.39937e-23  1.03568e-22        00000 
 1.09090e-23 -3.32494e-23        00000 
 8.18562e-33  7.89866e-33        00000 
-2.51382e-32 -2.43503e-32        00000 
 1.46393e-31  1.42474e-31        00000 
-8.76315e-31 -8.57205e-31        00000 
 5.25790e-30  5.17280e-30        00000 
-3.16041e-29 -3.12963e-29        00000 
 1.90347e-28  1.89914e-28        00000 
-1.14904e-27 -1.15649e-27        00000 
 6.95440e-27  7.07180e-27        00000 
-4.22176e-26 -4.34611e-26        00000 
 2.57192e-25  2.68757e-25        00000 
-1.57336e-24 -1.67501e-24        00000 
 9.67278e-24  1.05468e-23        00000 
-5.98222e-23 -6.73474e-23        00000 
 3.72629e-22  4.39155e-22        00000 
-2.33996e-21 -2.97388e-21        00000 
 1.47178e-20  2.32581e-20        00000 
-1.00959e-19 -1.46768e-19        00000 
 6.88178e-19  1.16589e-18        00000 
-4.70172e-18 -1.37924e-17        00000 
-7.50427e-02 -2.21074e-01        00000 
 7.50427e-02 -2.21074e-01        00000 
 3.40527e-18 -1.52122e-17        00000 
-5.10894e-19  1.59407e-18        00000 
 8.10787e-20 -1.86918e-19        00000 
-1.11685e-20  3.00118e-20        00000 
 1.68102e-21 -4.73616e-21        00000 
-2.61013e-22  7.53584e-22        00000 
 4.22672e-23 -1.23953e-22        00000 
-1.31771e-23  3.90319e-23        00000 
-8.41477e-33 -7.17072e-33        00000 
 2.58793e-32  2.19989e-32        00000 
-1.50976e-31 -1.27952e-31        00000 
 9.05485e-31  7.64922e-31        00000 
-5.44470e-30 -4.58286e-30        00000 
 3.28080e-29  2.75019e-29        00000 
-1.98163e-28 -1.65338e-28        00000 
 1.20021e-27  9.96019e-28        00000 
-7.29276e-27 -6.01414e-27        00000 
 4.44815e-26  3.64117e-26        00000 
-2.72557e-25 -2.21133e-25        00000 
 1.67950e-24  1.34784e-24        00000 
-1.04228e-23 -8.24996e-24        00000 
 6.52827e-23  5.07378e-23        00000 
-4.14106e-22 -3.13389e-22        00000 
 2.67715e-21  1.92691e-21        00000 
-1.79940e-20 -9.86084e-21        00000 
 1.05506e-19  1.14978e-19        00000 
-8.73692e-19 -5.34716e-19        00000 
 7.39755e-18 -1.93208e-18        00000 
 7.50427e-02 -2.21074e-01        00000 
-7.50427e-02 -2.21074e-01        00000 
-5.24479e-18  6.35948e-18        00000 
 6.49949e-19 -1.55988e-18        00000 
-7.05693e-20  1.94375e-19        00000 
 1.08049e-20 -2.99002e-20        00000 
-1.65339e-21  4.69577e-21        00000 
 2.58252e-22 -7.47037e-22        00000 
-4.19449e-23  1.22970e-22        00000 
 1.30980e-23 -3.87529e-23        00000 
 8.04356e-33  5.97991e-33        00000 
-2.46808e-32 -1.81633e-32        00000 
 1.43579e-31  1.04344e-31        00000 
-8.58517e-31 -6.15456e-31        00000 
 5.14470e-30  3.63126e-30        00000 
-3.08803e-29 -2.14093e-29        00000 
 1.85692e-28  1.26081e-28        00000 
-1.11890e-27 -7.41227e-28        00000 
 6.75779e-27  4.34634e-27        00000 
-4.09239e-26 -2.53855e-26        00000 
 2.48594e-25  1.47365e-25        00000 
-1.51556e-24 -8.47132e-25        00000 
 9.27905e-24  4.79007e-24        00000 
-5.70985e-23 -2.62842e-23        00000 
 3.53437e-22  1.35627e-22        00000 
-2.20109e-21 -6.02518e-22        00000 
 1.36178e-20  2.61927e-21        00000 
-7.39599e-20 -1.95819e-20        00000 
 3.87288e-19 -5.42721e-20        00000 
-7.30646e-19 -1.88146e-19        00000 
 2.55583e-18  2.48980e-18        00000 
-2.79771e-18  5.03107e-18        00000 
 2.31233e-19 -3.24737e-18        00000 
-2.61505e-19  6.29702e-19        00000 
 3.81435e-20 -1.39537e-19        00000 
-6.84048e-21  2.21161e-20        00000 
 1.17040e-21 -3.61847e-21        00000 
-1.95686e-22  5.96367e-22        00000 
 3.33080e-23 -1.01074e-22        00000 
-1.07294e-23  3.25406e-23        00000 
-7.14929e-33 -4.56687e-33        00000 
 2.18048e-32  1.36557e-32        00000 
-1.25910e-31 -7.69259e-32        00000 
 7.46879e-31  4.44071e-31        00000 
-4.43561e-30 -2.55583e-30        00000 
 2.63528e-29  1.46375e-29        00000 
-1.56612e-28 -8.32800e-29        00000 
 9.30878e-28  4.69616e-28        00000 
-5.53263e-27 -2.61547e-27        00000 
 3.28692e-26  1.43076e-26        00000 
-1.95080e-25 -7.61698e-26        00000 
 1.15554e-24  3.88020e-25        00000 
-6.81992e-24 -1.82585e-24        00000 
 3.99821e-23  7.23403e-24        00000 
-2.31446e-22 -1.57154e-23        00000 
 1.30636e-21 -1.03143e-22        00000 
-7.08132e-21  2.47677e-21        00000 