<?xml version="1.0" encoding="utf-8"?>
<VTKFile byte_order="LittleEndian" type="UnstructuredGrid" version="0.1">
   <UnstructuredGrid>
      <Piece NumberOfCells="3364" NumberOfPoints="1741">
         <Points>
            <DataArray Name="Points" NumberOfComponents="3" format="ascii" type="Float32">
0.0000 1.0000 0.0000
0.0000 1.0345 0.0000
0.0000 1.0690 0.0000
0.0000 1.1034 0.0000
0.0000 1.1379 0.0000
0.0000 1.1724 0.0000
0.0000 1.2069 0.0000
0.0000 1.2414 0.0000
0.0000 1.2759 0.0000
0.0000 1.3103 0.0000
0.0000 1.3448 0.0000
0.0000 1.3793 0.0000
0.0000 1.4138 0.0000
0.0000 1.4483 0.0000
0.0000 1.4828 0.0000
0.0000 1.5172 0.0000
0.0000 1.5517 0.0000
0.0000 1.5862 0.0000
0.0000 1.6207 0.0000
0.0000 1.6552 0.0000
0.0000 1.6897 0.0000
0.0000 1.7241 0.0000
0.0000 1.7586 0.0000
0.0000 1.7931 0.0000
0.0000 1.8276 0.0000
0.0000 1.8621 0.0000
0.0000 1.8966 0.0000
0.0000 1.9310 0.0000
0.0000 1.9655 0.0000
0.0000 2.0000 0.0000
0.0690 1.0000 0.0000
0.0690 1.0345 0.0000
0.0690 1.0690 0.0000
0.0690 1.1034 0.0000
0.0690 1.1379 0.0000
0.0690 1.1724 0.0000
0.0690 1.2069 0.0000
0.0690 1.2414 0.0000
0.0690 1.2759 0.0000
0.0690 1.3103 0.0000
0.0690 1.3448 0.0000
0.0690 1.3793 0.0000
0.0690 1.4138 0.0000
0.0690 1.4483 0.0000
0.0690 1.4828 0.0000
0.0690 1.5172 0.0000
0.0690 1.5517 0.0000
0.0690 1.5862 0.0000
0.0690 1.6207 0.0000
0.0690 1.6552 0.0000
0.0690 1.6897 0.0000
0.0690 1.7241 0.0000
0.0690 1.7586 0.0000
0.0690 1.7931 0.0000
0.0690 1.8276 0.0000
0.0690 1.8621 0.0000
0.0690 1.8966 0.0000
0.0690 1.9310 0.0000
0.0690 1.9655 0.0000
0.0690 2.0000 0.0000
0.1379 1.0000 0.0000
0.1379 1.0345 0.0000
0.1379 1.0690 0.0000
0.1379 1.1034 0.0000
0.1379 1.1379 0.0000
0.1379 1.1724 0.0000
0.1379 1.2069 0.0000
0.1379 1.2414 0.0000
0.1379 1.2759 0.0000
0.1379 1.3103 0.0000
0.1379 1.3448 0.0000
0.1379 1.3793 0.0000
0.1379 1.4138 0.0000
0.1379 1.4483 0.0000
0.1379 1.4828 0.0000
0.1379 1.5172 0.0000
0.1379 1.5517 0.0000
0.1379 1.5862 0.0000
0.1379 1.6207 0.0000
0.1379 1.6552 0.0000
0.1379 1.6897 0.0000
0.1379 1.7241 0.0000
0.1379 1.7586 0.0000
0.1379 1.7931 0.0000
0.1379 1.8276 0.0000
0.1379 1.8621 0.0000
0.1379 1.8966 0.0000
0.1379 1.9310 0.0000
0.1379 1.9655 0.0000
0.1379 2.0000 0.0000
0.2069 1.0000 0.0000
0.2069 1.0345 0.0000
0.2069 1.0690 0.0000
0.2069 1.1034 0.0000
0.2069 1.1379 0.0000
0.2069 1.1724 0.0000
0.2069 1.2069 0.0000
0.2069 1.2414 0.0000
0.2069 1.2759 0.0000
0.2069 1.3103 0.0000
0.2069 1.3448 0.0000
0.2069 1.3793 0.0000
0.2069 1.4138 0.0000
0.2069 1.4483 0.0000
0.2069 1.4828 0.0000
0.2069 1.5172 0.0000
0.2069 1.5517 0.0000
0.2069 1.5862 0.0000
0.2069 1.6207 0.0000
0.2069 1.6552 0.0000
0.2069 1.6897 0.0000
0.2069 1.7241 0.0000
0.2069 1.7586 0.0000
0.2069 1.7931 0.0000
0.2069 1.8276 0.0000
0.2069 1.8621 0.0000
0.2069 1.8966 0.0000
0.2069 1.9310 0.0000
0.2069 1.9655 0.0000
0.2069 2.0000 0.0000
0.2759 1.0000 0.0000
0.2759 1.0345 0.0000
0.2759 1.0690 0.0000
0.2759 1.1034 0.0000
0.2759 1.1379 0.0000
0.2759 1.1724 0.0000
0.2759 1.2069 0.0000
0.2759 1.2414 0.0000
0.2759 1.2759 0.0000
0.2759 1.3103 0.0000
0.2759 1.3448 0.0000
0.2759 1.3793 0.0000
0.2759 1.4138 0.0000
0.2759 1.4483 0.0000
0.2759 1.4828 0.0000
0.2759 1.5172 0.0000
0.2759 1.5517 0.0000
0.2759 1.5862 0.0000
0.2759 1.6207 0.0000
0.2759 1.6552 0.0000
0.2759 1.6897 0.0000
0.2759 1.7241 0.0000
0.2759 1.7586 0.0000
0.2759 1.7931 0.0000
0.2759 1.8276 0.0000
0.2759 1.8621 0.0000
0.2759 1.8966 0.0000
0.2759 1.9310 0.0000
0.2759 1.9655 0.0000
0.2759 2.0000 0.0000
0.3448 1.0000 0.0000
0.3448 1.0345 0.0000
0.3448 1.0690 0.0000
0.3448 1.1034 0.0000
0.3448 1.1379 0.0000
0.3448 1.1724 0.0000
0.3448 1.2069 0.0000
0.3448 1.2414 0.0000
0.3448 1.2759 0.0000
0.3448 1.3103 0.0000
0.3448 1.3448 0.0000
0.3448 1.3793 0.0000
0.3448 1.4138 0.0000
0.3448 1.4483 0.0000
0.3448 1.4828 0.0000
0.3448 1.5172 0.0000
0.3448 1.5517 0.0000
0.3448 1.5862 0.0000
0.3448 1.6207 0.0000
0.3448 1.6552 0.0000
0.3448 1.6897 0.0000
0.3448 1.7241 0.0000
0.3448 1.7586 0.0000
0.3448 1.7931 0.0000
0.3448 1.8276 0.0000
0.3448 1.8621 0.0000
0.3448 1.8966 0.0000
0.3448 1.9310 0.0000
0.3448 1.9655 0.0000
0.3448 2.0000 0.0000
0.4138 1.0000 0.0000
0.4138 1.0345 0.0000
0.4138 1.0690 0.0000
0.4138 1.1034 0.0000
0.4138 1.1379 0.0000
0.4138 1.1724 0.0000
0.4138 1.2069 0.0000
0.4138 1.2414 0.0000
0.4138 1.2759 0.0000
0.4138 1.3103 0.0000
0.4138 1.3448 0.0000
0.4138 1.3793 0.0000
0.4138 1.4138 0.0000
0.4138 1.4483 0.0000
0.4138 1.4828 0.0000
0.4138 1.5172 0.0000
0.4138 1.5517 0.0000
0.4138 1.5862 0.0000
0.4138 1.6207 0.0000
0.4138 1.6552 0.0000
0.4138 1.6897 0.0000
0.4138 1.7241 0.0000
0.4138 1.7586 0.0000
0.4138 1.7931 0.0000
0.4138 1.8276 0.0000
0.4138 1.8621 0.0000
0.4138 1.8966 0.0000
0.4138 1.9310 0.0000
0.4138 1.9655 0.0000
0.4138 2.0000 0.0000
0.4828 1.0000 0.0000
0.4828 1.0345 0.0000
0.4828 1.0690 0.0000
0.4828 1.1034 0.0000
0.4828 1.1379 0.0000
0.4828 1.1724 0.0000
0.4828 1.2069 0.0000
0.4828 1.2414 0.0000
0.4828 1.2759 0.0000
0.4828 1.3103 0.0000
0.4828 1.3448 0.0000
0.4828 1.3793 0.0000
0.4828 1.4138 0.0000
0.4828 1.4483 0.0000
0.4828 1.4828 0.0000
0.4828 1.5172 0.0000
0.4828 1.5517 0.0000
0.4828 1.5862 0.0000
0.4828 1.6207 0.0000
0.4828 1.6552 0.0000
0.4828 1.6897 0.0000
0.4828 1.7241 0.0000
0.4828 1.7586 0.0000
0.4828 1.7931 0.0000
0.4828 1.8276 0.0000
0.4828 1.8621 0.0000
0.4828 1.8966 0.0000
0.4828 1.9310 0.0000
0.4828 1.9655 0.0000
0.4828 2.0000 0.0000
0.5517 1.0000 0.0000
0.5517 1.0345 0.0000
0.5517 1.0690 0.0000
0.5517 1.1034 0.0000
0.5517 1.1379 0.0000
0.5517 1.1724 0.0000
0.5517 1.2069 0.0000
0.5517 1.2414 0.0000
0.5517 1.2759 0.0000
0.5517 1.3103 0.0000
0.5517 1.3448 0.0000
0.5517 1.3793 0.0000
0.5517 1.4138 0.0000
0.5517 1.4483 0.0000
0.5517 1.4828 0.0000
0.5517 1.5172 0.0000
0.5517 1.5517 0.0000
0.5517 1.5862 0.0000
0.5517 1.6207 0.0000
0.5517 1.6552 0.0000
0.5517 1.6897 0.0000
0.5517 1.7241 0.0000
0.5517 1.7586 0.0000
0.5517 1.7931 0.0000
0.5517 1.8276 0.0000
0.5517 1.8621 0.0000
0.5517 1.8966 0.0000
0.5517 1.9310 0.0000
0.5517 1.9655 0.0000
0.5517 2.0000 0.0000
0.6207 1.0000 0.0000
0.6207 1.0345 0.0000
0.6207 1.0690 0.0000
0.6207 1.1034 0.0000
0.6207 1.1379 0.0000
0.6207 1.1724 0.0000
0.6207 1.2069 0.0000
0.6207 1.2414 0.0000
0.6207 1.2759 0.0000
0.6207 1.3103 0.0000
0.6207 1.3448 0.0000
0.6207 1.3793 0.0000
0.6207 1.4138 0.0000
0.6207 1.4483 0.0000
0.6207 1.4828 0.0000
0.6207 1.5172 0.0000
0.6207 1.5517 0.0000
0.6207 1.5862 0.0000
0.6207 1.6207 0.0000
0.6207 1.6552 0.0000
0.6207 1.6897 0.0000
0.6207 1.7241 0.0000
0.6207 1.7586 0.0000
0.6207 1.7931 0.0000
0.6207 1.8276 0.0000
0.6207 1.8621 0.0000
0.6207 1.8966 0.0000
0.6207 1.9310 0.0000
0.6207 1.9655 0.0000
0.6207 2.0000 0.0000
0.6897 1.0000 0.0000
0.6897 1.0345 0.0000
0.6897 1.0690 0.0000
0.6897 1.1034 0.0000
0.6897 1.1379 0.0000
0.6897 1.1724 0.0000
0.6897 1.2069 0.0000
0.6897 1.2414 0.0000
0.6897 1.2759 0.0000
0.6897 1.3103 0.0000
0.6897 1.3448 0.0000
0.6897 1.3793 0.0000
0.6897 1.4138 0.0000
0.6897 1.4483 0.0000
0.6897 1.4828 0.0000
0.6897 1.5172 0.0000
0.6897 1.5517 0.0000
0.6897 1.5862 0.0000
0.6897 1.6207 0.0000
0.6897 1.6552 0.0000
0.6897 1.6897 0.0000
0.6897 1.7241 0.0000
0.6897 1.7586 0.0000
0.6897 1.7931 0.0000
0.6897 1.8276 0.0000
0.6897 1.8621 0.0000
0.6897 1.8966 0.0000
0.6897 1.9310 0.0000
0.6897 1.9655 0.0000
0.6897 2.0000 0.0000
0.7586 1.0000 0.0000
0.7586 1.0345 0.0000
0.7586 1.0690 0.0000
0.7586 1.1034 0.0000
0.7586 1.1379 0.0000
0.7586 1.1724 0.0000
0.7586 1.2069 0.0000
0.7586 1.2414 0.0000
0.7586 1.2759 0.0000
0.7586 1.3103 0.0000
0.7586 1.3448 0.0000
0.7586 1.3793 0.0000
0.7586 1.4138 0.0000
0.7586 1.4483 0.0000
0.7586 1.4828 0.0000
0.7586 1.5172 0.0000
0.7586 1.5517 0.0000
0.7586 1.5862 0.0000
0.7586 1.6207 0.0000
0.7586 1.6552 0.0000
0.7586 1.6897 0.0000
0.7586 1.7241 0.0000
0.7586 1.7586 0.0000
0.7586 1.7931 0.0000
0.7586 1.8276 0.0000
0.7586 1.8621 0.0000
0.7586 1.8966 0.0000
0.7586 1.9310 0.0000
0.7586 1.9655 0.0000
0.7586 2.0000 0.0000
0.8276 1.0000 0.0000
0.8276 1.0345 0.0000
0.8276 1.0690 0.0000
0.8276 1.1034 0.0000
0.8276 1.1379 0.0000
0.8276 1.1724 0.0000
0.8276 1.2069 0.0000
0.8276 1.2414 0.0000
0.8276 1.2759 0.0000
0.8276 1.3103 0.0000
0.8276 1.3448 0.0000
0.8276 1.3793 0.0000
0.8276 1.4138 0.0000
0.8276 1.4483 0.0000
0.8276 1.4828 0.0000
0.8276 1.5172 0.0000
0.8276 1.5517 0.0000
0.8276 1.5862 0.0000
0.8276 1.6207 0.0000
0.8276 1.6552 0.0000
0.8276 1.6897 0.0000
0.8276 1.7241 0.0000
0.8276 1.7586 0.0000
0.8276 1.7931 0.0000
0.8276 1.8276 0.0000
0.8276 1.8621 0.0000
0.8276 1.8966 0.0000
0.8276 1.9310 0.0000
0.8276 1.9655 0.0000
0.8276 2.0000 0.0000
0.8966 1.0000 0.0000
0.8966 1.0345 0.0000
0.8966 1.0690 0.0000
0.8966 1.1034 0.0000
0.8966 1.1379 0.0000
0.8966 1.1724 0.0000
0.8966 1.2069 0.0000
0.8966 1.2414 0.0000
0.8966 1.2759 0.0000
0.8966 1.3103 0.0000
0.8966 1.3448 0.0000
0.8966 1.3793 0.0000
0.8966 1.4138 0.0000
0.8966 1.4483 0.0000
0.8966 1.4828 0.0000
0.8966 1.5172 0.0000
0.8966 1.5517 0.0000
0.8966 1.5862 0.0000
0.8966 1.6207 0.0000
0.8966 1.6552 0.0000
0.8966 1.6897 0.0000
0.8966 1.7241 0.0000
0.8966 1.7586 0.0000
0.8966 1.7931 0.0000
0.8966 1.8276 0.0000
0.8966 1.8621 0.0000
0.8966 1.8966 0.0000
0.8966 1.9310 0.0000
0.8966 1.9655 0.0000
0.8966 2.0000 0.0000
0.9655 1.0000 0.0000
0.9655 1.0345 0.0000
0.9655 1.0690 0.0000
0.9655 1.1034 0.0000
0.9655 1.1379 0.0000
0.9655 1.1724 0.0000
0.9655 1.2069 0.0000
0.9655 1.2414 0.0000
0.9655 1.2759 0.0000
0.9655 1.3103 0.0000
0.9655 1.3448 0.0000
0.9655 1.3793 0.0000
0.9655 1.4138 0.0000
0.9655 1.4483 0.0000
0.9655 1.4828 0.0000
0.9655 1.5172 0.0000
0.9655 1.5517 0.0000
0.9655 1.5862 0.0000
0.9655 1.6207 0.0000
0.9655 1.6552 0.0000
0.9655 1.6897 0.0000
0.9655 1.7241 0.0000
0.9655 1.7586 0.0000
0.9655 1.7931 0.0000
0.9655 1.8276 0.0000
0.9655 1.8621 0.0000
0.9655 1.8966 0.0000
0.9655 1.9310 0.0000
0.9655 1.9655 0.0000
0.9655 2.0000 0.0000
1.0345 1.0000 0.0000
1.0345 1.0345 0.0000
1.0345 1.0690 0.0000
1.0345 1.1034 0.0000
1.0345 1.1379 0.0000
1.0345 1.1724 0.0000
1.0345 1.2069 0.0000
1.0345 1.2414 0.0000
1.0345 1.2759 0.0000
1.0345 1.3103 0.0000
1.0345 1.3448 0.0000
[...]
         <PointData>
            <DataArray Name="fValues" NumberOfComponents="3" format="ascii" type="Float64">
 2.73570e-41  4.03231e-41        00000 
-6.92606e-41 -1.02664e-40        00000 
 3.18884e-40  4.76292e-40        00000 
-1.49877e-39 -2.25808e-39        00000 
 6.92237e-39  1.05389e-38        00000 
-3.12905e-38 -4.82509e-38        00000 
 1.37993e-37  2.16186e-37        00000 
-5.91573e-37 -9.45381e-37        00000 
 2.45446e-36  4.02291e-36        00000 
-9.80320e-36 -1.66018e-35        00000 
 3.74416e-35  6.61945e-35        00000 
-1.35596e-34 -2.53955e-34        00000 
 4.60504e-34  9.33410e-34        00000 
-1.44430e-33 -3.27232e-33        00000 
 4.08723e-33  1.08964e-32        00000 
-1.00162e-32 -3.43371e-32        00000 
 1.93088e-32  1.02114e-31        00000 
-1.91951e-32 -2.86076e-31        00000 
-5.37484e-32  7.54241e-31        00000 
 4.09731e-31 -1.86963e-30        00000 
-1.59506e-30  4.34851e-30        00000 
 4.76560e-30 -9.45228e-30        00000 
-1.19095e-29  1.90875e-29        00000 
 2.57098e-29 -3.55562e-29        00000 
-4.86805e-29  6.06878e-29        00000 
 8.15152e-29 -9.44006e-29        00000 
-1.21293e-28  1.33353e-28        00000 
 1.60842e-28 -1.70759e-28        00000 
-1.90405e-28  1.98077e-28        00000 
 2.01402e-28 -2.08119e-28        00000 
-3.42322e-41 -5.01276e-41        00000 
 8.80059e-41  1.29470e-40        00000 
-4.13163e-40 -6.11612e-40        00000 
 1.98202e-39  2.95465e-39        00000 
-9.36428e-39 -1.40769e-38        00000 
 4.34133e-38  6.59273e-38        00000 
-1.96961e-37 -3.02856e-37        00000 
 8.71708e-37  1.36133e-36        00000 
-3.74920e-36 -5.97074e-36        00000 
 1.55975e-35  2.54707e-35        00000 
-6.24046e-35 -1.05296e-34        00000 
 2.38377e-34  4.20103e-34        00000 
-8.61239e-34 -1.61026e-33        00000 
 2.90630e-33  5.90085e-33        00000 
-8.99856e-33 -2.05708e-32        00000 
 2.48573e-32  6.78976e-32        00000 
-5.81171e-32 -2.11342e-31        00000 
 1.00020e-31  6.18607e-31        00000 
-4.50139e-32 -1.70015e-30        00000 
-5.51990e-31  4.38476e-30        00000 
 3.02846e-30 -1.06024e-29        00000 
-1.05466e-29  2.39676e-29        00000 
 2.90920e-29 -5.03582e-29        00000 
-6.75274e-29  9.75321e-29        00000 
 1.35201e-28 -1.72589e-28        00000 
-2.36372e-28  2.76963e-28        00000 
 3.63294e-28 -4.01054e-28        00000 
-4.92783e-28  5.22710e-28        00000 
 5.91236e-28 -6.12728e-28        00000 
-6.28170e-28  6.46030e-28        00000 
 5.67246e-41  8.21261e-41        00000 
-1.49897e-40 -2.17732e-40        00000 
 7.28092e-40  1.06215e-39        00000 
-3.61663e-39 -5.30154e-39        00000 
 1.77416e-38  2.61566e-38        00000 
-8.56753e-38 -1.27189e-37        00000 
 4.06333e-37  6.08340e-37        00000 
-1.88747e-36 -2.85559e-36        00000 
 8.55865e-36  1.31206e-35        00000 
-3.77306e-35 -5.88269e-35        00000 
 1.60901e-34  2.56450e-34        00000 
-6.59565e-34 -1.08247e-33        00000 
 2.57809e-33  4.40287e-33        00000 
-9.50866e-33 -1.71640e-32        00000 
 3.26252e-32  6.37563e-32        00000 
-1.02039e-31 -2.24307e-31        00000 
 2.81642e-31  7.43252e-31        00000 
-6.44374e-31 -2.30912e-30        00000 
 1.01996e-30  6.70801e-30        00000 
 2.19375e-32 -1.82081e-29        00000 
-7.99664e-30  4.62020e-29        00000 
 3.82190e-29 -1.09532e-28        00000 
-1.23594e-28  2.41566e-28        00000 
 3.18728e-28 -4.91184e-28        00000 
-6.89121e-28  9.10184e-28        00000 
 1.27627e-27 -1.52061e-27        00000 
-2.04677e-27  2.27343e-27        00000 
 2.85917e-27 -3.03083e-27        00000 
-3.49038e-27  3.60027e-27        00000 
 3.72973e-27 -3.81250e-27        00000 
-1.00342e-40 -1.43937e-40        00000 
 2.71770e-40  3.90766e-40        00000 
-1.36021e-39 -1.96181e-39        00000 
 6.96497e-39  1.00799e-38        00000 
-3.52947e-38 -5.12862e-38        00000 
 1.76502e-37  2.57717e-37        00000 
-8.69310e-37 -1.27679e-36        00000 
 4.20687e-36  6.22371e-36        00000 
-1.99465e-35 -2.97782e-35        00000 
 9.23387e-35  1.39457e-34        00000 
-4.15565e-34 -6.37112e-34        00000 
 1.80837e-33  2.82816e-33        00000 
-7.55713e-33 -1.21414e-32        00000 
 3.00604e-32  5.01349e-32        00000 
-1.12486e-31 -1.97879e-31        00000 
 3.89619e-31  7.41401e-31        00000 
-1.21999e-30 -2.61818e-30        00000 
 3.32243e-30  8.65724e-30        00000 
-7.27125e-30 -2.66715e-29        00000 
 9.81109e-30  7.63860e-29        00000 
 9.46691e-30 -2.03490e-28        00000 
-1.21146e-28  5.05252e-28        00000 
 5.01979e-28 -1.16847e-27        00000 
-1.48538e-27  2.49800e-27        00000 
 3.52687e-27 -4.86718e-27        00000 
-6.99198e-27  8.50954e-27        00000 
 1.17818e-26 -1.31960e-26        00000 
-1.70273e-26  1.80498e-26        00000 
 2.12059e-26 -2.17611e-26        00000 
-2.28102e-26  2.31546e-26        00000 
 1.73829e-40  2.47622e-40        00000 
-4.80794e-40 -6.86100e-40        00000 
 2.46842e-39  3.53039e-39        00000 
-1.29720e-38 -1.85987e-38        00000 
 6.75939e-38  9.71920e-38        00000 
-3.48381e-37 -5.02634e-37        00000 
 1.77308e-36  2.56858e-36        00000 
-8.89358e-36 -1.29479e-35        00000 
 4.38606e-35  6.42493e-35        00000 
-2.12061e-34 -3.13059e-34        00000 
 1.00156e-33  1.49342e-33        00000 
-4.60011e-33 -6.94982e-33        00000 
 2.04292e-32  3.14140e-32        00000 
-8.70792e-32 -1.37204e-31        00000 
 3.52798e-31  5.75428e-31        00000 
-1.34077e-30 -2.30050e-30        00000 
 4.69170e-30  8.69505e-30        00000 
-1.47018e-29 -3.08013e-29        00000 
 3.93597e-29  1.01456e-28        00000 
-8.12443e-29 -3.09070e-28        00000 
 8.42743e-29  8.69562e-28        00000 
 2.37963e-28 -2.26611e-27        00000 
-1.76951e-27  5.49452e-27        00000 
 6.46124e-27 -1.23717e-26        00000 
-1.73907e-26  2.55005e-26        00000 
 3.75816e-26 -4.70610e-26        00000 
-6.73157e-26  7.62934e-26        00000 
 1.01409e-25 -1.07623e-25        00000 
-1.29400e-25  1.32006e-25        00000 
 1.40310e-25 -1.41223e-25        00000 
-2.88130e-40 -4.08204e-40        00000 
 8.11779e-40  1.15160e-39        00000 
-4.26195e-39 -6.05610e-39        00000 
 2.29173e-38  3.26232e-38        00000 
-1.22411e-37 -1.74610e-37        00000 
 6.48128e-37  9.26698e-37        00000 
-3.39706e-36 -4.87070e-36        00000 
 1.75980e-35  2.53162e-35        00000 
-8.99304e-35 -1.29900e-34        00000 
 4.52289e-34  6.56615e-34        00000 
-2.23217e-33 -3.26140e-33        00000 
 1.07709e-32  1.58686e-32        00000 
-5.05782e-32 -7.53464e-32        00000 
 2.29748e-31  3.47479e-31        00000 
-1.00153e-30 -1.54742e-30        00000 
 4.14520e-30  6.60696e-30        00000 
-1.60488e-29 -2.68129e-29        00000 
 5.68875e-29  1.02390e-28        00000 
-1.78589e-28 -3.63939e-28        00000 
 4.68438e-28  1.19237e-27        00000 
-8.94679e-28 -3.58030e-27        00000 
 5.45591e-28  9.85580e-27        00000 
 4.52463e-27 -2.50485e-26        00000 
-2.50336e-26  5.92779e-26        00000 
 8.10029e-26 -1.29782e-25        00000 
-1.96284e-25  2.55565e-25        00000 
 3.80007e-25 -4.38126e-25        00000 
-6.02977e-25  6.42079e-25        00000 
 7.93025e-25 -8.03496e-25        00000 
-8.68500e-25  8.64693e-25        00000 
 4.54354e-40  6.40794e-40        00000 
-1.30128e-39 -1.83714e-39        00000 
 6.96890e-39  9.85096e-39        00000 
-3.82476e-38 -5.41367e-38        00000 
 2.08868e-37  2.96072e-37        00000 
-1.13288e-36 -1.60854e-36        00000 
 6.09656e-36  8.67273e-36        00000 
-3.25114e-35 -4.63520e-35        00000 
 1.71548e-34  2.45223e-34        00000 
-8.93995e-34 -1.28203e-33        00000 
 4.59083e-33  6.60956e-33        00000 
-2.31635e-32 -3.35178e-32        00000 
 1.14414e-31  1.66654e-31        00000 
-5.50624e-31 -8.09198e-31        00000 
 2.56568e-30  3.81756e-30        00000 
-1.14774e-29 -1.73862e-29        00000 
 4.87184e-29  7.58127e-29        00000 
-1.92960e-28 -3.13265e-28        00000 
 6.95480e-28  1.21132e-27        00000 
-2.19125e-27 -4.32208e-27        00000 
 5.60562e-27  1.40533e-26        00000 
-9.60864e-27 -4.14089e-26        00000 
-1.25303e-28  1.10937e-25        00000 
 7.68334e-26 -2.74181e-25        00000 
-3.44011e-25  6.35081e-25        00000 
 9.81765e-25 -1.34943e-24        00000 
-2.10653e-24  2.49014e-24        00000 
 3.57323e-24 -3.83525e-24        00000 
-4.88475e-24  4.91078e-24        00000 
 5.41848e-24 -5.31470e-24        00000 
-6.80626e-40 -9.56170e-40        00000 
 1.97785e-39  2.78086e-39        00000 
-1.07795e-38 -1.51709e-38        00000 
 6.02417e-38  8.48695e-38        00000 
-3.35489e-37 -4.73159e-37        00000 
 1.85897e-36  2.62495e-36        00000 
-1.02408e-35 -1.44796e-35        00000 
 5.60346e-35  7.93469e-35        00000 
-3.04197e-34 -4.31488e-34        00000 
 1.63615e-33  2.32543e-33        00000 
-8.70393e-33 -1.24003e-32        00000 
 4.56967e-32  6.52941e-32        00000 
-2.36118e-31 -3.38636e-31        00000 
 1.19642e-30  1.72428e-30        00000 
-5.91673e-30 -8.58420e-30        00000 
 2.83750e-29  4.15589e-29        00000 
-1.30792e-28 -1.94275e-28        00000 
 5.72150e-28  8.68720e-28        00000 
-2.33099e-27 -3.66993e-27        00000 
 8.58839e-27  1.44149e-26        00000 
-2.72350e-26 -5.16602e-26        00000 
 6.74959e-26  1.66087e-25        00000 
-9.83932e-26 -4.77294e-25        00000 
-9.98040e-26  1.23516e-24        00000 
 1.22625e-24 -2.96403e-24        00000 
-4.57949e-24  6.79740e-24        00000 
 1.13495e-23 -1.38959e-23        00000 
-2.10351e-23  2.29915e-23        00000 
 3.02693e-23 -3.01805e-23        00000 
-3.41585e-23  3.27355e-23        00000 
 9.68162e-40  1.35531e-39        00000 
-2.84926e-39 -3.99142e-39        00000 
 1.57672e-38  2.21058e-38        00000 
-8.95155e-38 -1.25606e-37        00000 
 5.07101e-37  7.12170e-37        00000 
-2.86269e-36 -4.02406e-36        00000 
 1.60949e-35  2.26469e-35        00000 
-9.00641e-35 -1.26862e-34        00000 
 5.01203e-34  7.06805e-34        00000 
-2.77106e-33 -3.91282e-33        00000 
 1.52023e-32  2.14974e-32        00000 
-8.26293e-32 -1.17042e-31        00000 
 4.44072e-31  6.30282e-31        00000 
-2.35368e-30 -3.34902e-30        00000 
 1.22612e-29  1.75033e-29        00000 
-6.24900e-29 -8.96052e-29        00000 
 3.09601e-28  4.46813e-28        00000 
-1.47757e-27 -2.15365e-27        00000 
 6.70178e-27  9.92799e-27        00000 
-2.82903e-26 -4.31231e-26        00000 
 1.07377e-25  1.72875e-25        00000 
-3.44354e-25 -6.22774e-25        00000 
 8.17847e-25  1.96628e-24        00000 
-9.07052e-25 -5.46894e-24        00000 
-2.67294e-24  1.35033e-23        00000 
 1.87910e-23 -3.15585e-23        00000 
-5.84052e-23  7.41630e-23        00000 
 1.22188e-22 -1.39457e-22        00000 
-1.88827e-22  1.87461e-22        00000 
 2.18550e-22 -2.00250e-22        00000 
-1.30752e-39 -1.82419e-39        00000 
 3.88975e-39  5.43023e-39        00000 
-2.18058e-38 -3.04640e-38        00000 
 1.25471e-37  1.75418e-37        00000 
-7.21198e-37 -1.00904e-36        00000 
 4.13636e-36  5.79179e-36        00000 
-2.36631e-35 -3.31603e-35        00000 
 1.34966e-34  1.89295e-34        00000 
-7.67096e-34 -1.07683e-33        00000 
 4.34171e-33  6.10046e-33        00000 
-2.44515e-32 -3.43901e-32        00000 
 1.36879e-31  1.92717e-31        00000 
-7.60646e-31 -1.07216e-30        00000 
 4.18887e-30  5.91190e-30        00000 
-2.28084e-29 -3.22380e-29        00000 
 1.22417e-28  1.73344e-28        00000 
-6.44895e-28 -9.15407e-28        00000 
 3.31438e-27  4.72128e-27        00000 
-1.64696e-26 -2.35929e-26        00000 
 7.80380e-26  1.12900e-25        00000 
-3.44683e-25 -5.08289e-25        00000 
 1.36331e-24  2.09539e-24        00000 
-4.45955e-24 -7.59914e-24        00000 
 9.95000e-24  2.32230e-23        00000 
-6.07555e-24 -6.22341e-23        00000 
-5.40437e-23  1.42386e-22        00000 
 2.80245e-22 -3.30844e-22        00000 
-6.90542e-22  8.72880e-22        00000 
 1.18177e-21 -1.21488e-21        00000 
-1.43586e-21  1.15078e-21        00000 
 1.67643e-39  2.33094e-39        00000 
-5.03193e-39 -7.00059e-39        00000 
 2.85121e-38  3.96940e-38        00000 
-1.65886e-37 -2.31099e-37        00000 
 9.65006e-37  1.34530e-36        00000 
-5.60757e-36 -7.82307e-36        00000 
 3.25421e-35  4.54329e-35        00000 
-1.88553e-34 -2.63446e-34        00000 
 1.09046e-33  1.52478e-33        00000 
-6.29232e-33 -8.80551e-33        00000 
 3.62100e-32  5.07135e-32        00000 
-2.07684e-31 -2.91107e-31        00000 
 1.18631e-30  1.66418e-30        00000 
-6.74183e-30 -9.46515e-30        00000 
 3.80677e-29  5.34867e-29        00000 
-2.13180e-28 -2.99753e-28        00000 
 1.18100e-27  1.66184e-27        00000 
-6.44904e-27 -9.08186e-27        00000 
 3.45280e-26  4.86714e-26        00000 
-1.79766e-25 -2.53803e-25        00000 
 8.98040e-25  1.27210e-24        00000 
-4.20517e-24 -6.00587e-24        00000 
 1.76419e-23  2.57876e-23        00000 
-5.98648e-23 -9.45336e-23        00000 
 1.20199e-22  2.69316e-22        00000 
 1.87307e-23 -7.14137e-22        00000 
-9.48962e-22  1.35228e-21        00000 
 4.18325e-21 -3.49506e-21        00000 
-6.60406e-21  1.24662e-20        00000 
 1.07270e-20 -8.27135e-22        00000 
-2.04060e-39 -2.82707e-39        00000 
 6.16832e-39  8.55041e-39        00000 
-3.52469e-38 -4.88901e-38        00000 
 2.06868e-37  2.87126e-37        00000 
-1.21484e-36 -1.68729e-36        00000 
 7.13248e-36  9.91317e-36        00000 
-4.18609e-35 -5.82230e-35        00000 
 2.45573e-34  3.41816e-34        00000 
-1.43979e-33 -2.00562e-33        00000 
 8.43520e-33  1.17595e-32        00000 
-4.93718e-32 -6.88851e-32        00000 
 2.88624e-31  4.03027e-31        00000 
-1.68463e-30 -2.35427e-30        00000 
 9.81277e-30  1.37241e-29        00000 
-5.70062e-29 -7.97860e-29        00000 
 3.30005e-28  4.62162e-28        00000 
-1.90136e-27 -2.66399e-27        00000 
 1.08841e-26  1.52526e-26        00000 
-6.17424e-26 -8.65055e-26        00000 
 3.45694e-25  4.83960e-25        00000 
-1.89796e-24 -2.65283e-24        00000 
 1.01029e-23  1.40849e-23        00000 
-5.10302e-23 -7.09240e-23        00000 
 2.33438e-22  3.24526e-22        00000 
-8.52190e-22 -1.22048e-21        00000 
 1.37744e-21  2.86796e-21        00000 
 2.09174e-21 -9.11838e-21        00000 
-1.40559e-20  6.66385e-21        00000 
 3.88630e-20 -7.99193e-21        00000 
-4.52087e-20  1.60793e-21        00000 
 2.35817e-39  3.25410e-39        00000 
-7.16522e-39 -9.89253e-39        00000 
 4.11969e-38  5.69118e-38        00000 
-2.43340e-37 -3.36367e-37        00000 
 1.43895e-36  1.99032e-36        00000 
-8.51221e-36 -1.17818e-35        00000 
 5.03723e-35  6.97699e-35        00000 
-2.98193e-34 -4.13331e-34        00000 
 1.76586e-33  2.44963e-33        00000 
-1.04608e-32 -1.45235e-32        00000 
 6.19898e-32  8.61394e-32        00000 
-3.67455e-31 -5.11069e-31        00000 
 2.17868e-30  3.03304e-30        00000 
-1.29199e-29 -1.80037e-29        00000 
 7.66198e-29  1.06872e-28        00000 
-4.54320e-28 -6.34296e-28        00000 
 2.69274e-27  3.76269e-27        00000 
-1.59457e-26 -2.22973e-26        00000 
 9.42764e-26  1.31880e-25        00000 
-5.55860e-25 -7.77444e-25        00000 
 3.26195e-24  4.55706e-24        00000 
-1.89849e-23 -2.64461e-23        00000 
 1.08843e-22  1.50703e-22        00000 
-6.05740e-22 -8.28684e-22        00000 
 3.15193e-21  4.21167e-21        00000 
-1.34485e-20 -1.71891e-20        00000 
 1.18647e-20  1.79853e-20        00000 
 6.42898e-20 -1.76178e-19        00000 
-1.72035e-19 -6.83469e-21        00000 
 3.65829e-19 -6.85226e-23        00000 
-2.58740e-39 -3.55445e-39        00000 
 7.88766e-39  1.08405e-38        00000 
-4.55291e-38 -6.26058e-38        00000 
 2.70026e-37  3.71502e-37        00000 
-1.60380e-36 -2.20777e-36        00000 
 9.53296e-36  1.31309e-35        00000 
-5.67089e-35 -7.81629e-35        00000 
 3.37638e-34  4.65700e-34        00000 
-2.01215e-33 -2.77744e-33        00000 
 1.20037e-32  1.65828e-32        00000 
-7.16908e-32 -9.91264e-32        00000 
 4.28696e-31  5.93327e-31        00000 
-2.56705e-30 -3.55657e-30        00000 
 1.53951e-29  2.13537e-29        00000 
-9.24857e-29 -1.28440e-28        00000 
 5.56678e-28  7.74121e-28        00000 
-3.35802e-27 -4.67638e-27        00000 
 2.03071e-26  2.83227e-26        00000 
-1.23158e-25 -1.72042e-25        00000 
 7.49440e-25  1.04852e-24        00000 
-4.57850e-24 -6.41422e-24        00000 
 2.81021e-23  3.93991e-23        00000 
-1.73449e-22 -2.43011e-22        00000 
 1.07755e-21  1.50355e-21        00000 
-6.74054e-21 -9.28783e-21        00000 
 4.22717e-20  5.61787e-20        00000 
-2.53724e-19 -2.99180e-19        00000 
-9.89638e-20 -5.65452e-19        00000 
 1.86391e-18 -2.44150e-19        00000 
-2.18321e-18        00000        00000 
 2.69561e-39  3.68409e-39        00000 
-8.22927e-39 -1.12506e-38        00000 
 4.75818e-38  6.50762e-38        00000 
-2.82697e-37 -3.86790e-37        00000 
 1.68225e-36  2.30268e-36        00000 
-1.00199e-35 -1.37218e-35        00000 
 5.97397e-35  8.18531e-35        00000 
-3.56559e-34 -4.88821e-34        00000 
 2.13067e-33  2.92284e-33        00000 
-1.27488e-32 -1.75008e-32        00000 
 7.63933e-32  1.04949e-31        00000 
-4.58511e-31 -6.30449e-31        00000 
 2.75702e-30  3.79458e-30        00000 
-1.66125e-29 -2.28896e-29        00000 
 1.00337e-28  1.38425e-28        00000 
-6.07687e-28 -8.39589e-28        00000 
 3.69226e-27  5.10997e-27        00000 
-2.25192e-26 -3.12286e-26        00000 
 1.37974e-25  1.91795e-25        00000 
-8.50113e-25 -1.18516e-24        00000 
 5.27488e-24  7.38013e-24        00000 
-3.30302e-23 -4.64198e-23        00000 
 2.09394e-22  2.95954e-22        00000 
-1.35105e-21 -1.92355e-21        00000 
 8.95976e-21  1.28748e-20        00000 
-6.24080e-20 -9.05806e-20        00000 
 4.86989e-19  7.05454e-19        00000 
-6.20839e-18 -7.66477e-18        00000 
-7.50427e-02 -2.21074e-01        00000 
 7.50427e-02 -2.21074e-01        00000 
-2.66686e-39 -3.62320e-39        00000 
 8.13803e-39  1.10580e-38        00000 
-4.70301e-38 -6.39159e-38        00000 
 2.79269e-37  3.79609e-37        00000 
-1.66088e-36 -2.25810e-36        00000 
 9.88625e-36  1.34442e-35        00000 
-5.89011e-35 -8.01198e-35        00000 
 3.51277e-34  4.77961e-34        00000 
-2.09725e-33 -2.85455e-33        00000 
 1.25365e-32  1.70697e-32        00000 
-7.50374e-32 -1.02215e-31        00000 
 4.49801e-31  6.13023e-31        00000 
-2.70071e-30 -3.68289e-30        00000 
 1.62456e-29  2.21692e-29        00000 
-9.79266e-29 -1.33744e-28        00000 
 5.91693e-28  8.08921e-28        00000 
-3.58488e-27 -4.90705e-27        00000 
 2.17882e-26  2.98703e-26        00000 
-1.32913e-25 -1.82578e-25        00000 
 8.14339e-25  1.12154e-24        00000 
-5.01533e-24 -6.93167e-24        00000 
 3.10824e-23  4.31726e-23        00000 
-1.94098e-22 -2.71588e-22        00000 
 1.22304e-21  1.73145e-21        00000 
-7.78170e-21 -1.12454e-20        00000 
 4.97385e-20  7.50062e-20        00000 
-3.03259e-19 -5.17516e-19        00000 
-1.29108e-20  3.04289e-18        00000 
 7.50427e-02 -2.21074e-01        00000 
-7.50427e-02 -2.21074e-01        00000 
 2.50581e-39  3.38110e-39        00000 
-7.62925e-39 -1.02931e-38        00000 
 4.39706e-38  5.93161e-38        00000 
-2.60369e-37 -3.51191e-37        00000 
 1.54377e-36  2.08199e-36        00000 
-9.15868e-36 -1.23500e-35        00000 
 5.43683e-35  7.33013e-35        00000 
-3.22950e-34 -4.35342e-34        00000 
 1.91964e-33  2.58725e-33        00000 
-1.14187e-32 -1.53869e-32        00000 
 6.79737e-32  9.15771e-32        00000 
-4.04960e-31 -5.45457e-31        00000 
 2.41460e-30  3.25153e-30        00000 
-1.44097e-29 -1.93990e-29        00000 
 8.60695e-29  1.15835e-28        00000 
-5.14546e-28 -6.92254e-28        00000 
 3.07865e-27  4.14027e-27        00000 