<?xml version="1.0" encoding="utf-8"?>
<VTKFile byte_order="LittleEndian" type="UnstructuredGrid" version="0.1">
   <UnstructuredGrid>
      <Piece NumberOfCells="3364" NumberOfPoints="1741">
         <Points>
            <DataArray Name="Points" NumberOfComponents="3" format="ascii" type="Float32">
0.0000 1.0000 0.0000
0.0000 1.0345 0.0000
0.0000 1.0690 0.0000
0.0000 1.1034 0.0000
0.0000 1.1379 0.0000
0.0000 1.1724 0.0000
0.0000 1.2069 0.0000
0.0000 1.2414 0.0000
0.0000 1.2759 0.0000
0.0000 1.3103 0.0000
0.0000 1.3448 0.0000
0.0000 1.3793 0.0000
0.0000 1.4138 0.0000
0.0000 1.4483 0.0000
0.0000 1.4828 0.0000
0.0000 1.5172 0.0000
0.0000 1.5517 0.0000
0.0000 1.5862 0.0000
0.0000 1.6207 0.0000
0.0000 1.6552 0.0000
0.0000 1.6897 0.0000
0.0000 1.7241 0.0000
0.0000 1.7586 0.0000
0.0000 1.7931 0.0000
0.0000 1.8276 0.0000
0.0000 1.8621 0.0000
0.0000 1.8966 0.0000
0.0000 1.9310 0.0000
0.0000 1.9655 0.0000
0.0000 2.0000 0.0000
0.0690 1.0000 0.0000
0.0690 1.0345 0.0000
0.0690 1.0690 0.0000
0.0690 1.1034 0.0000
0.0690 1.1379 0.0000
0.0690 1.1724 0.0000
0.0690 1.2069 0.0000
0.0690 1.2414 0.0000
0.0690 1.2759 0.0000
0.0690 1.3103 0.0000
0.0690 1.3448 0.0000
0.0690 1.3793 0.0000
0.0690 1.4138 0.0000
0.0690 1.4483 0.0000
0.0690 1.4828 0.0000
0.0690 1.5172 0.0000
0.0690 1.5517 0.0000
0.0690 1.5862 0.0000
0.0690 1.6207 0.0000
0.0690 1.6552 0.0000
0.0690 1.6897 0.0000
0.0690 1.7241 0.0000
0.0690 1.7586 0.0000
0.0690 1.7931 0.0000
0.0690 1.8276 0.0000
0.0690 1.8621 0.0000
0.0690 1.8966 0.0000
0.0690 1.9310 0.0000
0.0690 1.9655 0.0000
0.0690 2.0000 0.0000
0.1379 1.0000 0.0000
0.1379 1.0345 0.0000
0.1379 1.0690 0.0000
0.1379 1.1034 0.0000
0.1379 1.1379 0.0000
0.1379 1.1724 0.0000
0.1379 1.2069 0.0000
0.1379 1.2414 0.0000
0.1379 1.2759 0.0000
0.1379 1.3103 0.0000
0.1379 1.3448 0.0000
0.1379 1.3793 0.0000
0.1379 1.4138 0.0000
0.1379 1.4483 0.0000
0.1379 1.4828 0.0000
0.1379 1.5172 0.0000
0.1379 1.5517 0.0000
0.1379 1.5862 0.0000
0.1379 1.6207 0.0000
0.1379 1.6552 0.0000
0.1379 1.6897 0.0000
0.1379 1.7241 0.0000
0.1379 1.7586 0.0000
0.1379 1.7931 0.0000
0.1379 1.8276 0.0000
0.1379 1.8621 0.0000
0.1379 1.8966 0.0000
0.1379 1.9310 0.0000
0.1379 1.9655 0.0000
0.1379 2.0000 0.0000
0.2069 1.0000 0.0000
0.2069 1.0345 0.0000
0.2069 1.0690 0.0000
0.2069 1.1034 0.0000
0.2069 1.1379 0.0000
0.2069 1.1724 0.0000
0.2069 1.2069 0.0000
0.2069 1.2414 0.0000
0.2069 1.2759 0.0000
0.2069 1.3103 0.0000
0.2069 1.3448 0.0000
0.2069 1.3793 0.0000
0.2069 1.4138 0.0000
0.2069 1.4483 0.0000
0.2069 1.4828 0.0000
0.2069 1.5172 0.0000
0.2069 1.5517 0.0000
0.2069 1.5862 0.0000
0.2069 1.6207 0.0000
0.2069 1.6552 0.0000
0.2069 1.6897 0.0000
0.2069 1.7241 0.0000
0.2069 1.7586 0.0000
0.2069 1.7931 0.0000
0.2069 1.8276 0.0000
0.2069 1.8621 0.0000
0.2069 1.8966 0.0000
0.2069 1.9310 0.0000
0.2069 1.9655 0.0000
0.2069 2.0000 0.0000
0.2759 1.0000 0.0000
0.2759 1.0345 0.0000
0.2759 1.0690 0.0000
0.2759 1.1034 0.0000
0.2759 1.1379 0.0000
0.2759 1.1724 0.0000
0.2759 1.2069 0.0000
0.2759 1.2414 0.0000
0.2759 1.2759 0.0000
0.2759 1.3103 0.0000
0.2759 1.3448 0.0000
0.2759 1.3793 0.0000
0.2759 1.4138 0.0000
0.2759 1.4483 0.0000
0.2759 1.4828 0.0000
0.2759 1.5172 0.0000
0.2759 1.5517 0.0000
0.2759 1.5862 0.0000
0.2759 1.6207 0.0000
0.2759 1.6552 0.0000
0.2759 1.6897 0.0000
0.2759 1.7241 0.0000
0.2759 1.7586 0.0000
0.2759 1.7931 0.0000
0.2759 1.8276 0.0000
0.2759 1.8621 0.0000
0.2759 1.8966 0.0000
0.2759 1.9310 0.0000
0.2759 1.9655 0.0000
0.2759 2.0000 0.0000
0.3448 1.0000 0.0000
0.3448 1.0345 0.0000
0.3448 1.0690 0.0000
0.3448 1.1034 0.0000
0.3448 1.1379 0.0000
0.3448 1.1724 0.0000
0.3448 1.2069 0.0000
0.3448 1.2414 0.0000
0.3448 1.2759 0.0000
0.3448 1.3103 0.0000
0.3448 1.3448 0.0000
0.3448 1.3793 0.0000
0.3448 1.4138 0.0000
0.3448 1.4483 0.0000
0.3448 1.4828 0.0000
0.3448 1.5172 0.0000
0.3448 1.5517 0.0000
0.3448 1.5862 0.0000
0.3448 1.6207 0.0000
0.3448 1.6552 0.0000
0.3448 1.6897 0.0000
0.3448 1.7241 0.0000
0.3448 1.7586 0.0000
0.3448 1.7931 0.0000
0.3448 1.8276 0.0000
0.3448 1.8621 0.0000
0.3448 1.8966 0.0000
0.3448 1.9310 0.0000
0.3448 1.9655 0.0000
0.3448 2.0000 0.0000
0.4138 1.0000 0.0000
0.4138 1.0345 0.0000
0.4138 1.0690 0.0000
0.4138 1.1034 0.0000
0.4138 1.1379 0.0000
0.4138 1.1724 0.0000
0.4138 1.2069 0.0000
0.4138 1.2414 0.0000
0.4138 1.2759 0.0000
0.4138 1.3103 0.0000
0.4138 1.3448 0.0000
0.4138 1.3793 0.0000
0.4138 1.4138 0.0000
0.4138 1.4483 0.0000
0.4138 1.4828 0.0000
0.4138 1.5172 0.0000
0.4138 1.5517 0.0000
0.4138 1.5862 0.0000
0.4138 1.6207 0.0000
0.4138 1.6552 0.0000
0.4138 1.6897 0.0000
0.4138 1.7241 0.0000
0.4138 1.7586 0.0000
0.4138 1.7931 0.0000
0.4138 1.8276 0.0000
0.4138 1.8621 0.0000
0.4138 1.8966 0.0000
0.4138 1.9310 0.0000
0.4138 1.9655 0.0000
0.4138 2.0000 0.0000
0.4828 1.0000 0.0000
0.4828 1.0345 0.0000
0.4828 1.0690 0.0000
0.4828 1.1034 0.0000
0.4828 1.1379 0.0000
0.4828 1.1724 0.0000
0.4828 1.2069 0.0000
0.4828 1.2414 0.0000
0.4828 1.2759 0.0000
0.4828 1.3103 0.0000
0.4828 1.3448 0.0000
0.4828 1.3793 0.0000
0.4828 1.4138 0.0000
0.4828 1.4483 0.0000
0.4828 1.4828 0.0000
0.4828 1.5172 0.0000
0.4828 1.5517 0.0000
0.4828 1.5862 0.0000
0.4828 1.6207 0.0000
0.4828 1.6552 0.0000
0.4828 1.6897 0.0000
0.4828 1.7241 0.0000
0.4828 1.7586 0.0000
0.4828 1.7931 0.0000
0.4828 1.8276 0.0000
0.4828 1.8621 0.0000
0.4828 1.8966 0.0000
0.4828 1.9310 0.0000
0.4828 1.9655 0.0000
0.4828 2.0000 0.0000
0.5517 1.0000 0.0000
0.5517 1.0345 0.0000
0.5517 1.0690 0.0000
0.5517 1.1034 0.0000
0.5517 1.1379 0.0000
0.5517 1.1724 0.0000
0.5517 1.2069 0.0000
0.5517 1.2414 0.0000
0.5517 1.2759 0.0000
0.5517 1.3103 0.0000
0.5517 1.3448 0.0000
0.5517 1.3793 0.0000
0.5517 1.4138 0.0000
0.5517 1.4483 0.0000
0.5517 1.4828 0.0000
0.5517 1.5172 0.0000
0.5517 1.5517 0.0000
0.5517 1.5862 0.0000
0.5517 1.6207 0.0000
0.5517 1.6552 0.0000
0.5517 1.6897 0.0000
0.5517 1.7241 0.0000
0.5517 1.7586 0.0000
0.5517 1.7931 0.0000
0.5517 1.8276 0.0000
0.5517 1.8621 0.0000
0.5517 1.8966 0.0000
0.5517 1.9310 0.0000
0.5517 1.9655 0.0000
0.5517 2.0000 0.0000
0.6207 1.0000 0.0000
0.6207 1.0345 0.0000
0.6207 1.0690 0.0000
0.6207 1.1034 0.0000
0.6207 1.1379 0.0000
0.6207 1.1724 0.0000
0.6207 1.2069 0.0000
0.6207 1.2414 0.0000
0.6207 1.2759 0.0000
0.6207 1.3103 0.0000
0.6207 1.3448 0.0000
0.6207 1.3793 0.0000
0.6207 1.4138 0.0000
0.6207 1.4483 0.0000
0.6207 1.4828 0.0000
0.6207 1.5172 0.0000
0.6207 1.5517 0.0000
0.6207 1.5862 0.0000
0.6207 1.6207 0.0000
0.6207 1.6552 0.0000
0.6207 1.6897 0.0000
0.6207 1.7241 0.0000
0.6207 1.7586 0.0000
0.6207 1.7931 0.0000
0.6207 1.8276 0.0000
0.6207 1.8621 0.0000
0.6207 1.8966 0.0000
0.6207 1.9310 0.0000
0.6207 1.9655 0.0000
0.6207 2.0000 0.0000
0.6897 1.0000 0.0000
0.6897 1.0345 0.0000
0.6897 1.0690 0.0000
0.6897 1.1034 0.0000
0.6897 1.1379 0.0000
0.6897 1.1724 0.0000
0.6897 1.2069 0.0000
0.6897 1.2414 0.0000
0.6897 1.2759 0.0000
0.6897 1.3103 0.0000
0.6897 1.3448 0.0000
0.6897 1.3793 0.0000
0.6897 1.4138 0.0000
0.6897 1.4483 0.0000
0.6897 1.4828 0.0000
0.6897 1.5172 0.0000
0.6897 1.5517 0.0000
0.6897 1.5862 0.0000
0.6897 1.6207 0.0000
0.6897 1.6552 0.0000
0.6897 1.6897 0.0000
0.6897 1.7241 0.0000
0.6897 1.7586 0.0000
0.6897 1.7931 0.0000
0.6897 1.8276 0.0000
0.6897 1.8621 0.0000
0.6897 1.8966 0.0000
0.6897 1.9310 0.0000
0.6897 1.9655 0.0000
0.6897 2.0000 0.0000
0.7586 1.0000 0.0000
0.7586 1.0345 0.0000
0.7586 1.0690 0.0000
0.7586 1.1034 0.0000
0.7586 1.1379 0.0000
0.7586 1.1724 0.0000
0.7586 1.2069 0.0000
0.7586 1.2414 0.0000
0.7586 1.2759 0.0000
0.7586 1.3103 0.0000
0.7586 1.3448 0.0000
0.7586 1.3793 0.0000
0.7586 1.4138 0.0000
0.7586 1.4483 0.0000
0.7586 1.4828 0.0000
0.7586 1.5172 0.0000
0.7586 1.5517 0.0000
0.7586 1.5862 0.0000
0.7586 1.6207 0.0000
0.7586 1.6552 0.0000
0.7586 1.6897 0.0000
0.7586 1.7241 0.0000
0.7586 1.7586 0.0000
0.7586 1.7931 0.0000
0.7586 1.8276 0.0000
0.7586 1.8621 0.0000
0.7586 1.8966 0.0000
0.7586 1.9310 0.0000
0.7586 1.9655 0.0000
0.7586 2.0000 0.0000
0.8276 1.0000 0.0000
0.8276 1.0345 0.0000
0.8276 1.0690 0.0000
0.8276 1.1034 0.0000
0.8276 1.1379 0.0000
0.8276 1.1724 0.0000
0.8276 1.2069 0.0000
0.8276 1.2414 0.0000
0.8276 1.2759 0.0000
0.8276 1.3103 0.0000
0.8276 1.3448 0.0000
0.8276 1.3793 0.0000
0.8276 1.4138 0.0000
0.8276 1.4483 0.0000
0.8276 1.4828 0.0000
0.8276 1.5172 0.0000
0.8276 1.5517 0.0000
0.8276 1.5862 0.0000
0.8276 1.6207 0.0000
0.8276 1.6552 0.0000
0.8276 1.6897 0.0000
0.8276 1.7241 0.0000
0.8276 1.7586 0.0000
0.8276 1.7931 0.0000
0.8276 1.8276 0.0000
0.8276 1.8621 0.0000
0.8276 1.8966 0.0000
0.8276 1.9310 0.0000
0.8276 1.9655 0.0000
0.8276 2.0000 0.0000
0.8966 1.0000 0.0000
0.8966 1.0345 0.0000
0.8966 1.0690 0.0000
0.8966 1.1034 0.0000
0.8966 1.1379 0.0000
0.8966 1.1724 0.0000
0.8966 1.2069 0.0000
0.8966 1.2414 0.0000
0.8966 1.2759 0.0000
0.8966 1.3103 0.0000
0.8966 1.3448 0.0000
0.8966 1.3793 0.0000
0.8966 1.4138 0.0000
0.8966 1.4483 0.0000
0.8966 1.4828 0.0000
0.8966 1.5172 0.0000
0.8966 1.5517 0.0000
0.8966 1.5862 0.0000
0.8966 1.6207 0.0000
0.8966 1.6552 0.0000
0.8966 1.6897 0.0000
0.8966 1.7241 0.0000
0.8966 1.7586 0.0000
0.8966 1.7931 0.0000
0.8966 1.8276 0.0000
0.8966 1.8621 0.0000
0.8966 1.8966 0.0000
0.8966 1.9310 0.0000
0.8966 1.9655 0.0000
0.8966 2.0000 0.0000
0.9655 1.0000 0.0000
0.9655 1.0345 0.0000
0.9655 1.0690 0.0000
0.9655 1.1034 0.0000
0.9655 1.1379 0.0000
0.9655 1.1724 0.0000
0.9655 1.2069 0.0000
0.9655 1.2414 0.0000
0.9655 1.2759 0.0000
0.9655 1.3103 0.0000
0.9655 1.3448 0.0000
0.9655 1.3793 0.0000
0.9655 1.4138 0.0000
0.9655 1.4483 0.0000
0.9655 1.4828 0.0000
0.9655 1.5172 0.0000
0.9655 1.5517 0.0000
0.9655 1.5862 0.0000
0.9655 1.6207 0.0000
0.9655 1.6552 0.0000
0.9655 1.6897 0.0000
0.9655 1.7241 0.0000
0.9655 1.7586 0.0000
0.9655 1.7931 0.0000
0.9655 1.8276 0.0000
0.9655 1.8621 0.0000
0.9655 1.8966 0.0000
0.9655 1.9310 0.0000
0.9655 1.9655 0.0000
0.9655 2.0000 0.0000
1.0345 1.0000 0.0000
1.0345 1.0345 0.0000
1.0345 1.0690 0.0000
1.0345 1.1034 0.0000
1.0345 1.1379 0.0000
1.0345 1.1724 0.0000
1.0345 1.2069 0.0000
1.0345 1.2414 0.0000
1.0345 1.2759 0.0000
1.0345 1.3103 0.0000
1.0345 1.3448 0.0000
[...]
         <PointData>
            <DataArray Name="fValues" NumberOfComponents="3" format="ascii" type="Float64">
 1.11879e-31  1.67585e-31        00000 
-1.08273e-31 -1.74372e-31        00000 
 9.67185e-32  1.92661e-31        00000 
-7.58498e-32 -2.16836e-31        00000 
 4.56028e-32  2.39351e-31        00000 
-8.82675e-33 -2.52882e-31        00000 
-2.86721e-32  2.52357e-31        00000 
 5.98953e-32 -2.36252e-31        00000 
-7.92883e-32  2.06746e-31        00000 
 8.47741e-32 -1.68769e-31        00000 
-7.81463e-32  1.28335e-31        00000 
 6.38236e-32 -9.08155e-32        00000 
-4.68417e-32  5.97654e-32        00000 
 3.11580e-32 -3.65650e-32        00000 
-1.88940e-32  2.07980e-32        00000 
 1.04915e-32 -1.10032e-32        00000 
-5.35519e-33  5.41971e-33        00000 
 2.52176e-33 -2.48899e-33        00000 
-1.09953e-33  1.06789e-33        00000 
 4.45594e-34 -4.29107e-34        00000 
-1.68528e-34  1.61967e-34        00000 
 5.97418e-35 -5.76183e-35        00000 
-1.99394e-35  1.93883e-35        00000 
 6.29470e-36 -6.19459e-36        00000 
-1.88825e-36  1.88650e-36        00000 
 5.40649e-37 -5.49715e-37        00000 
-1.48414e-37  1.53867e-37        00000 
 3.93323e-38 -4.16473e-38        00000 
-1.05944e-38  1.14909e-38        00000 
 4.94577e-39 -5.47168e-39        00000 
-3.42353e-31 -4.88066e-31        00000 
 3.32528e-31  5.10659e-31        00000 
-2.99817e-31 -5.71578e-31        00000 
 2.37773e-31  6.52230e-31        00000 
-1.44212e-31 -7.27652e-31        00000 
 2.75654e-32  7.73665e-31        00000 
 9.26995e-32 -7.73658e-31        00000 
-1.92508e-31  7.22891e-31        00000 
 2.52859e-31 -6.28981e-31        00000 
-2.67142e-31  5.08566e-31        00000 
 2.42259e-31 -3.81575e-31        00000 
-1.93790e-31  2.65384e-31        00000 
 1.38704e-31 -1.70974e-31        00000 
-8.96044e-32  1.02004e-31        00000 
 5.25637e-32 -5.63652e-32        00000 
-2.81346e-32  2.88693e-32        00000 
 1.37988e-32 -1.37237e-32        00000 
-6.22714e-33  6.06695e-33        00000 
 2.59681e-33 -2.50067e-33        00000 
-1.00524e-33  9.64049e-34        00000 
 3.62974e-34 -3.48885e-34        00000 
-1.22873e-34  1.18999e-34        00000 
 3.91984e-35 -3.84171e-35        00000 
-1.18457e-35  1.17894e-35        00000 
 3.40819e-36 -3.45376e-36        00000 
-9.38058e-37  9.69876e-37        00000 
 2.48127e-37 -2.62132e-37        00000 
-6.34998e-38  6.86309e-38        00000 
 1.65177e-38 -1.83114e-38        00000 
-7.50828e-39  8.49950e-39        00000 
 1.97732e-30  2.66305e-30        00000 
-1.93041e-30 -2.80660e-30        00000 
 1.76315e-30  3.19391e-30        00000 
-1.42002e-30 -3.70745e-30        00000 
 8.72391e-31  4.18950e-30        00000 
-1.66588e-31 -4.48760e-30        00000 
-5.71344e-31  4.49781e-30        00000 
 1.18119e-30 -4.19222e-30        00000 
-1.53762e-30  3.62180e-30        00000 
 1.60107e-30 -2.89422e-30        00000 
-1.42300e-30  2.13589e-30        00000 
 1.10943e-30 -1.45393e-30        00000 
-7.69701e-31  9.12175e-31        00000 
 4.79423e-31 -5.27301e-31        00000 
-2.69788e-31  2.80950e-31        00000 
 1.37869e-31 -1.38115e-31        00000 
-6.42850e-32  6.27589e-32        00000 
 2.74805e-32 -2.64272e-32        00000 
-1.08245e-32  1.03470e-32        00000 
 3.95013e-33 -3.78163e-33        00000 
-1.34319e-33  1.29597e-33        00000 
 4.28133e-34 -4.18447e-34        00000 
-1.28689e-34  1.27926e-34        00000 
 3.66915e-35 -3.72114e-35        00000 
-9.97832e-36  1.03476e-35        00000 
 2.60163e-36 -2.76297e-36        00000 
-6.53438e-37  7.11429e-37        00000 
 1.59121e-37 -1.77748e-37        00000 
-3.93506e-38  4.52014e-38        00000 
 1.71898e-38 -2.02063e-38        00000 
-1.16753e-29 -1.48693e-29        00000 
 1.14714e-29  1.58015e-29        00000 
-1.06453e-29 -1.83178e-29        00000 
 8.73527e-30  2.16583e-29        00000 
-5.45395e-30 -2.48036e-29        00000 
 1.05681e-30  2.67691e-29        00000 
 3.61184e-30 -2.68878e-29        00000 
-7.45122e-30  2.49906e-29        00000 
 9.61049e-30 -2.14255e-29        00000 
-9.85135e-30  1.69065e-29        00000 
 8.56604e-30 -1.22565e-29        00000 
-6.49421e-30  8.15201e-30        00000 
 4.35555e-30 -4.97006e-30        00000 
-2.60782e-30  2.77697e-30        00000 
 1.40321e-30 -1.42283e-30        00000 
-6.82394e-31  6.69534e-31        00000 
 3.01566e-31 -2.90072e-31        00000 
-1.21795e-31  1.16103e-31        00000 
 4.52292e-32 -4.31161e-32        00000 
-1.55450e-32  1.49298e-32        00000 
 4.97873e-33 -4.84655e-33        00000 
-1.49626e-33  1.48326e-33        00000 
 4.24802e-34 -4.30358e-34        00000 
-1.14664e-34  1.19016e-34        00000 
 2.95986e-35 -3.15305e-35        00000 
-7.34523e-36  8.03909e-36        00000 
 1.76076e-36 -1.98104e-36        00000 
-4.10198e-37  4.74629e-37        00000 
 9.70207e-38 -1.15674e-37        00000 
-4.09100e-38  5.00017e-38        00000 
 6.86211e-29  8.25217e-29        00000 
-6.79827e-29 -8.85756e-29        00000 
 6.43710e-29  1.04924e-28        00000 
-5.40538e-29 -1.26652e-28        00000 
 3.44347e-29  1.47164e-28        00000 
-6.87171e-30 -1.60092e-28        00000 
-2.29059e-29  1.61142e-28        00000 
 4.72452e-29 -1.49286e-28        00000 
-6.03216e-29  1.26893e-28        00000 
 6.07427e-29 -9.87184e-29        00000 
-5.15150e-29  7.01423e-29        00000 
 3.78289e-29 -4.54429e-29        00000 
-2.44105e-29  2.68189e-29        00000 
 1.39731e-29 -1.44175e-29        00000 
-7.14640e-30  7.06757e-30        00000 
 3.28663e-30 -3.16634e-30        00000 
-1.36801e-30  1.30094e-30        00000 
 5.18924e-31 -4.92451e-31        00000 
-1.80737e-31  1.72692e-31        00000 
 5.82593e-32 -5.64495e-32        00000 
-1.75213e-32  1.73115e-32        00000 
 4.95544e-33 -5.01296e-33        00000 
-1.32781e-33  1.37920e-33        00000 
 3.39356e-34 -3.62603e-34        00000 
-8.32240e-35  9.15747e-35        00000 
 1.96877e-35 -2.23197e-35        00000 
-4.51338e-36  5.27234e-36        00000 
 1.00838e-36 -1.21374e-36        00000 
-2.28811e-37  2.84231e-37        00000 
 9.33479e-38 -1.19039e-37        00000 
-4.00504e-28 -4.54091e-28        00000 
 4.01079e-28  4.93391e-28        00000 
-3.89605e-28 -5.99563e-28        00000 
 3.36528e-28  7.40810e-28        00000 
-2.19665e-28 -8.74463e-28        00000 
 4.57635e-29  9.59322e-28        00000 
 1.45797e-28 -9.67640e-28        00000 
-3.01170e-28  8.93093e-28        00000 
 3.80150e-28 -7.51805e-28        00000 
-3.75036e-28  5.75544e-28        00000 
 3.09023e-28 -3.99657e-28        00000 
-2.18717e-28  2.51232e-28        00000 
 1.34991e-28 -1.42827e-28        00000 
-7.33785e-29  7.34544e-29        00000 
 3.54101e-29 -3.42348e-29        00000 
-1.52845e-29  1.45081e-29        00000 
 5.94811e-30 -5.61761e-30        00000 
-2.10504e-30  1.99967e-30        00000 
 6.83799e-31 -6.59020e-31        00000 
-2.05842e-31  2.02599e-31        00000 
 5.79624e-32 -5.85393e-32        00000 
-1.54017e-32  1.60124e-32        00000 
 3.89238e-33 -4.17400e-33        00000 
-9.42069e-34  1.04310e-33        00000 
 2.19658e-34 -2.51225e-34        00000 
-4.95919e-35  5.85819e-35        00000 
 1.08884e-35 -1.32797e-35        00000 
-2.33698e-36  2.94148e-36        00000 
 5.09788e-37 -6.63031e-37        00000 
-2.01531e-37  2.69375e-37        00000 
 2.31593e-27  2.47218e-27        00000 
-2.35235e-27 -2.72722e-27        00000 
 2.36040e-27  3.41644e-27        00000 
-2.10980e-27 -4.33418e-27        00000 
 1.41732e-27  5.20445e-27        00000 
-3.11807e-28 -5.76056e-27        00000 
-9.32560e-28  5.82275e-27        00000 
 1.93201e-27 -5.35136e-27        00000 
-2.40656e-27  4.45564e-27        00000 
 2.31802e-27 -3.34882e-27        00000 
-1.84674e-27  2.26454e-27        00000 
 1.25203e-27 -1.37450e-27        00000 
-7.33665e-28  7.48141e-28        00000 
 3.75568e-28 -3.65499e-28        00000 
-1.69491e-28  1.60740e-28        00000 
 6.80559e-29 -6.39524e-29        00000 
-2.45589e-29  2.31759e-29        00000 
 8.05259e-30 -7.71260e-30        00000 
-2.42677e-30  2.37791e-30        00000 
 6.79811e-31 -6.85320e-31        00000 
-1.78882e-31  1.86203e-31        00000 
 4.46272e-32 -4.80663e-32        00000 
-1.06403e-32  1.18698e-32        00000 
 2.44098e-33 -2.82096e-33        00000 
-5.41854e-34  6.48526e-34        00000 
 1.16939e-34 -1.44857e-34        00000 
-2.46334e-35  3.15561e-35        00000 
 5.08860e-36 -6.73587e-36        00000 
-1.06941e-36  1.46413e-36        00000 
 4.10290e-37 -5.77797e-37        00000 
-1.32270e-26 -1.32769e-26        00000 
 1.36898e-26  1.49316e-26        00000 
-1.43143e-26 -1.94042e-26        00000 
 1.33316e-26  2.53641e-26        00000 
-9.25922e-27 -3.10271e-26        00000 
 2.16997e-27  3.46677e-26        00000 
 6.00347e-27 -3.51180e-26        00000 
-1.24873e-26  3.21217e-26        00000 
 1.53118e-26 -2.64144e-26        00000 
-1.43361e-26  1.94349e-26        00000 
 1.09747e-26 -1.27400e-26        00000 
-7.07123e-27  7.41957e-27        00000 
 3.89738e-27 -3.83655e-27        00000 
-1.85937e-27  1.76493e-27        00000 
 7.76313e-28 -7.25816e-28        00000 
-2.87013e-28  2.68817e-28        00000 
 9.52017e-29 -9.05156e-29        00000 
-2.87298e-29  2.80037e-29        00000 
 7.99802e-30 -8.04624e-30        00000 
-2.08036e-30  2.16905e-30        00000 
 5.11243e-31 -5.53641e-31        00000 
-1.19814e-31  1.34878e-31        00000 
 2.69856e-32 -3.15772e-32        00000 
-5.87822e-33  7.14552e-33        00000 
 1.24478e-33 -1.57043e-33        00000 
-2.57342e-34  3.36579e-34        00000 
 5.21236e-35 -7.05881e-35        00000 
-1.03858e-35  1.45473e-35        00000 
 2.10774e-36 -3.05547e-36        00000 
-7.86183e-37  1.17302e-36        00000 
 7.42826e-26  7.00410e-26        00000 
-7.88468e-26 -8.07737e-26        00000 
 8.68757e-26  1.09791e-25        00000 
-8.49770e-26 -1.48477e-25        00000 
 6.13108e-26  1.85299e-25        00000 
-1.54001e-26 -2.09115e-25        00000 
-3.89717e-26  2.12327e-25        00000 
 8.14341e-26 -1.93200e-25        00000 
-9.79701e-26  1.56635e-25        00000 
 8.86475e-26 -1.12407e-25        00000 
-6.46826e-26  7.10015e-26        00000 
 3.92022e-26 -3.93481e-26        00000 
-2.00786e-26  1.91355e-26        00000 
 8.81116e-27 -8.19914e-27        00000 
-3.35970e-27  3.11975e-27        00000 
 1.13082e-27 -1.06577e-27        00000 
-3.41840e-28  3.31109e-28        00000 
 9.44387e-29 -9.47879e-29        00000 
-2.42255e-29  2.53152e-29        00000 
 5.84861e-30 -6.37713e-30        00000 
-1.34365e-30  1.52955e-30        00000 
 2.96358e-31 -3.52056e-31        00000 
-6.32003e-32  7.82681e-32        00000 
 1.31052e-32 -1.68966e-32        00000 
-2.65438e-33  3.55760e-33        00000 
 5.27064e-34 -7.33205e-34        00000 
-1.02909e-34  1.48360e-34        00000 
 1.98278e-35 -2.95834e-35        00000 
-3.89585e-36  6.01798e-36        00000 
 1.41553e-36 -2.25141e-36        00000 
-4.07586e-25 -3.60613e-25        00000 
 4.47760e-25  4.30204e-25        00000 
-5.27367e-25 -6.18434e-25        00000 
 5.46726e-25  8.69466e-25        00000 
-4.11928e-25 -1.10865e-24        00000 
 1.11346e-25  1.26433e-24        00000 
 2.55692e-25 -1.28719e-24        00000 
-5.36776e-25  1.16479e-24        00000 
 6.30735e-25 -9.29125e-25        00000 
-5.47306e-25  6.47153e-25        00000 
 3.76517e-25 -3.90663e-25        00000 
-2.11715e-25  2.03719e-25        00000 
 9.91782e-26 -9.19569e-26        00000 
-3.93781e-26  3.62095e-26        00000 
 1.35090e-26 -1.25972e-26        00000 
-4.09269e-27  3.93386e-27        00000 
 1.11987e-27 -1.12108e-27        00000 
-2.82433e-28  2.96068e-28        00000 
 6.67576e-29 -7.34327e-29        00000 
-1.49843e-29  1.72973e-29        00000 
 3.22666e-30 -3.90482e-30        00000 
-6.71855e-31  8.51014e-31        00000 
 1.36104e-31 -1.80109e-31        00000 
-2.69541e-32  3.71919e-32        00000 
 5.23834e-33 -7.52193e-33        00000 
-1.00206e-33  1.49460e-33        00000 
 1.89150e-34 -2.92519e-34        00000 
-3.53370e-35  5.65735e-35        00000 
 6.74083e-36 -1.11738e-35        00000 
-2.39098e-36  4.08143e-36        00000 
 2.16409e-24  1.79339e-24        00000 
-2.49346e-24 -2.24397e-24        00000 
 3.19751e-24  3.46491e-24        00000 
-3.55126e-24 -5.09419e-24        00000 
 2.81157e-24  6.64554e-24        00000 
-8.20427e-25 -7.66123e-24        00000 
-1.70034e-24  7.82573e-24        00000 
 3.58428e-24 -7.04332e-24        00000 
-4.08816e-24  5.51377e-24        00000 
 3.36580e-24 -3.70186e-24        00000 
-2.15037e-24  2.11077e-24        00000 
 1.10069e-24 -1.01967e-24        00000 
-4.61705e-25  4.19934e-25        00000 
 1.62531e-25 -1.49578e-25        00000 
-4.93852e-26  4.70146e-26        00000 
 1.33468e-26 -1.33221e-26        00000 
-3.29556e-27  3.47026e-27        00000 
 7.59267e-28 -8.44881e-28        00000 
-1.65820e-28  1.94847e-28        00000 
 3.47336e-29 -4.30176e-29        00000 
-7.03939e-30  9.16724e-30        00000 
 1.38950e-30 -1.89786e-30        00000 
-2.68475e-31  3.83636e-31        00000 
 5.09757e-32 -7.60207e-32        00000 
-9.54017e-33  1.48145e-32        00000 
 1.76413e-33 -2.84637e-33        00000 
-3.22948e-34  5.40338e-34        00000 
 5.86733e-35 -1.01624e-34        00000 
-1.08982e-35  1.95400e-35        00000 
 3.78241e-36 -6.98290e-36        00000 
-1.09533e-23 -8.46369e-24        00000 
 1.35018e-23  1.13651e-23        00000 
-1.93063e-23 -1.92813e-23        00000 
 2.32770e-23  2.98770e-23        00000 
-1.95240e-23 -3.99153e-23        00000 
 6.17374e-24  4.65057e-23        00000 
 1.15009e-23 -4.77206e-23        00000 
-2.43170e-23  4.27608e-23        00000 
 2.66880e-23 -3.27458e-23        00000 
-2.05298e-23  2.09727e-23        00000 
 1.19160e-23 -1.10979e-23        00000 
-5.40348e-24  4.85777e-24        00000 
 1.97317e-24 -1.78599e-24        00000 
-6.02023e-25  5.66061e-25        00000 
 1.60029e-25 -1.59220e-25        00000 
-3.84600e-26  4.07694e-26        00000 
 8.58664e-27 -9.70458e-27        00000 
-1.81518e-27  2.18277e-27        00000 
 3.68234e-28 -4.69667e-28        00000 
-7.23775e-29  9.75775e-29        00000 
 1.38797e-29 -1.97118e-29        00000 
-2.61034e-30  3.89258e-30        00000 
 4.83319e-31 -7.54507e-31        00000 
-8.83649e-32  1.44011e-31        00000 
 1.59894e-32 -2.71354e-32        00000 
-2.86862e-33  5.05778e-33        00000 
 5.11020e-34 -9.34085e-34        00000 
-9.05723e-35  1.71321e-34        00000 
 1.64316e-35 -3.21574e-35        00000 
-5.59386e-36  1.12679e-35        00000 
 5.15673e-23  3.66936e-23        00000 
-7.01171e-23 -5.50306e-23        00000 
 1.15381e-22  1.06231e-22        00000 
-1.53700e-22 -1.75632e-22        00000 
 1.38204e-22  2.40367e-22        00000 
-4.76669e-23 -2.82450e-22        00000 
-7.94714e-23  2.91827e-22        00000 
 1.68298e-22 -2.61183e-22        00000 
-1.75475e-22  1.94751e-22        00000 
 1.23195e-22 -1.16958e-22        00000 
-6.27912e-23  5.58522e-23        00000 
 2.42368e-23 -2.14736e-23        00000 
-7.44093e-24  6.88044e-24        00000 
 1.93246e-24 -1.91635e-24        00000 
-4.48253e-25  4.80043e-25        00000 
 9.62297e-26 -1.11131e-25        00000 
-1.95626e-26  2.42594e-26        00000 
 3.82339e-27 -5.06612e-27        00000 
-7.25816e-28  1.02262e-27        00000 
 1.34792e-28 -2.01024e-28        00000 
-2.46136e-29  3.86964e-29        00000 
 4.43584e-30 -7.32444e-30        00000 
-7.91161e-31  1.36749e-30        00000 
 1.39943e-31 -2.52446e-31        00000 
-2.45883e-32  4.61676e-32        00000 
 4.29675e-33 -8.37689e-33        00000 
-7.47522e-34  1.50989e-33        00000 
 1.29678e-34 -2.70855e-34        00000 
-2.30523e-35  4.97735e-35        00000 
 7.71779e-36 -1.71400e-35        00000 
-2.16554e-22 -1.37292e-22        00000 
 3.40698e-22  2.46529e-22        00000 
-6.74167e-22 -5.74181e-22        00000 
 1.01862e-21  1.03844e-21        00000 
-9.99626e-22 -1.45451e-21        00000 
 3.80606e-22  1.71044e-21        00000 
 5.63999e-22 -1.78815e-21        00000 
-1.19540e-21  1.61244e-21        00000 
 1.16083e-21 -1.16096e-21        00000 
-7.15042e-22  6.33150e-22        00000 
 3.02342e-22 -2.60572e-22        00000 
-9.38001e-23  8.46775e-23        00000 
 2.35269e-23 -2.32681e-23        00000 
-5.20190e-24  5.66280e-24        00000 
 1.06261e-24 -1.26584e-24        00000 
-2.06047e-25  2.66514e-25        00000 
 3.85577e-26 -5.37461e-26        00000 
-7.03690e-27  1.04995e-26        00000 
 1.26125e-27 -2.00248e-27        00000 
-2.23069e-28  3.74920e-28        00000 
 3.90609e-29 -6.91845e-29        00000 
-6.78820e-30  1.26200e-29        00000 
 1.17283e-30 -2.28062e-30        00000 
-2.01724e-31  4.09005e-31        00000 
 3.45736e-32 -7.28894e-32        00000 
-5.90920e-33  1.29215e-32        00000 
 1.00780e-33 -2.28059e-33        00000 
-1.71715e-34  4.01357e-34        00000 
 3.00108e-35 -7.24209e-35        00000 
-9.90815e-36  2.45673e-35        00000 
 7.57770e-22  3.97573e-22        00000 
-1.47090e-21 -9.39731e-22        00000 
 3.75135e-21  2.94985e-21        00000 
-6.72985e-21 -6.22458e-21        00000 
 7.40184e-21  8.92193e-21        00000 
-3.17974e-21 -1.02213e-20        00000 
-4.12969e-21  1.09455e-20        00000 
 8.80318e-21 -1.01830e-20        00000 
-7.69395e-21  6.92966e-21        00000 
 3.84879e-21 -3.20579e-21        00000 
-1.21865e-21  1.05938e-21        00000 
 2.88792e-22 -2.85691e-22        00000 
-5.97296e-23  6.68499e-23        00000 
 1.14474e-23 -1.42848e-23        00000 
-2.09590e-24  2.87766e-24        00000 
 3.72855e-25 -5.57067e-25        00000 
-6.50961e-26  1.04868e-25        00000 
 1.12228e-26 -1.93457e-26        00000 
-1.91827e-27  3.51550e-27        00000 
 3.25933e-28 -6.31555e-28        00000 
-5.51497e-29  1.12454e-28        00000 
 9.30461e-30 -1.98834e-29        00000 
-1.56669e-30  3.49604e-30        00000 
 2.63436e-31 -6.11920e-31        00000 
-4.42565e-32  1.06710e-31        00000 
 7.43086e-33 -1.85518e-32        00000 
-1.24733e-33  3.21719e-33        00000 
 2.09508e-34 -5.57191e-34        00000 
-3.61262e-35  9.90170e-35        00000 
 1.17961e-35 -3.31696e-35        00000 
-2.10027e-21 -8.04661e-22        00000 
 5.00945e-21  2.49808e-21        00000 
-1.84758e-20 -1.26122e-20        00000 
 4.39676e-20  3.81114e-20        00000 
-5.60074e-20 -5.76041e-20        00000 
 2.80516e-20  5.79446e-20        00000 
 3.08190e-20 -6.63048e-20        00000 
-6.88552e-20  6.82120e-20        00000 
 5.01966e-20 -4.04702e-20        00000 
-1.66461e-20  1.35331e-20        00000 
 3.55894e-21 -3.55998e-21        00000 
-6.69433e-22  7.87576e-22        00000 
 1.18142e-22 -1.58569e-22        00000 
-2.01768e-23  3.02537e-23        00000 
 3.38597e-24 -5.58383e-24        00000 
-5.62824e-25  1.00846e-24        00000 
 9.30784e-26 -1.79449e-25        00000 
-1.53541e-26  3.15979e-26        00000 
 2.53025e-27 -5.52144e-27        00000 
-4.16930e-28  9.59351e-28        00000 
 6.87331e-29 -1.65972e-28        00000 
-1.13402e-29  2.86190e-29        00000 
 1.87288e-30 -4.92221e-30        00000 
-3.09658e-31  8.44871e-31        00000 
 5.12578e-32 -1.44786e-31        00000 
-8.49472e-33  2.47807e-32        00000 
 1.40946e-33 -4.23709e-33        00000 
-2.34297e-34  7.24459e-34        00000 
 4.00116e-35 -1.27177e-34        00000 
-1.29618e-35  4.21750e-35        00000 
 4.52025e-21  1.00407e-21        00000 
-1.26359e-20 -3.92772e-21        00000 
 6.18693e-20  2.90260e-20        00000 
-2.67291e-19 -1.96880e-19        00000 
 4.61061e-19  4.79579e-19        00000 
-2.10043e-19 -2.30476e-19        00000 
-1.55710e-19  3.93790e-19        00000 
 6.66066e-19 -5.43869e-19        00000 
-2.48643e-19  1.76616e-19        00000 
 4.31116e-20 -4.53261e-20        00000 
-7.10289e-21  9.19706e-21        00000 
 1.12700e-21 -1.70778e-21        00000 
-1.77110e-22  3.04783e-22        00000 
 2.78372e-23 -5.32614e-23        00000 
-4.39127e-24  9.19443e-24        00000 
 6.96051e-25 -1.57536e-24        00000 
-1.10884e-25  2.68639e-25        00000 