<?xml version="1.0" encoding="utf-8"?>
<VTKFile byte_order="LittleEndian" type="UnstructuredGrid" version="0.1">
   <UnstructuredGrid>
      <Piece NumberOfCells="3364" NumberOfPoints="1741">
         <Points>
            <DataArray Name="Points" NumberOfComponents="3" format="ascii" type="Float32">
0.0000 1.0000 0.0000
0.0000 1.0345 0.0000
0.0000 1.0690 0.0000
0.0000 1.1034 0.0000
0.0000 1.1379 0.0000
0.0000 1.1724 0.0000
0.0000 1.2069 0.0000
0.0000 1.2414 0.0000
0.0000 1.2759 0.0000
0.0000 1.3103 0.0000
0.0000 1.3448 0.0000
0.0000 1.3793 0.0000
0.0000 1.4138 0.0000
0.0000 1.4483 0.0000
0.0000 1.4828 0.0000
0.0000 1.5172 0.0000
0.0000 1.5517 0.0000
0.0000 1.5862 0.0000
0.0000 1.6207 0.0000
0.0000 1.6552 0.0000
0.0000 1.6897 0.0000
0.0000 1.7241 0.0000
0.0000 1.7586 0.0000
0.0000 1.7931 0.0000
0.0000 1.8276 0.0000
0.0000 1.8621 0.0000
0.0000 1.8966 0.0000
0.0000 1.9310 0.0000
0.0000 1.9655 0.0000
0.0000 2.0000 0.0000
0.0690 1.0000 0.0000
0.0690 1.0345 0.0000
0.0690 1.0690 0.0000
0.0690 1.1034 0.0000
0.0690 1.1379 0.0000
0.0690 1.1724 0.0000
0.0690 1.2069 0.0000
0.0690 1.2414 0.0000
0.0690 1.2759 0.0000
0.0690 1.3103 0.0000
0.0690 1.3448 0.0000
0.0690 1.3793 0.0000
0.0690 1.4138 0.0000
0.0690 1.4483 0.0000
0.0690 1.4828 0.0000
0.0690 1.5172 0.0000
0.0690 1.5517 0.0000
0.0690 1.5862 0.0000
0.0690 1.6207 0.0000
0.0690 1.6552 0.0000
0.0690 1.6897 0.0000
0.0690 1.7241 0.0000
0.0690 1.7586 0.0000
0.0690 1.7931 0.0000
0.0690 1.8276 0.0000
0.0690 1.8621 0.0000
0.0690 1.8966 0.0000
0.0690 1.9310 0.0000
0.0690 1.9655 0.0000
0.0690 2.0000 0.0000
0.1379 1.0000 0.0000
0.1379 1.0345 0.0000
0.1379 1.0690 0.0000
0.1379 1.1034 0.0000
0.1379 1.1379 0.0000
0.1379 1.1724 0.0000
0.1379 1.2069 0.0000
0.1379 1.2414 0.0000
0.1379 1.2759 0.0000
0.1379 1.3103 0.0000
0.1379 1.3448 0.0000
0.1379 1.3793 0.0000
0.1379 1.4138 0.0000
0.1379 1.4483 0.0000
0.1379 1.4828 0.0000
0.1379 1.5172 0.0000
0.1379 1.5517 0.0000
0.1379 1.5862 0.0000
0.1379 1.6207 0.0000
0.1379 1.6552 0.0000
0.1379 1.6897 0.0000
0.1379 1.7241 0.0000
0.1379 1.7586 0.0000
0.1379 1.7931 0.0000
0.1379 1.8276 0.0000
0.1379 1.8621 0.0000
0.1379 1.8966 0.0000
0.1379 1.9310 0.0000
0.1379 1.9655 0.0000
0.1379 2.0000 0.0000
0.2069 1.0000 0.0000
0.2069 1.0345 0.0000
0.2069 1.0690 0.0000
0.2069 1.1034 0.0000
0.2069 1.1379 0.0000
0.2069 1.1724 0.0000
0.2069 1.2069 0.0000
0.2069 1.2414 0.0000
0.2069 1.2759 0.0000
0.2069 1.3103 0.0000
0.2069 1.3448 0.0000
0.2069 1.3793 0.0000
0.2069 1.4138 0.0000
0.2069 1.4483 0.0000
0.2069 1.4828 0.0000
0.2069 1.5172 0.0000
0.2069 1.5517 0.0000
0.2069 1.5862 0.0000
0.2069 1.6207 0.0000
0.2069 1.6552 0.0000
0.2069 1.6897 0.0000
0.2069 1.7241 0.0000
0.2069 1.7586 0.0000
0.2069 1.7931 0.0000
0.2069 1.8276 0.0000
0.2069 1.8621 0.0000
0.2069 1.8966 0.0000
0.2069 1.9310 0.0000
0.2069 1.9655 0.0000
0.2069 2.0000 0.0000
0.2759 1.0000 0.0000
0.2759 1.0345 0.0000
0.2759 1.0690 0.0000
0.2759 1.1034 0.0000
0.2759 1.1379 0.0000
0.2759 1.1724 0.0000
0.2759 1.2069 0.0000
0.2759 1.2414 0.0000
0.2759 1.2759 0.0000
0.2759 1.3103 0.0000
0.2759 1.3448 0.0000
0.2759 1.3793 0.0000
0.2759 1.4138 0.0000
0.2759 1.4483 0.0000
0.2759 1.4828 0.0000
0.2759 1.5172 0.0000
0.2759 1.5517 0.0000
0.2759 1.5862 0.0000
0.2759 1.6207 0.0000
0.2759 1.6552 0.0000
0.2759 1.6897 0.0000
0.2759 1.7241 0.0000
0.2759 1.7586 0.0000
0.2759 1.7931 0.0000
0.2759 1.8276 0.0000
0.2759 1.8621 0.0000
0.2759 1.8966 0.0000
0.2759 1.9310 0.0000
0.2759 1.9655 0.0000
0.2759 2.0000 0.0000
0.3448 1.0000 0.0000
0.3448 1.0345 0.0000
0.3448 1.0690 0.0000
0.3448 1.1034 0.0000
0.3448 1.1379 0.0000
0.3448 1.1724 0.0000
0.3448 1.2069 0.0000
0.3448 1.2414 0.0000
0.3448 1.2759 0.0000
0.3448 1.3103 0.0000
0.3448 1.3448 0.0000
0.3448 1.3793 0.0000
0.3448 1.4138 0.0000
0.3448 1.4483 0.0000
0.3448 1.4828 0.0000
0.3448 1.5172 0.0000
0.3448 1.5517 0.0000
0.3448 1.5862 0.0000
0.3448 1.6207 0.0000
0.3448 1.6552 0.0000
0.3448 1.6897 0.0000
0.3448 1.7241 0.0000
0.3448 1.7586 0.0000
0.3448 1.7931 0.0000
0.3448 1.8276 0.0000
0.3448 1.8621 0.0000
0.3448 1.8966 0.0000
0.3448 1.9310 0.0000
0.3448 1.9655 0.0000
0.3448 2.0000 0.0000
0.4138 1.0000 0.0000
0.4138 1.0345 0.0000
0.4138 1.0690 0.0000
0.4138 1.1034 0.0000
0.4138 1.1379 0.0000
0.4138 1.1724 0.0000
0.4138 1.2069 0.0000
0.4138 1.2414 0.0000
0.4138 1.2759 0.0000
0.4138 1.3103 0.0000
0.4138 1.3448 0.0000
0.4138 1.3793 0.0000
0.4138 1.4138 0.0000
0.4138 1.4483 0.0000
0.4138 1.4828 0.0000
0.4138 1.5172 0.0000
0.4138 1.5517 0.0000
0.4138 1.5862 0.0000
0.4138 1.6207 0.0000
0.4138 1.6552 0.0000
0.4138 1.6897 0.0000
0.4138 1.7241 0.0000
0.4138 1.7586 0.0000
0.4138 1.7931 0.0000
0.4138 1.8276 0.0000
0.4138 1.8621 0.0000
0.4138 1.8966 0.0000
0.4138 1.9310 0.0000
0.4138 1.9655 0.0000
0.4138 2.0000 0.0000
0.4828 1.0000 0.0000
0.4828 1.0345 0.0000
0.4828 1.0690 0.0000
0.4828 1.1034 0.0000
0.4828 1.1379 0.0000
0.4828 1.1724 0.0000
0.4828 1.2069 0.0000
0.4828 1.2414 0.0000
0.4828 1.2759 0.0000
0.4828 1.3103 0.0000
0.4828 1.3448 0.0000
0.4828 1.3793 0.0000
0.4828 1.4138 0.0000
0.4828 1.4483 0.0000
0.4828 1.4828 0.0000
0.4828 1.5172 0.0000
0.4828 1.5517 0.0000
0.4828 1.5862 0.0000
0.4828 1.6207 0.0000
0.4828 1.6552 0.0000
0.4828 1.6897 0.0000
0.4828 1.7241 0.0000
0.4828 1.7586 0.0000
0.4828 1.7931 0.0000
0.4828 1.8276 0.0000
0.4828 1.8621 0.0000
0.4828 1.8966 0.0000
0.4828 1.9310 0.0000
0.4828 1.9655 0.0000
0.4828 2.0000 0.0000
0.5517 1.0000 0.0000
0.5517 1.0345 0.0000
0.5517 1.0690 0.0000
0.5517 1.1034 0.0000
0.5517 1.1379 0.0000
0.5517 1.1724 0.0000
0.5517 1.2069 0.0000
0.5517 1.2414 0.0000
0.5517 1.2759 0.0000
0.5517 1.3103 0.0000
0.5517 1.3448 0.0000
0.5517 1.3793 0.0000
0.5517 1.4138 0.0000
0.5517 1.4483 0.0000
0.5517 1.4828 0.0000
0.5517 1.5172 0.0000
0.5517 1.5517 0.0000
0.5517 1.5862 0.0000
0.5517 1.6207 0.0000
0.5517 1.6552 0.0000
0.5517 1.6897 0.0000
0.5517 1.7241 0.0000
0.5517 1.7586 0.0000
0.5517 1.7931 0.0000
0.5517 1.8276 0.0000
0.5517 1.8621 0.0000
0.5517 1.8966 0.0000
0.5517 1.9310 0.0000
0.5517 1.9655 0.0000
0.5517 2.0000 0.0000
0.6207 1.0000 0.0000
0.6207 1.0345 0.0000
0.6207 1.0690 0.0000
0.6207 1.1034 0.0000
0.6207 1.1379 0.0000
0.6207 1.1724 0.0000
0.6207 1.2069 0.0000
0.6207 1.2414 0.0000
0.6207 1.2759 0.0000
0.6207 1.3103 0.0000
0.6207 1.3448 0.0000
0.6207 1.3793 0.0000
0.6207 1.4138 0.0000
0.6207 1.4483 0.0000
0.6207 1.4828 0.0000
0.6207 1.5172 0.0000
0.6207 1.5517 0.0000
0.6207 1.5862 0.0000
0.6207 1.6207 0.0000
0.6207 1.6552 0.0000
0.6207 1.6897 0.0000
0.6207 1.7241 0.0000
0.6207 1.7586 0.0000
0.6207 1.7931 0.0000
0.6207 1.8276 0.0000
0.6207 1.8621 0.0000
0.6207 1.8966 0.0000
0.6207 1.9310 0.0000
0.6207 1.9655 0.0000
0.6207 2.0000 0.0000
0.6897 1.0000 0.0000
0.6897 1.0345 0.0000
0.6897 1.0690 0.0000
0.6897 1.1034 0.0000
0.6897 1.1379 0.0000
0.6897 1.1724 0.0000
0.6897 1.2069 0.0000
0.6897 1.2414 0.0000
0.6897 1.2759 0.0000
0.6897 1.3103 0.0000
0.6897 1.3448 0.0000
0.6897 1.3793 0.0000
0.6897 1.4138 0.0000
0.6897 1.4483 0.0000
0.6897 1.4828 0.0000
0.6897 1.5172 0.0000
0.6897 1.5517 0.0000
0.6897 1.5862 0.0000
0.6897 1.6207 0.0000
0.6897 1.6552 0.0000
0.6897 1.6897 0.0000
0.6897 1.7241 0.0000
0.6897 1.7586 0.0000
0.6897 1.7931 0.0000
0.6897 1.8276 0.0000
0.6897 1.8621 0.0000
0.6897 1.8966 0.0000
0.6897 1.9310 0.0000
0.6897 1.9655 0.0000
0.6897 2.0000 0.0000
0.7586 1.0000 0.0000
0.7586 1.0345 0.0000
0.7586 1.0690 0.0000
0.7586 1.1034 0.0000
0.7586 1.1379 0.0000
0.7586 1.1724 0.0000
0.7586 1.2069 0.0000
0.7586 1.2414 0.0000
0.7586 1.2759 0.0000
0.7586 1.3103 0.0000
0.7586 1.3448 0.0000
0.7586 1.3793 0.0000
0.7586 1.4138 0.0000
0.7586 1.4483 0.0000
0.7586 1.4828 0.0000
0.7586 1.5172 0.0000
0.7586 1.5517 0.0000
0.7586 1.5862 0.0000
0.7586 1.6207 0.0000
0.7586 1.6552 0.0000
0.7586 1.6897 0.0000
0.7586 1.7241 0.0000
0.7586 1.7586 0.0000
0.7586 1.7931 0.0000
0.7586 1.8276 0.0000
0.7586 1.8621 0.0000
0.7586 1.8966 0.0000
0.7586 1.9310 0.0000
0.7586 1.9655 0.0000
0.7586 2.0000 0.0000
0.8276 1.0000 0.0000
0.8276 1.0345 0.0000
0.8276 1.0690 0.0000
0.8276 1.1034 0.0000
0.8276 1.1379 0.0000
0.8276 1.1724 0.0000
0.8276 1.2069 0.0000
0.8276 1.2414 0.0000
0.8276 1.2759 0.0000
0.8276 1.3103 0.0000
0.8276 1.3448 0.0000
0.8276 1.3793 0.0000
0.8276 1.4138 0.0000
0.8276 1.4483 0.0000
0.8276 1.4828 0.0000
0.8276 1.5172 0.0000
0.8276 1.5517 0.0000
0.8276 1.5862 0.0000
0.8276 1.6207 0.0000
0.8276 1.6552 0.0000
0.8276 1.6897 0.0000
0.8276 1.7241 0.0000
0.8276 1.7586 0.0000
0.8276 1.7931 0.0000
0.8276 1.8276 0.0000
0.8276 1.8621 0.0000
0.8276 1.8966 0.0000
0.8276 1.9310 0.0000
0.8276 1.9655 0.0000
0.8276 2.0000 0.0000
0.8966 1.0000 0.0000
0.8966 1.0345 0.0000
0.8966 1.0690 0.0000
0.8966 1.1034 0.0000
0.8966 1.1379 0.0000
0.8966 1.1724 0.0000
0.8966 1.2069 0.0000
0.8966 1.2414 0.0000
0.8966 1.2759 0.0000
0.8966 1.3103 0.0000
0.8966 1.3448 0.0000
0.8966 1.3793 0.0000
0.8966 1.4138 0.0000
0.8966 1.4483 0.0000
0.8966 1.4828 0.0000
0.8966 1.5172 0.0000
0.8966 1.5517 0.0000
0.8966 1.5862 0.0000
0.8966 1.6207 0.0000
0.8966 1.6552 0.0000
0.8966 1.6897 0.0000
0.8966 1.7241 0.0000
0.8966 1.7586 0.0000
0.8966 1.7931 0.0000
0.8966 1.8276 0.0000
0.8966 1.8621 0.0000
0.8966 1.8966 0.0000
0.8966 1.9310 0.0000
0.8966 1.9655 0.0000
0.8966 2.0000 0.0000
0.9655 1.0000 0.0000
0.9655 1.0345 0.0000
0.9655 1.0690 0.0000
0.9655 1.1034 0.0000
0.9655 1.1379 0.0000
0.9655 1.1724 0.0000
0.9655 1.2069 0.0000
0.9655 1.2414 0.0000
0.9655 1.2759 0.0000
0.9655 1.3103 0.0000
0.9655 1.3448 0.0000
0.9655 1.3793 0.0000
0.9655 1.4138 0.0000
0.9655 1.4483 0.0000
0.9655 1.4828 0.0000
0.9655 1.5172 0.0000
0.9655 1.5517 0.0000
0.9655 1.5862 0.0000
0.9655 1.6207 0.0000
0.9655 1.6552 0.0000
0.9655 1.6897 0.0000
0.9655 1.7241 0.0000
0.9655 1.7586 0.0000
0.9655 1.7931 0.0000
0.9655 1.8276 0.0000
0.9655 1.8621 0.0000
0.9655 1.8966 0.0000
0.9655 1.9310 0.0000
0.9655 1.9655 0.0000
0.9655 2.0000 0.0000
1.0345 1.0000 0.0000
1.0345 1.0345 0.0000
1.0345 1.0690 0.0000
1.0345 1.1034 0.0000
1.0345 1.1379 0.0000
1.0345 1.1724 0.0000
1.0345 1.2069 0.0000
1.0345 1.2414 0.0000
1.0345 1.2759 0.0000
1.0345 1.3103 0.0000
1.0345 1.3448 0.0000
[...]
         <PointData>
            <DataArray Name="fValues" NumberOfComponents="3" format="ascii" type="Float64">
-8.73466e-33 -3.43522e-33        00000 
 8.45641e-33  3.25395e-33        00000 
-7.66105e-33 -2.69198e-33        00000 
 6.42033e-33  1.75093e-33        00000 
-4.90367e-33 -4.16617e-34        00000 
 3.10717e-33 -9.36570e-34        00000 
-2.43440e-33  1.29498e-33        00000 
 1.76371e-33 -1.35989e-33        00000 
-1.26021e-33  1.31487e-33        00000 
 8.41810e-34 -1.12479e-33        00000 
-5.21580e-34  8.75042e-34        00000 
 3.00178e-34 -6.22959e-34        00000 
-1.62327e-34  4.04844e-34        00000 
 8.31111e-35 -2.39451e-34        00000 
-4.02015e-35  1.29006e-34        00000 
 1.82899e-35 -6.36121e-35        00000 
-7.81164e-36  2.88845e-35        00000 
 3.13421e-36 -1.21491e-35        00000 
-1.18419e-36  4.75766e-36        00000 
 4.22817e-37 -1.74236e-36        00000 
-1.43221e-37  5.99196e-37        00000 
 4.61956e-38 -1.94291e-37        00000 
-1.42380e-38  5.96437e-38        00000 
 4.20702e-39 -1.74050e-38        00000 
-1.19571e-39  4.84788e-39        00000 
 3.27979e-40 -1.29422e-39        00000 
-8.71101e-41  3.32599e-40        00000 
 2.25289e-41 -8.28109e-41        00000 
-5.96217e-42  2.09484e-41        00000 
 2.75638e-42 -9.31563e-42        00000 
 2.67894e-32  1.06504e-32        00000 
-2.58967e-32 -1.01422e-32        00000 
 2.34111e-32  8.49332e-33        00000 
-1.96589e-32 -5.55409e-33        00000 
 1.45908e-32  1.80291e-33        00000 
-1.02833e-32  4.14164e-33        00000 
 6.84984e-33 -3.67868e-33        00000 
-5.22775e-33  4.33428e-33        00000 
 3.69193e-33 -4.08137e-33        00000 
-2.42580e-33  3.42646e-33        00000 
 1.46002e-33 -2.62285e-33        00000 
-8.14287e-34  1.83067e-33        00000 
 4.29989e-34 -1.15735e-33        00000 
-2.15017e-34  6.60027e-34        00000 
 1.01005e-34 -3.41051e-34        00000 
-4.43933e-35  1.60898e-34        00000 
 1.82539e-35 -6.98317e-35        00000 
-7.03762e-36  2.80601e-35        00000 
 2.55389e-36 -1.04934e-35        00000 
-8.76302e-37  3.66896e-36        00000 
 2.85539e-37 -1.20489e-36        00000 
-8.86951e-38  3.73348e-37        00000 
 2.63570e-38 -1.09653e-37        00000 
-7.51998e-39  3.06623e-38        00000 
 2.06759e-39 -8.20062e-39        00000 
-5.49746e-40  2.10755e-39        00000 
 1.41807e-40 -5.22895e-40        00000 
-3.56728e-41  1.26019e-40        00000 
 9.17973e-42 -3.08712e-41        00000 
-4.15278e-42  1.33897e-41        00000 
-1.55805e-31 -6.23801e-32        00000 
 1.50262e-31  5.97521e-32        00000 
-1.35069e-31 -5.11741e-32        00000 
 1.13800e-31  3.39311e-32        00000 
-8.63714e-32 -9.27528e-33        00000 
 4.27804e-32 -6.47262e-33        00000 
-3.96085e-32  2.42467e-32        00000 
 2.90364e-32 -2.61987e-32        00000 
-2.03901e-32  2.38660e-32        00000 
 1.31242e-32 -1.97118e-32        00000 
-7.51451e-33  1.48034e-32        00000 
 4.06205e-33 -1.01091e-32        00000 
-2.09716e-33  6.15081e-33        00000 
 1.01678e-33 -3.34166e-33        00000 
-4.58997e-34  1.63705e-33        00000 
 1.92743e-34 -7.30742e-34        00000 
-7.54203e-35  2.99720e-34        00000 
 2.76179e-35 -1.13660e-34        00000 
-9.51737e-36  4.00536e-35        00000 
 3.10294e-36 -1.31828e-35        00000 
-9.61315e-37  4.07339e-36        00000 
 2.84066e-37 -1.18775e-36        00000 
-8.03754e-38  3.28470e-37        00000 
 2.18703e-38 -8.65926e-38        00000 
-5.74662e-39  2.18805e-38        00000 
 1.46329e-39 -5.32895e-39        00000 
-3.62118e-40  1.25700e-39        00000 
 8.75065e-41 -2.88741e-40        00000 
-2.16042e-41  6.73622e-41        00000 
 9.45673e-42 -2.80876e-41        00000 
 9.31823e-31  3.73516e-31        00000 
-8.96240e-31 -3.59508e-31        00000 
 7.99300e-31  3.13990e-31        00000 
-6.66598e-31 -2.25338e-31        00000 
 5.33710e-31  4.31010e-32        00000 
-3.12097e-31  1.11768e-31        00000 
 2.32136e-31 -1.65471e-31        00000 
-1.59823e-31  1.55020e-31        00000 
 1.20242e-31 -1.45398e-31        00000 
-7.12576e-32  1.14688e-31        00000 
 3.89085e-32 -8.62591e-32        00000 
-2.07989e-32  5.71453e-32        00000 
 1.04891e-32 -3.31560e-32        00000 
-4.89640e-33  1.70584e-32        00000 
 2.11478e-33 -7.89947e-33        00000 
-8.45482e-34  3.33227e-33        00000 
 3.14176e-34 -1.29054e-33        00000 
-1.09275e-34  4.61404e-34        00000 
 3.58147e-35 -1.53124e-34        00000 
-1.11182e-35  4.74477e-35        00000 
 3.28193e-36 -1.38091e-35        00000 
-9.24676e-37  3.79601e-36        00000 
 2.49948e-37 -9.90980e-37        00000 
-6.51379e-38  2.47202e-37        00000 
 1.64350e-38 -5.93297e-38        00000 
-4.02548e-39  1.37792e-38        00000 
 9.59732e-40 -3.10883e-39        00000 
-2.23721e-40  6.84297e-40        00000 
 5.32321e-41 -1.52796e-40        00000 
-2.26213e-41  6.14454e-41        00000 
-5.58862e-30 -2.23036e-30        00000 
 5.35835e-30  2.15772e-30        00000 
-4.73575e-30 -1.91235e-30        00000 
 3.89066e-30  1.44357e-30        00000 
-3.03261e-30 -6.67483e-31        00000 
 2.70126e-30 -1.84486e-30        00000 
-8.15921e-31  5.10277e-31        00000 
 1.07184e-30 -1.15304e-30        00000 
-6.92631e-31  8.01965e-31        00000 
 3.64581e-31 -6.81124e-31        00000 
-2.00965e-31  5.05640e-31        00000 
 1.06599e-31 -3.19757e-31        00000 
-5.16778e-32  1.74912e-31        00000 
 2.30758e-32 -8.46260e-32        00000 
-9.47233e-33  3.68898e-32        00000 
 3.58197e-33 -1.46516e-32        00000 
-1.25943e-33  5.33204e-33        00000 
 4.15390e-34 -1.78822e-33        00000 
-1.29348e-34  5.56416e-34        00000 
 3.81822e-35 -1.61768e-34        00000 
-1.07190e-35  4.42230e-35        00000 
 2.87832e-36 -1.14352e-35        00000 
-7.43904e-37  2.81456e-36        00000 
 1.86094e-37 -6.65369e-37        00000 
-4.51421e-38  1.52200e-37        00000 
 1.06487e-38 -3.38155e-38        00000 
-2.44936e-39  7.31390e-39        00000 
 5.51688e-40 -1.54527e-39        00000 
-1.26781e-40  3.30785e-40        00000 
 5.23916e-41 -1.28410e-40        00000 
 3.36005e-29  1.32590e-29        00000 
-3.20954e-29 -1.29176e-29        00000 
 2.80702e-29  1.16300e-29        00000 
-2.27059e-29 -8.95290e-30        00000 
 1.72535e-29  4.91684e-30        00000 
-1.24702e-29 -5.05766e-31        00000 
 8.60218e-30 -2.93018e-30        00000 
-5.51551e-30  4.67874e-30        00000 
 3.35991e-30 -4.74851e-30        00000 
-1.84707e-30  4.14501e-30        00000 
 1.06535e-30 -2.95672e-30        00000 
-5.37020e-31  1.75337e-30        00000 
 2.49092e-31 -8.94935e-31        00000 
-1.05752e-31  4.05030e-31        00000 
 4.08282e-32 -1.65756e-31        00000 
-1.45294e-32  6.16287e-32        00000 
 4.82469e-33 -2.09340e-32        00000 
-1.50743e-33  6.54595e-33        00000 
 4.45280e-34 -1.90099e-33        00000 
-1.24596e-34  5.16635e-34        00000 
 3.31628e-35 -1.32144e-34        00000 
-8.49211e-36  3.20306e-35        00000 
 2.10646e-36 -7.43854e-36        00000 
-5.05727e-37  1.67379e-36        00000 
 1.17961e-37 -3.65984e-37        00000 
-2.68098e-38  7.78438e-38        00000 
 5.95305e-39 -1.61361e-38        00000 
-1.29669e-39  3.27055e-39        00000 
 2.88157e-40 -6.70792e-40        00000 
-1.15909e-40  2.51134e-40        00000 
-2.02619e-28 -7.83090e-29        00000 
 1.92650e-28  7.70937e-29        00000 
-1.66367e-28 -7.09608e-29        00000 
 1.32256e-28  5.54565e-29        00000 
-9.86885e-29 -3.02469e-29        00000 
 7.04562e-29  1.87014e-30        00000 
-4.86024e-29  2.02665e-29        00000 
 3.18236e-29 -3.10178e-29        00000 
-1.46081e-29  2.97269e-29        00000 
 1.05748e-29 -2.56188e-29        00000 
-5.48694e-30  1.70153e-29        00000 
 2.63971e-30 -9.32967e-30        00000 
-1.17550e-30  4.39619e-30        00000 
 4.65317e-31 -1.86512e-30        00000 
-1.67795e-31  7.11975e-31        00000 
 5.61175e-32 -2.45719e-31        00000 
-1.75909e-32  7.72859e-32        00000 
 5.20214e-33 -2.24073e-32        00000 
-1.45337e-33  6.05128e-33        00000 
 3.82640e-34 -1.52993e-33        00000 
-9.67197e-35  3.64191e-34        00000 
 2.38241e-35 -8.26579e-35        00000 
-5.65324e-36  1.82758e-35        00000 
 1.30241e-36 -3.93127e-36        00000 
-2.92196e-37  8.21239e-37        00000 
 6.40148e-38 -1.66945e-37        00000 
-1.37317e-38  3.31104e-38        00000 
 2.89530e-39 -6.42760e-39        00000 
-6.23035e-40  1.26086e-39        00000 
 2.44205e-40 -4.54237e-40        00000 
 1.22641e-27  4.58014e-28        00000 
-1.15927e-27 -4.57948e-28        00000 
 9.85433e-28  4.35451e-28        00000 
-7.67396e-28 -3.47823e-28        00000 
 5.62106e-28  1.84818e-28        00000 
-3.96560e-28  4.49268e-30        00000 
 2.72171e-28 -1.46428e-28        00000 
-1.80217e-28  2.01785e-28        00000 
 1.09043e-28 -2.01476e-28        00000 
-5.59350e-29  1.54976e-28        00000 
 2.68729e-29 -9.64192e-29        00000 
-1.30095e-29  4.69059e-29        00000 
 5.30652e-30 -2.08186e-29        00000 
-1.94030e-30  8.21231e-30        00000 
 6.53745e-31 -2.89317e-30        00000 
-2.05652e-31  9.16788e-31        00000 
 6.07596e-32 -2.64927e-31        00000 
-1.70482e-32  7.10654e-32        00000 
 4.43056e-33 -1.77437e-32        00000 
-1.09291e-33  4.14417e-33        00000 
 2.69722e-34 -9.08696e-34        00000 
-6.30164e-35  1.97637e-34        00000 
 1.43214e-35 -4.18751e-35        00000 
-3.16773e-36  8.57472e-36        00000 
 6.83938e-37 -1.70482e-36        00000 
-1.44551e-37  3.30311e-37        00000 
 2.99870e-38 -6.25267e-38        00000 
-6.12895e-39  1.15940e-38        00000 
 1.27939e-39 -2.16754e-39        00000 
-4.89345e-40  7.48128e-40        00000 
-7.45884e-27 -2.64117e-27        00000 
 6.99703e-27  2.69973e-27        00000 
-5.82867e-27 -2.69153e-27        00000 
 4.42678e-27  2.22382e-27        00000 
-3.18021e-27 -1.14722e-27        00000 
 2.22377e-27 -1.47831e-28        00000 
-1.51915e-27  1.06786e-27        00000 
 1.00568e-27 -1.33420e-27        00000 
-6.26273e-28  1.10590e-27        00000 
 2.41308e-28 -1.02735e-27        00000 
-1.44214e-28  4.84956e-28        00000 
 6.06290e-29 -2.29729e-28        00000 
-2.24941e-29  9.44038e-29        00000 
 7.60961e-30 -3.41602e-29        00000 
-2.42073e-30  1.09586e-29        00000 
 7.04860e-31 -3.13831e-30        00000 
-2.01169e-31  8.37916e-31        00000 
 5.21689e-32 -2.05420e-31        00000 
-1.20133e-32  4.75808e-32        00000 
 3.08669e-33 -9.78251e-33        00000 
-6.98830e-34  2.11073e-33        00000 
 1.56697e-34 -4.42845e-34        00000 
-3.41255e-35  8.84826e-35        00000 
 7.25100e-36 -1.71302e-35        00000 
-1.50799e-36  3.22974e-36        00000 
 3.07874e-37 -5.94518e-37        00000 
-6.18734e-38  1.06990e-37        00000 
 1.22831e-38 -1.88475e-38        00000 
-2.49283e-39  3.33229e-39        00000 
 9.31979e-40 -1.09132e-39        00000 
 4.56539e-26  1.49592e-26        00000 
-4.23902e-26 -1.57017e-26        00000 
 3.43772e-26  1.67549e-26        00000 
-2.53131e-26 -1.46274e-26        00000 
 1.78465e-26  7.26367e-27        00000 
-1.24505e-26  1.89753e-27        00000 
 8.49204e-27 -7.79602e-27        00000 
-5.52172e-27  8.94722e-27        00000 
 3.59099e-27 -6.56809e-27        00000 
-1.67039e-27  4.61541e-27        00000 
 6.92458e-28 -2.48330e-27        00000 
-2.61664e-28  1.08572e-27        00000 
 8.95231e-29 -4.03729e-28        00000 
-2.81116e-29  1.30729e-28        00000 
 8.20615e-30 -3.76754e-29        00000 
-2.24947e-30  9.85606e-30        00000 
 5.83486e-31 -2.38174e-30        00000 
-1.44223e-31  5.39791e-31        00000 
 3.40360e-32 -1.15948e-31        00000 
-7.72367e-33  2.37880e-32        00000 
 1.70558e-33 -4.68721e-33        00000 
-3.64887e-34  8.99852e-34        00000 
 7.61712e-35 -1.68495e-34        00000 
-1.55631e-35  3.07585e-35        00000 
 3.12277e-36 -5.47884e-36        00000 
-6.17234e-37  9.52386e-37        00000 
 1.20481e-37 -1.61476e-37        00000 
-2.32917e-38  2.66774e-38        00000 
 4.60693e-39 -4.37367e-39        00000 
-1.68637e-39  1.32451e-39        00000 
-2.81884e-25 -8.41518e-26        00000 
 2.58034e-25  8.85328e-26        00000 
-2.01629e-25 -1.04271e-25        00000 
 1.42783e-25  1.01100e-25        00000 
-9.92601e-26 -4.67745e-26        00000 
 6.98611e-26 -2.10960e-26        00000 
-4.78067e-26  5.64323e-26        00000 
 3.00905e-26 -5.90207e-26        00000 
-1.82975e-26  4.24782e-26        00000 
 7.80864e-27 -2.63040e-26        00000 
-3.03624e-27  1.23970e-26        00000 
 1.05320e-27 -4.80519e-27        00000 
-3.32021e-28  1.58001e-27        00000 
 9.66212e-29 -4.53605e-28        00000 
-2.62699e-29  1.16704e-28        00000 
 6.73296e-30 -2.75131e-29        00000 
-1.63844e-30  6.05227e-30        00000 
 3.81022e-31 -1.25977e-30        00000 
-8.51978e-32  2.50623e-31        00000 
 1.84153e-32 -4.80043e-32        00000 
-3.86569e-33  8.90436e-33        00000 
 7.91376e-34 -1.60635e-33        00000 
-1.58551e-34  2.82484e-34        00000 
 3.12156e-35 -4.83876e-35        00000 
-6.06121e-36  8.05680e-36        00000 
 1.16392e-36 -1.30052e-36        00000 
-2.21398e-37  2.02577e-37        00000 
 4.17934e-38 -3.01915e-38        00000 
-8.07335e-39  4.29177e-39        00000 
 2.89718e-39 -1.08041e-39        00000 
 1.76058e-24  5.27747e-25        00000 
-1.58169e-24 -4.42652e-25        00000 
 1.16917e-24  6.25904e-25        00000 
-7.87489e-25 -7.82014e-25        00000 
 5.49162e-25  2.85493e-25        00000 
-3.94726e-25  2.30578e-25        00000 
 2.72126e-25 -3.91382e-25        00000 
-1.64750e-25  3.80093e-25        00000 
 8.55722e-26 -2.70931e-25        00000 
-3.51731e-26  1.40051e-25        00000 
 1.24319e-26 -5.74457e-26        00000 
-3.93720e-27  1.92878e-26        00000 
 1.14161e-27 -5.51144e-27        00000 
-3.07689e-28  1.38804e-27        00000 
 7.78698e-29 -3.17121e-28        00000 
-1.86466e-29  6.72497e-29        00000 
 4.25463e-30 -1.34669e-29        00000 
-9.31783e-31  2.57497e-30        00000 
 1.97175e-31 -4.73559e-31        00000 
-4.05122e-32  8.43395e-32        00000 
 8.11211e-33 -1.46172e-32        00000 
-1.58993e-33  2.46457e-33        00000 
 3.06556e-34 -4.02349e-34        00000 
-5.84040e-35  6.32194e-35        00000 
 1.10291e-35 -9.49166e-36        00000 
-2.06672e-36  1.34281e-36        00000 
 3.84282e-37 -1.73503e-37        00000 
-7.09589e-38  1.88850e-38        00000 
 1.34012e-38 -1.14755e-39        00000 
-4.71935e-39 -3.03554e-40        00000 
-1.08776e-23 -5.97748e-24        00000 
 1.00672e-23  3.52990e-25        00000 
-6.41615e-24 -3.03802e-24        00000 
 4.29479e-24  8.24875e-24        00000 
-3.02086e-24 -1.84814e-25        00000 
 2.26442e-24 -1.90101e-24        00000 
-1.57326e-24  2.57535e-24        00000 
 8.94092e-25 -2.49265e-24        00000 
-4.09884e-25  1.54038e-24        00000 
 1.47535e-25 -6.89163e-25        00000 
-4.69324e-26  2.38499e-25        00000 
 1.35382e-26 -6.77348e-26        00000 
-3.61122e-27  1.65877e-26        00000 
 9.00880e-28 -3.63974e-27        00000 
-2.11814e-28  7.36903e-28        00000 
 4.72800e-29 -1.40735e-28        00000 
-1.01073e-29  2.56601e-29        00000 
 2.08736e-30 -4.48830e-30        00000 
-4.18670e-31  7.59274e-31        00000 
 8.17850e-32 -1.25164e-31        00000 
-1.56333e-32  2.00166e-32        00000 
 2.94525e-33 -3.05738e-33        00000 
-5.49909e-34  4.37845e-34        00000 
 1.02156e-34 -5.74152e-35        00000 
-1.88761e-35  6.47073e-36        00000 
 3.46240e-36 -4.83559e-37        00000 
-6.29958e-37 -2.99334e-38        00000 
 1.13725e-37  2.48683e-38        00000 
-2.10165e-38 -8.10162e-39        00000 
 7.28149e-39  3.81542e-39        00000 
 7.34811e-23  2.91380e-24        00000 
-6.23525e-23 -4.03467e-24        00000 
 4.00891e-23  8.37498e-24        00000 
-2.50101e-23 -1.16020e-23        00000 
 2.00309e-23  6.53645e-24        00000 
-1.54208e-23  1.26137e-23        00000 
 9.53622e-24 -2.08489e-23        00000 
-4.61233e-24  1.64166e-23        00000 
 1.76150e-24 -8.28382e-24        00000 
-5.63156e-25  3.00077e-24        00000 
 1.61183e-25 -8.44979e-25        00000 
-4.24643e-26  1.99222e-25        00000 
 1.04218e-26 -4.14450e-26        00000 
-2.39997e-27  7.89647e-27        00000 
 5.22024e-28 -1.42080e-27        00000 
-1.08394e-28  2.44731e-28        00000 
 2.17662e-29 -4.01152e-29        00000 
-4.25236e-30  6.32529e-30        00000 
 8.07796e-31 -9.77595e-31        00000 
-1.49874e-31  1.45816e-31        00000 
 2.75202e-32 -1.99263e-32        00000 
-5.03033e-33  2.31507e-33        00000 
 9.21263e-34 -1.92543e-34        00000 
-1.68338e-34 -2.57343e-36        00000 
 3.04782e-35  6.68047e-36        00000 
-5.47026e-36 -2.22840e-36        00000 
 9.69499e-37  5.55454e-37        00000 
-1.71070e-37 -1.24912e-37        00000 
 3.11125e-38  2.73860e-38        00000 
-1.06747e-38 -1.06706e-38        00000 
-4.92257e-22 -1.47863e-23        00000 
 3.90828e-22  1.16071e-23        00000 
-2.07388e-22 -4.26712e-23        00000 
 1.14971e-22  9.15988e-23        00000 
-1.24688e-22 -4.94427e-23        00000 
 9.27971e-23 -1.06175e-22        00000 
-5.32438e-23  1.55458e-22        00000 
 2.13581e-23 -9.90733e-23        00000 
-6.81844e-24  3.86951e-23        00000 
 1.92629e-24 -1.07544e-23        00000 
-5.00089e-25  2.40301e-24        00000 
 1.20487e-25 -4.65150e-25        00000 
-2.71074e-26  8.14897e-26        00000 
 5.71753e-27 -1.35442e-26        00000 
-1.14419e-27  2.18742e-27        00000 
 2.22257e-28 -3.26716e-28        00000 
-4.22613e-29  4.57346e-29        00000 
 7.78427e-30 -6.45874e-30        00000 
-1.38750e-30  8.74463e-31        00000 
 2.48073e-31 -9.07551e-32        00000 
-4.43162e-32  2.22593e-33        00000 
 8.05452e-33  1.78723e-33        00000 
-1.46737e-33 -6.36435e-34        00000 
 2.61545e-34  1.64166e-34        00000 
-4.64185e-35 -3.81620e-35        00000 
 8.01988e-36  7.80027e-36        00000 
-1.38278e-36 -1.56865e-36        00000 
 2.41822e-37  3.07369e-37        00000 
-4.38764e-38 -6.06898e-38        00000 
 1.50468e-38  2.20090e-38        00000 
 3.49500e-21  2.40879e-22        00000 
-2.47911e-21  6.40342e-23        00000 
 8.52413e-22  7.79157e-23        00000 
-4.43785e-22 -8.64199e-22        00000 
 7.04906e-22  5.36111e-22        00000 
-6.04727e-22  1.05306e-21        00000 
 2.67686e-22 -1.15133e-21        00000 
-8.33120e-23  5.15872e-22        00000 
 2.30703e-23 -1.40707e-22        00000 
-5.89461e-24  2.90027e-23        00000 
 1.39067e-24 -5.08344e-24        00000 
-3.04996e-25  7.85743e-25        00000 
 6.20492e-26 -1.15392e-25        00000 
-1.17974e-26  1.77885e-26        00000 
 2.19980e-27 -2.25514e-27        00000 
-4.08352e-28  2.24429e-28        00000 
 7.32064e-29 -2.73648e-29        00000 
-1.21189e-29  3.29692e-30        00000 
 2.13916e-30  7.52839e-32        00000 
-3.70144e-31 -1.86694e-31        00000 
 6.79098e-32  5.27163e-32        00000 
-1.26901e-32 -1.14679e-32        00000 
 2.16746e-33  2.31855e-33        00000 
-3.88123e-34 -5.09998e-34        00000 
 6.35638e-35  8.96179e-35        00000 
-1.05730e-35 -1.72065e-35        00000 
 1.85590e-36  3.22270e-36        00000 
-3.29325e-37 -5.90776e-37        00000 
 6.03917e-38  1.10739e-37        00000 
-2.07240e-38 -3.79514e-38        00000 
-2.65664e-20 -3.05674e-21        00000 
 1.65222e-20  4.17242e-22        00000 
 3.71928e-22  6.40244e-21        00000 
 1.32282e-21  1.27804e-20        00000 
-6.47559e-21 -3.53584e-21        00000 
 3.55653e-21 -1.20935e-20        00000 
-1.03499e-21  7.28574e-21        00000 
 2.71954e-22 -1.91828e-21        00000 
-6.95440e-23  3.45758e-22        00000 
 1.60001e-23 -5.27464e-23        00000 
-3.41181e-24  6.63919e-24        00000 
 6.68758e-25 -7.08985e-25        00000 
-1.16953e-25  1.31184e-25        00000 
 2.07076e-26 -1.08975e-26        00000 
-3.77603e-27 -9.61847e-28        00000 
 6.95046e-28  1.01472e-28        00000 
-9.07523e-29 -2.80445e-30        00000 