<?xml version="1.0" encoding="utf-8"?>
<VTKFile byte_order="LittleEndian" type="UnstructuredGrid" version="0.1">
   <UnstructuredGrid>
      <Piece NumberOfCells="3364" NumberOfPoints="1741">
         <Points>
            <DataArray Name="Points" NumberOfComponents="3" format="ascii" type="Float32">
0.0000 1.0000 0.0000
0.0000 1.0345 0.0000
0.0000 1.0690 0.0000
0.0000 1.1034 0.0000
0.0000 1.1379 0.0000
0.0000 1.1724 0.0000
0.0000 1.2069 0.0000
0.0000 1.2414 0.0000
0.0000 1.2759 0.0000
0.0000 1.3103 0.0000
0.0000 1.3448 0.0000
0.0000 1.3793 0.0000
0.0000 1.4138 0.0000
0.0000 1.4483 0.0000
0.0000 1.4828 0.0000
0.0000 1.5172 0.0000
0.0000 1.5517 0.0000
0.0000 1.5862 0.0000
0.0000 1.6207 0.0000
0.0000 1.6552 0.0000
0.0000 1.6897 0.0000
0.0000 1.7241 0.0000
0.0000 1.7586 0.0000
0.0000 1.7931 0.0000
0.0000 1.8276 0.0000
0.0000 1.8621 0.0000
0.0000 1.8966 0.0000
0.0000 1.9310 0.0000
0.0000 1.9655 0.0000
0.0000 2.0000 0.0000
0.0690 1.0000 0.0000
0.0690 1.0345 0.0000
0.0690 1.0690 0.0000
0.0690 1.1034 0.0000
0.0690 1.1379 0.0000
0.0690 1.1724 0.0000
0.0690 1.2069 0.0000
0.0690 1.2414 0.0000
0.0690 1.2759 0.0000
0.0690 1.3103 0.0000
0.0690 1.3448 0.0000
0.0690 1.3793 0.0000
0.0690 1.4138 0.0000
0.0690 1.4483 0.0000
0.0690 1.4828 0.0000
0.0690 1.5172 0.0000
0.0690 1.5517 0.0000
0.0690 1.5862 0.0000
0.0690 1.6207 0.0000
0.0690 1.6552 0.0000
0.0690 1.6897 0.0000
0.0690 1.7241 0.0000
0.0690 1.7586 0.0000
0.0690 1.7931 0.0000
0.0690 1.8276 0.0000
0.0690 1.8621 0.0000
0.0690 1.8966 0.0000
0.0690 1.9310 0.0000
0.0690 1.9655 0.0000
0.0690 2.0000 0.0000
0.1379 1.0000 0.0000
0.1379 1.0345 0.0000
0.1379 1.0690 0.0000
0.1379 1.1034 0.0000
0.1379 1.1379 0.0000
0.1379 1.1724 0.0000
0.1379 1.2069 0.0000
0.1379 1.2414 0.0000
0.1379 1.2759 0.0000
0.1379 1.3103 0.0000
0.1379 1.3448 0.0000
0.1379 1.3793 0.0000
0.1379 1.4138 0.0000
0.1379 1.4483 0.0000
0.1379 1.4828 0.0000
0.1379 1.5172 0.0000
0.1379 1.5517 0.0000
0.1379 1.5862 0.0000
0.1379 1.6207 0.0000
0.1379 1.6552 0.0000
0.1379 1.6897 0.0000
0.1379 1.7241 0.0000
0.1379 1.7586 0.0000
0.1379 1.7931 0.0000
0.1379 1.8276 0.0000
0.1379 1.8621 0.0000
0.1379 1.8966 0.0000
0.1379 1.9310 0.0000
0.1379 1.9655 0.0000
0.1379 2.0000 0.0000
0.2069 1.0000 0.0000
0.2069 1.0345 0.0000
0.2069 1.0690 0.0000
0.2069 1.1034 0.0000
0.2069 1.1379 0.0000
0.2069 1.1724 0.0000
0.2069 1.2069 0.0000
0.2069 1.2414 0.0000
0.2069 1.2759 0.0000
0.2069 1.3103 0.0000
0.2069 1.3448 0.0000
0.2069 1.3793 0.0000
0.2069 1.4138 0.0000
0.2069 1.4483 0.0000
0.2069 1.4828 0.0000
0.2069 1.5172 0.0000
0.2069 1.5517 0.0000
0.2069 1.5862 0.0000
0.2069 1.6207 0.0000
0.2069 1.6552 0.0000
0.2069 1.6897 0.0000
0.2069 1.7241 0.0000
0.2069 1.7586 0.0000
0.2069 1.7931 0.0000
0.2069 1.8276 0.0000
0.2069 1.8621 0.0000
0.2069 1.8966 0.0000
0.2069 1.9310 0.0000
0.2069 1.9655 0.0000
0.2069 2.0000 0.0000
0.2759 1.0000 0.0000
0.2759 1.0345 0.0000
0.2759 1.0690 0.0000
0.2759 1.1034 0.0000
0.2759 1.1379 0.0000
0.2759 1.1724 0.0000
0.2759 1.2069 0.0000
0.2759 1.2414 0.0000
0.2759 1.2759 0.0000
0.2759 1.3103 0.0000
0.2759 1.3448 0.0000
0.2759 1.3793 0.0000
0.2759 1.4138 0.0000
0.2759 1.4483 0.0000
0.2759 1.4828 0.0000
0.2759 1.5172 0.0000
0.2759 1.5517 0.0000
0.2759 1.5862 0.0000
0.2759 1.6207 0.0000
0.2759 1.6552 0.0000
0.2759 1.6897 0.0000
0.2759 1.7241 0.0000
0.2759 1.7586 0.0000
0.2759 1.7931 0.0000
0.2759 1.8276 0.0000
0.2759 1.8621 0.0000
0.2759 1.8966 0.0000
0.2759 1.9310 0.0000
0.2759 1.9655 0.0000
0.2759 2.0000 0.0000
0.3448 1.0000 0.0000
0.3448 1.0345 0.0000
0.3448 1.0690 0.0000
0.3448 1.1034 0.0000
0.3448 1.1379 0.0000
0.3448 1.1724 0.0000
0.3448 1.2069 0.0000
0.3448 1.2414 0.0000
0.3448 1.2759 0.0000
0.3448 1.3103 0.0000
0.3448 1.3448 0.0000
0.3448 1.3793 0.0000
0.3448 1.4138 0.0000
0.3448 1.4483 0.0000
0.3448 1.4828 0.0000
0.3448 1.5172 0.0000
0.3448 1.5517 0.0000
0.3448 1.5862 0.0000
0.3448 1.6207 0.0000
0.3448 1.6552 0.0000
0.3448 1.6897 0.0000
0.3448 1.7241 0.0000
0.3448 1.7586 0.0000
0.3448 1.7931 0.0000
0.3448 1.8276 0.0000
0.3448 1.8621 0.0000
0.3448 1.8966 0.0000
0.3448 1.9310 0.0000
0.3448 1.9655 0.0000
0.3448 2.0000 0.0000
0.4138 1.0000 0.0000
0.4138 1.0345 0.0000
0.4138 1.0690 0.0000
0.4138 1.1034 0.0000
0.4138 1.1379 0.0000
0.4138 1.1724 0.0000
0.4138 1.2069 0.0000
0.4138 1.2414 0.0000
0.4138 1.2759 0.0000
0.4138 1.3103 0.0000
0.4138 1.3448 0.0000
0.4138 1.3793 0.0000
0.4138 1.4138 0.0000
0.4138 1.4483 0.0000
0.4138 1.4828 0.0000
0.4138 1.5172 0.0000
0.4138 1.5517 0.0000
0.4138 1.5862 0.0000
0.4138 1.6207 0.0000
0.4138 1.6552 0.0000
0.4138 1.6897 0.0000
0.4138 1.7241 0.0000
0.4138 1.7586 0.0000
0.4138 1.7931 0.0000
0.4138 1.8276 0.0000
0.4138 1.8621 0.0000
0.4138 1.8966 0.0000
0.4138 1.9310 0.0000
0.4138 1.9655 0.0000
0.4138 2.0000 0.0000
0.4828 1.0000 0.0000
0.4828 1.0345 0.0000
0.4828 1.0690 0.0000
0.4828 1.1034 0.0000
0.4828 1.1379 0.0000
0.4828 1.1724 0.0000
0.4828 1.2069 0.0000
0.4828 1.2414 0.0000
0.4828 1.2759 0.0000
0.4828 1.3103 0.0000
0.4828 1.3448 0.0000
0.4828 1.3793 0.0000
0.4828 1.4138 0.0000
0.4828 1.4483 0.0000
0.4828 1.4828 0.0000
0.4828 1.5172 0.0000
0.4828 1.5517 0.0000
0.4828 1.5862 0.0000
0.4828 1.6207 0.0000
0.4828 1.6552 0.0000
0.4828 1.6897 0.0000
0.4828 1.7241 0.0000
0.4828 1.7586 0.0000
0.4828 1.7931 0.0000
0.4828 1.8276 0.0000
0.4828 1.8621 0.0000
0.4828 1.8966 0.0000
0.4828 1.9310 0.0000
0.4828 1.9655 0.0000
0.4828 2.0000 0.0000
0.5517 1.0000 0.0000
0.5517 1.0345 0.0000
0.5517 1.0690 0.0000
0.5517 1.1034 0.0000
0.5517 1.1379 0.0000
0.5517 1.1724 0.0000
0.5517 1.2069 0.0000
0.5517 1.2414 0.0000
0.5517 1.2759 0.0000
0.5517 1.3103 0.0000
0.5517 1.3448 0.0000
0.5517 1.3793 0.0000
0.5517 1.4138 0.0000
0.5517 1.4483 0.0000
0.5517 1.4828 0.0000
0.5517 1.5172 0.0000
0.5517 1.5517 0.0000
0.5517 1.5862 0.0000
0.5517 1.6207 0.0000
0.5517 1.6552 0.0000
0.5517 1.6897 0.0000
0.5517 1.7241 0.0000
0.5517 1.7586 0.0000
0.5517 1.7931 0.0000
0.5517 1.8276 0.0000
0.5517 1.8621 0.0000
0.5517 1.8966 0.0000
0.5517 1.9310 0.0000
0.5517 1.9655 0.0000
0.5517 2.0000 0.0000
0.6207 1.0000 0.0000
0.6207 1.0345 0.0000
0.6207 1.0690 0.0000
0.6207 1.1034 0.0000
0.6207 1.1379 0.0000
0.6207 1.1724 0.0000
0.6207 1.2069 0.0000
0.6207 1.2414 0.0000
0.6207 1.2759 0.0000
0.6207 1.3103 0.0000
0.6207 1.3448 0.0000
0.6207 1.3793 0.0000
0.6207 1.4138 0.0000
0.6207 1.4483 0.0000
0.6207 1.4828 0.0000
0.6207 1.5172 0.0000
0.6207 1.5517 0.0000
0.6207 1.5862 0.0000
0.6207 1.6207 0.0000
0.6207 1.6552 0.0000
0.6207 1.6897 0.0000
0.6207 1.7241 0.0000
0.6207 1.7586 0.0000
0.6207 1.7931 0.0000
0.6207 1.8276 0.0000
0.6207 1.8621 0.0000
0.6207 1.8966 0.0000
0.6207 1.9310 0.0000
0.6207 1.9655 0.0000
0.6207 2.0000 0.0000
0.6897 1.0000 0.0000
0.6897 1.0345 0.0000
0.6897 1.0690 0.0000
0.6897 1.1034 0.0000
0.6897 1.1379 0.0000
0.6897 1.1724 0.0000
0.6897 1.2069 0.0000
0.6897 1.2414 0.0000
0.6897 1.2759 0.0000
0.6897 1.3103 0.0000
0.6897 1.3448 0.0000
0.6897 1.3793 0.0000
0.6897 1.4138 0.0000
0.6897 1.4483 0.0000
0.6897 1.4828 0.0000
0.6897 1.5172 0.0000
0.6897 1.5517 0.0000
0.6897 1.5862 0.0000
0.6897 1.6207 0.0000
0.6897 1.6552 0.0000
0.6897 1.6897 0.0000
0.6897 1.7241 0.0000
0.6897 1.7586 0.0000
0.6897 1.7931 0.0000
0.6897 1.8276 0.0000
0.6897 1.8621 0.0000
0.6897 1.8966 0.0000
0.6897 1.9310 0.0000
0.6897 1.9655 0.0000
0.6897 2.0000 0.0000
0.7586 1.0000 0.0000
0.7586 1.0345 0.0000
0.7586 1.0690 0.0000
0.7586 1.1034 0.0000
0.7586 1.1379 0.0000
0.7586 1.1724 0.0000
0.7586 1.2069 0.0000
0.7586 1.2414 0.0000
0.7586 1.2759 0.0000
0.7586 1.3103 0.0000
0.7586 1.3448 0.0000
0.7586 1.3793 0.0000
0.7586 1.4138 0.0000
0.7586 1.4483 0.0000
0.7586 1.4828 0.0000
0.7586 1.5172 0.0000
0.7586 1.5517 0.0000
0.7586 1.5862 0.0000
0.7586 1.6207 0.0000
0.7586 1.6552 0.0000
0.7586 1.6897 0.0000
0.7586 1.7241 0.0000
0.7586 1.7586 0.0000
0.7586 1.7931 0.0000
0.7586 1.8276 0.0000
0.7586 1.8621 0.0000
0.7586 1.8966 0.0000
0.7586 1.9310 0.0000
0.7586 1.9655 0.0000
0.7586 2.0000 0.0000
0.8276 1.0000 0.0000
0.8276 1.0345 0.0000
0.8276 1.0690 0.0000
0.8276 1.1034 0.0000
0.8276 1.1379 0.0000
0.8276 1.1724 0.0000
0.8276 1.2069 0.0000
0.8276 1.2414 0.0000
0.8276 1.2759 0.0000
0.8276 1.3103 0.0000
0.8276 1.3448 0.0000
0.8276 1.3793 0.0000
0.8276 1.4138 0.0000
0.8276 1.4483 0.0000
0.8276 1.4828 0.0000
0.8276 1.5172 0.0000
0.8276 1.5517 0.0000
0.8276 1.5862 0.0000
0.8276 1.6207 0.0000
0.8276 1.6552 0.0000
0.8276 1.6897 0.0000
0.8276 1.7241 0.0000
0.8276 1.7586 0.0000
0.8276 1.7931 0.0000
0.8276 1.8276 0.0000
0.8276 1.8621 0.0000
0.8276 1.8966 0.0000
0.8276 1.9310 0.0000
0.8276 1.9655 0.0000
0.8276 2.0000 0.0000
0.8966 1.0000 0.0000
0.8966 1.0345 0.0000
0.8966 1.0690 0.0000
0.8966 1.1034 0.0000
0.8966 1.1379 0.0000
0.8966 1.1724 0.0000
0.8966 1.2069 0.0000
0.8966 1.2414 0.0000
0.8966 1.2759 0.0000
0.8966 1.3103 0.0000
0.8966 1.3448 0.0000
0.8966 1.3793 0.0000
0.8966 1.4138 0.0000
0.8966 1.4483 0.0000
0.8966 1.4828 0.0000
0.8966 1.5172 0.0000
0.8966 1.5517 0.0000
0.8966 1.5862 0.0000
0.8966 1.6207 0.0000
0.8966 1.6552 0.0000
0.8966 1.6897 0.0000
0.8966 1.7241 0.0000
0.8966 1.7586 0.0000
0.8966 1.7931 0.0000
0.8966 1.8276 0.0000
0.8966 1.8621 0.0000
0.8966 1.8966 0.0000
0.8966 1.9310 0.0000
0.8966 1.9655 0.0000
0.8966 2.0000 0.0000
0.9655 1.0000 0.0000
0.9655 1.0345 0.0000
0.9655 1.0690 0.0000
0.9655 1.1034 0.0000
0.9655 1.1379 0.0000
0.9655 1.1724 0.0000
0.9655 1.2069 0.0000
0.9655 1.2414 0.0000
0.9655 1.2759 0.0000
0.9655 1.3103 0.0000
0.9655 1.3448 0.0000
0.9655 1.3793 0.0000
0.9655 1.4138 0.0000
0.9655 1.4483 0.0000
0.9655 1.4828 0.0000
0.9655 1.5172 0.0000
0.9655 1.5517 0.0000
0.9655 1.5862 0.0000
0.9655 1.6207 0.0000
0.9655 1.6552 0.0000
0.9655 1.6897 0.0000
0.9655 1.7241 0.0000
0.9655 1.7586 0.0000
0.9655 1.7931 0.0000
0.9655 1.8276 0.0000
0.9655 1.8621 0.0000
0.9655 1.8966 0.0000
0.9655 1.9310 0.0000
0.9655 1.9655 0.0000
0.9655 2.0000 0.0000
1.0345 1.0000 0.0000
1.0345 1.0345 0.0000
1.0345 1.0690 0.0000
1.0345 1.1034 0.0000
1.0345 1.1379 0.0000
1.0345 1.1724 0.0000
1.0345 1.2069 0.0000
1.0345 1.2414 0.0000
1.0345 1.2759 0.0000
1.0345 1.3103 0.0000
1.0345 1.3448 0.0000
[...]
         <PointData>
            <DataArray Name="fValues" NumberOfComponents="3" format="ascii" type="Float64">
 9.22935e-36  2.01538e-36        00000 
-2.75072e-35 -6.18211e-36        00000 
 1.54520e-34  3.58973e-35        00000 
-8.90795e-34 -2.13831e-34        00000 
 5.12956e-33  1.27357e-33        00000 
-2.94713e-32 -7.57629e-33        00000 
 1.68873e-31  4.49962e-32        00000 
-9.64637e-31 -2.66644e-31        00000 
 5.48997e-30  1.57544e-30        00000 
-3.11088e-29 -9.27153e-30        00000 
 1.75365e-28  5.42744e-29        00000 
-9.82383e-28 -3.15451e-28        00000 
 5.46129e-27  1.81569e-27        00000 
-3.00704e-26 -1.03116e-26        00000 
 1.63507e-25  5.74700e-26        00000 
-8.73602e-25 -3.11790e-25        00000 
 4.54323e-24  1.62578e-24        00000 
-2.25571e-23 -7.98061e-24        00000 
 1.02796e-22  3.55962e-23        00000 
-3.92144e-22 -1.35530e-22        00000 
 9.96032e-22  3.97878e-22        00000 
-2.29069e-21 -8.52179e-22        00000 
 2.89905e-22  1.33637e-21        00000 
 2.95423e-21 -1.60690e-21        00000 
-6.52075e-21  1.59746e-21        00000 
 7.71338e-21 -1.39361e-21        00000 
-6.37300e-21  1.04859e-21        00000 
 3.62896e-21 -6.32375e-22        00000 
-1.49048e-21  3.01678e-22        00000 
 7.85871e-22 -1.80712e-22        00000 
-9.30780e-36 -1.94794e-36        00000 
 2.77904e-35  5.97763e-36        00000 
-1.56463e-34 -3.47337e-35        00000 
 9.04255e-34  2.07104e-34        00000 
-5.22208e-33 -1.23522e-33        00000 
 3.01033e-32  7.36227e-33        00000 
-1.73167e-31 -4.38385e-32        00000 
 9.93676e-31  2.60686e-31        00000 
-5.68556e-30 -1.54737e-30        00000 
 3.24213e-29  9.16257e-30        00000 
-1.84141e-28 -5.40790e-29        00000 
 1.04091e-27  3.17799e-28        00000 
-5.85076e-27 -1.85667e-27        00000 
 3.26628e-26  1.07615e-26        00000 
-1.80842e-25 -6.16965e-26        00000 
 9.91073e-25  3.48325e-25        00000 
-5.36070e-24 -1.92346e-24        00000 
 2.84621e-23  1.02733e-23        00000 
-1.46174e-22 -5.20365e-23        00000 
 7.03633e-22  2.40489e-22        00000 
-2.83775e-21 -9.30934e-22        00000 
 4.88249e-21  2.48023e-21        00000 
-3.90008e-21 -4.30487e-21        00000 
-7.96044e-21  5.16018e-21        00000 
 2.31075e-20 -4.93749e-21        00000 
-2.64474e-20  4.32872e-21        00000 
 2.09316e-20 -3.26962e-21        00000 
-9.56907e-21  1.78627e-21        00000 
 2.87226e-21 -6.60822e-22        00000 
-1.13835e-21  3.02487e-22        00000 
 9.49936e-36  1.74863e-36        00000 
-2.84924e-35 -5.36976e-36        00000 
 1.61342e-34  3.12453e-35        00000 
-9.38362e-34 -1.86713e-34        00000 
 5.45831e-33  1.11720e-33        00000 
-3.17270e-32 -6.68914e-33        00000 
 1.84257e-31  4.00784e-32        00000 
-1.06902e-30 -2.40321e-31        00000 
 6.19508e-30  1.44235e-30        00000 
-3.58530e-29 -8.66588e-30        00000 
 2.07169e-28  5.21321e-29        00000 
-1.19489e-27 -3.14088e-28        00000 
 6.87723e-27  1.89569e-27        00000 
-3.94891e-26 -1.14645e-26        00000 
 2.26208e-25  6.94811e-26        00000 
-1.29351e-24 -4.21861e-25        00000 
 7.39979e-24  2.56276e-24        00000 
-4.25830e-23 -1.55221e-23        00000 
 2.48851e-22  9.29428e-23        00000 
-1.46812e-21 -5.39385e-22        00000 
 8.66570e-21  2.89151e-21        00000 
-4.48102e-20 -1.25189e-20        00000 
 5.16308e-20  2.76069e-20        00000 
 3.26300e-20 -3.23910e-20        00000 
-1.58709e-19  2.74636e-20        00000 
 2.04438e-19 -2.57583e-20        00000 
-1.24018e-19  2.03764e-20        00000 
 3.74894e-20 -8.68499e-21        00000 
-6.20733e-21  1.79328e-21        00000 
 1.70869e-21 -6.37495e-22        00000 
-9.68748e-36 -1.42925e-36        00000 
 2.92205e-35  4.38646e-36        00000 
-1.66625e-34 -2.55265e-35        00000 
 9.76433e-34  1.52713e-34        00000 
-5.72827e-33 -9.15942e-34        00000 
 3.36174e-32  5.50560e-33        00000 
-1.97367e-31 -3.31794e-32        00000 
 1.15923e-30  2.00583e-31        00000 
-6.81196e-30 -1.21721e-30        00000 
 4.00490e-29  7.42035e-30        00000 
-2.35578e-28 -4.54863e-29        00000 
 1.38642e-27  2.80679e-28        00000 
-8.16294e-27 -1.74564e-27        00000 
 4.80768e-26  1.09574e-26        00000 
-2.83190e-25 -6.95164e-26        00000 
 1.66795e-24  4.46349e-25        00000 
-9.82356e-24 -2.90362e-24        00000 
 5.79513e-23  1.91471e-23        00000 
-3.45638e-22 -1.27904e-22        00000 
 2.17275e-21  8.62793e-22        00000 
-1.41958e-20 -5.81644e-21        00000 
 1.08257e-19  3.77676e-20        00000 
-6.02122e-19 -1.97983e-19        00000 
 2.53487e-19  2.33188e-19        00000 
 1.15782e-18 -1.12885e-19        00000 
-1.62631e-18  1.74361e-19        00000 
 6.09625e-19 -1.47082e-19        00000 
-6.52244e-20  2.04735e-20        00000 
 6.23626e-21 -3.30804e-21        00000 
-1.26018e-21  1.06702e-21        00000 
 9.72228e-36  1.01607e-36        00000 
-2.94698e-35 -3.10205e-36        00000 
 1.69060e-34  1.79558e-35        00000 
-9.97058e-34 -1.06955e-34        00000 
 5.89078e-33  6.39296e-34        00000 
-3.48433e-32 -3.83394e-33        00000 
 2.06351e-31  2.30851e-32        00000 
-1.22376e-30 -1.39676e-31        00000 
 7.26860e-30  8.50044e-31        00000 
-4.32452e-29 -5.20931e-30        00000 
 2.57763e-28  3.21878e-29        00000 
-1.53940e-27 -2.00813e-28        00000 
 9.21207e-27  1.26695e-27        00000 
-5.52340e-26 -8.09704e-27        00000 
 3.31700e-25  5.25174e-26        00000 
-1.99323e-24 -3.46428e-25        00000 
 1.19579e-23  2.33017e-24        00000 
-7.12360e-23 -1.60382e-23        00000 
 4.15868e-22  1.13545e-22        00000 
-2.30510e-21 -8.33523e-22        00000 
 1.48772e-20  6.42570e-21        00000 
-8.09539e-20 -5.30732e-20        00000 
 1.42207e-18  4.81786e-19        00000 
-1.30954e-17 -3.88485e-18        00000 
 9.98282e-03 -2.46380e-18        00000 
 1.24421e-17 -3.27535e-18        00000 
-4.67086e-19  1.75901e-19        00000 
-5.32086e-21 -2.62918e-20        00000 
 1.89985e-21  4.45174e-21        00000 
-8.46095e-22 -1.43972e-21        00000 
-9.47080e-36 -5.52971e-37        00000 
 2.87937e-35  1.65225e-36        00000 
-1.65778e-34 -9.32742e-36        00000 
 9.81371e-34  5.41898e-35        00000 
-5.82165e-33 -3.15631e-34        00000 
 3.45860e-32  1.84283e-33        00000 
-2.05805e-31 -1.07938e-32        00000 
 1.22685e-30  6.34841e-32        00000 
-7.32805e-30 -3.75349e-31        00000 
 4.38678e-29  2.23372e-30        00000 
-2.63251e-28 -1.33979e-29        00000 
 1.58408e-27  8.11125e-29        00000 
-9.56076e-27 -4.96393e-28        00000 
 5.78965e-26  3.07553e-27        00000 
-3.51868e-25 -1.93240e-26        00000 
 2.14662e-24  1.23376e-25        00000 
-1.31436e-23 -8.02705e-25        00000 
 8.06616e-23  5.34595e-24        00000 
-4.93127e-22 -3.67215e-23        00000 
 2.90273e-21  2.63611e-22        00000 
-8.77121e-21 -2.02627e-21        00000 
 9.58586e-20  1.75266e-20        00000 
-1.41753e-19 -1.93214e-19        00000 
-9.98282e-03  9.04497e-18        00000 
 8.54322e-01 -2.52934e-17        00000 
-9.98282e-03 -1.87208e-19        00000 
-1.51984e-18 -1.21022e-19        00000 
 9.14447e-20  2.89550e-20        00000 
-1.28323e-20 -5.19651e-21        00000 
 2.70981e-21  1.68103e-21        00000 
 8.86071e-36  9.71198e-38        00000 
-2.69510e-35 -2.21855e-37        00000 
 1.55242e-34  7.85256e-37        00000 
-9.19366e-34 -1.72273e-36        00000 
 5.45561e-33 -7.99307e-36        00000 
-3.24190e-32  1.61605e-34        00000 
 1.92933e-31 -1.68072e-33        00000 
-1.15009e-30  1.45836e-32        00000 
 6.86843e-30 -1.16364e-31        00000 
-4.11030e-29  8.86395e-31        00000 
 2.46545e-28 -6.56966e-30        00000 
-1.48277e-27  4.79228e-29        00000 
 8.94537e-27 -3.46780e-28        00000 
-5.41692e-26  2.50455e-27        00000 
 3.29581e-25 -1.81483e-26        00000 
-2.01806e-24  1.32590e-25        00000 
 1.24729e-23 -9.81747e-25        00000 
-7.82942e-23  7.41180e-24        00000 
 5.06626e-22 -5.75082e-23        00000 
-3.54114e-21  4.63937e-22        00000 
 3.52557e-20 -3.96578e-21        00000 
-1.17525e-19  3.72074e-20        00000 
 5.13833e-19 -4.15713e-19        00000 
-1.31345e-17  7.74449e-18        00000 
 9.98282e-03  7.24466e-18        00000 
-3.21084e-18 -4.01814e-18        00000 
 4.34913e-19  2.50206e-19        00000 
-1.31762e-19 -3.48140e-20        00000 
 1.97385e-20  5.53133e-21        00000 
 1.02116e-20 -1.71856e-21        00000 
-7.90284e-36  2.92888e-37        00000 
 2.39806e-35 -9.96361e-37        00000 
-1.37724e-34  6.45208e-36        00000 
 8.12991e-34 -4.24984e-35        00000 
-4.80668e-33  2.79237e-34        00000 
 2.84433e-32 -1.83135e-33        00000 
-1.68461e-31  1.20007e-32        00000 
 9.98689e-31 -7.86514e-32        00000 
-5.92649e-30  5.16061e-31        00000 
 3.52074e-29 -3.39336e-30        00000 
-2.09401e-28  2.23849e-29        00000 
 1.24707e-27 -1.48311e-28        00000 
-7.43791e-27  9.88147e-28        00000 
 4.44415e-26 -6.62972e-27        00000 
-2.66145e-25  4.48611e-26        00000 
 1.59882e-24 -3.06710e-25        00000 
-9.64833e-24  2.12324e-24        00000 
 5.86247e-23 -1.49217e-23        00000 
-3.59548e-22  1.06800e-22        00000 
 2.19930e-21 -7.81410e-22        00000 
-7.79935e-21  5.86427e-21        00000 
 7.16416e-20 -4.50319e-20        00000 
-5.76375e-19  3.36814e-19        00000 
 7.70103e-19 -3.05140e-19        00000 
 1.49298e-19 -4.11161e-19        00000 
-2.13918e-19  6.07836e-19        00000 
 1.06918e-19 -2.14536e-19        00000 
-3.57438e-21  2.99912e-20        00000 
-5.98341e-21 -4.67231e-21        00000 
 1.65497e-21  1.44727e-21        00000 
 6.68591e-36 -5.72066e-37        00000 
-2.01809e-35  1.85462e-36        00000 
 1.15151e-34 -1.14530e-35        00000 
-6.75034e-34  7.24232e-35        00000 
 3.96013e-33 -4.58515e-34        00000 
-2.32298e-32  2.90562e-33        00000 
 1.36230e-31 -1.84363e-32        00000 
-7.98583e-31  1.17169e-31        00000 
 4.67845e-30 -7.46131e-31        00000 
-2.73842e-29  4.76255e-30        00000 
 1.60085e-28 -3.04820e-29        00000 
-9.34170e-28  1.95694e-28        00000 
 5.43749e-27 -1.26058e-27        00000 
-3.15325e-26  8.14915e-27        00000 
 1.81831e-25 -5.28707e-26        00000 
-1.03895e-24  3.44150e-25        00000 
 5.83968e-24 -2.24542e-24        00000 
-3.17301e-23  1.46510e-23        00000 
 1.58111e-22 -9.51000e-23        00000 
-5.70847e-22  6.06518e-22        00000 
 1.11827e-21 -3.67804e-21        00000 
-6.10241e-21  1.90076e-20        00000 
 4.01556e-20 -3.97504e-20        00000 
-9.28683e-20  1.88091e-20        00000 
 2.28758e-20  4.47987e-20        00000 
 2.39137e-20 -7.33603e-20        00000 
-1.69813e-20  4.53356e-20        00000 
-7.71269e-21 -1.39520e-20        00000 
 9.58088e-22  2.73297e-21        00000 
-7.17799e-22 -9.34378e-22        00000 
-5.34779e-36  7.20424e-37        00000 
 1.60097e-35 -2.29000e-36        00000 
-9.04359e-35  1.38413e-35        00000 
 5.24501e-34 -8.57553e-35        00000 
-3.04056e-33  5.31876e-34        00000 
 1.75988e-32 -3.30052e-33        00000 
-1.01662e-31  2.04921e-32        00000 
 5.85824e-31 -1.27298e-31        00000 
-3.36531e-30  7.91147e-31        00000 
 1.92557e-29 -4.91850e-30        00000 
-1.09611e-28  3.05791e-29        00000 
 6.19701e-28 -1.90032e-28        00000 
-3.47114e-27  1.17952e-27        00000 
 1.91898e-26 -7.30324e-27        00000 
-1.04058e-25  4.50191e-26        00000 
 5.47445e-25 -2.75378e-25        00000 
-2.73638e-24  1.66233e-24        00000 
 1.24326e-23 -9.80651e-24        00000 
-4.64946e-23  5.54957e-23        00000 
 1.39505e-22 -2.89735e-22        00000 
-5.47941e-22  1.26735e-21        00000 
 2.57248e-21 -3.39078e-21        00000 
-7.47031e-21  4.56419e-21        00000 
 1.01834e-20 -1.05984e-21        00000 
-8.12118e-21 -5.86316e-21        00000 
-1.11597e-23  9.57524e-21        00000 
 5.41901e-21 -7.43892e-21        00000 
-8.96630e-22  3.41910e-21        00000 
-3.20060e-22 -1.05229e-21        00000 
 1.74578e-22  4.43479e-22        00000 
 4.03555e-36 -7.45837e-37        00000 
-1.19474e-35  2.33342e-36        00000 
 6.65748e-35 -1.38494e-35        00000 
-3.80568e-34  8.42507e-35        00000 
 2.17098e-33 -5.12548e-34        00000 
-1.23414e-32  3.11557e-33        00000 
 6.98583e-32 -1.89170e-32        00000 
-3.93367e-31  1.14686e-31        00000 
 2.20068e-30 -6.93860e-31        00000 
-1.22114e-29  4.18614e-30        00000 
 6.70522e-29 -2.51581e-29        00000 
-3.63156e-28  1.50390e-28        00000 
 1.93085e-27 -8.92321e-28        00000 
-1.00063e-26  5.23886e-27        00000 
 4.99800e-26 -3.02940e-26        00000 
-2.36254e-25  1.71305e-25        00000 
 1.02568e-24 -9.36385e-25        00000 
-3.92242e-24  4.85129e-24        00000 
 1.33708e-23 -2.29796e-23        00000 
-4.85112e-23  9.26195e-23        00000 
 1.88803e-22 -2.72483e-22        00000 
-5.82471e-22  5.16979e-22        00000 
 1.16048e-21 -5.28671e-22        00000 
-1.47162e-21  4.15695e-24        00000 
 1.07959e-21  8.33608e-22        00000 
-1.49786e-22 -1.32609e-21        00000 
-4.28547e-22  1.16184e-21        00000 
 2.50933e-22 -6.67848e-22        00000 
 1.81975e-22  2.82129e-22        00000 
 5.38922e-23 -1.54635e-22        00000 
-2.86925e-36  6.77805e-37        00000 
 8.37625e-36 -2.08666e-36        00000 
-4.58806e-35  1.21522e-35        00000 
 2.57544e-34 -7.24970e-35        00000 
-1.43982e-33  4.31850e-34        00000 
 8.00202e-33 -2.56547e-33        00000 
-4.41562e-32  1.51890e-32        00000 
 2.41552e-31 -8.95479e-32        00000 
-1.30732e-30  5.25125e-31        00000 
 6.98140e-30 -3.05854e-30        00000 
-3.66542e-29  1.76585e-29        00000 
 1.88259e-28 -1.00788e-28        00000 
-9.39246e-28  5.66578e-28        00000 
 4.50628e-27 -3.12023e-27        00000 
-2.04945e-26  1.67033e-26        00000 
 8.66745e-26 -8.58990e-26        00000 
-3.34600e-25  4.16574e-25        00000 
 1.19311e-24 -1.84800e-24        00000 
-4.21776e-24  7.12050e-24        00000 
 1.49596e-23 -2.18661e-23        00000 
-4.63817e-23  4.92552e-23        00000 
 1.08937e-22 -7.47336e-23        00000 
-1.83168e-22  6.13028e-23        00000 
 2.13541e-22  1.58202e-23        00000 
-1.56611e-22 -1.24091e-22        00000 
 4.42563e-23  1.91436e-22        00000 
 3.30405e-23 -1.80176e-22        00000 
-2.93805e-23  1.19582e-22        00000 
-5.00339e-25 -6.30504e-23        00000 
 9.19327e-24  4.18076e-23        00000 
 1.92065e-36 -5.55714e-37        00000 
-5.51345e-36  1.68098e-36        00000 
 2.95825e-35 -9.58656e-36        00000 
-1.62473e-34  5.59579e-35        00000 
 8.86617e-34 -3.25511e-34        00000 
-4.79615e-33  1.88398e-33        00000 
 2.56737e-32 -1.08372e-32        00000 
-1.35696e-31  6.18722e-32        00000 
 7.06158e-31 -3.49984e-31        00000 
-3.60487e-30  1.95695e-30        00000 
 1.79646e-29 -1.07839e-29        00000 
-8.68317e-29  5.83260e-29        00000 
 4.03613e-28 -3.07905e-28        00000 
-1.78457e-27  1.57412e-27        00000 
 7.41234e-27 -7.70637e-27        00000 
-2.86540e-26  3.55363e-26        00000 
 1.03804e-25 -1.50551e-25        00000 
-3.62941e-25  5.64250e-25        00000 
 1.23122e-24 -1.77228e-24        00000 
-3.79128e-24  4.40701e-24        00000 
 9.65954e-24 -8.21187e-24        00000 
-1.91944e-23  1.05522e-23        00000 
 2.88587e-23 -6.99812e-24        00000 
-3.17948e-23 -4.37551e-24        00000 
 2.38443e-23  1.90124e-23        00000 
-9.45411e-24 -2.84779e-23        00000 
-1.32872e-24  2.80818e-23        00000 
 3.44282e-24 -2.06448e-23        00000 
-9.20327e-25  1.28035e-23        00000 
-5.42376e-25 -9.63847e-24        00000 
-1.21010e-36  4.16882e-37        00000 
 3.40660e-36 -1.23669e-36        00000 
-1.78445e-35  6.88939e-36        00000 
 9.55591e-35 -3.92425e-35        00000 
-5.07097e-34  2.22255e-34        00000 
 2.65907e-33 -1.24902e-33        00000 
-1.37464e-32  6.95387e-33        00000 
 6.98610e-32 -3.82808e-32        00000 
-3.47785e-31  2.07852e-31        00000 
 1.68829e-30 -1.10958e-30        00000 
-7.94615e-30  5.79924e-30        00000 
 3.60051e-29 -2.95108e-29        00000 
-1.55757e-28  1.45118e-28        00000 
 6.37811e-28 -6.82521e-28        00000 
-2.45834e-27  3.02630e-27        00000 
 8.94433e-27 -1.23967e-26        00000 
-3.10867e-26  4.56062e-26        00000 
 1.03238e-25 -1.45200e-25        00000 
-3.16157e-25  3.84249e-25        00000 
 8.41978e-25 -8.12569e-25        00000 
-1.85571e-24  1.31069e-24        00000 
 3.28259e-24 -1.46970e-24        00000 
-4.56147e-24  7.65608e-25        00000 
 4.84670e-24  9.25961e-25        00000 
-3.73308e-24 -2.97102e-24        00000 
 1.81175e-24  4.33351e-24        00000 
-2.44317e-25 -4.41568e-24        00000 
-3.21865e-25  3.50950e-24        00000 
 2.00190e-25 -2.45855e-24        00000 
-5.94973e-26  2.01504e-24        00000 
 7.17702e-37 -2.88546e-37        00000 
-1.97639e-36  8.37719e-37        00000 
 1.00751e-35 -4.54657e-36        00000 
-5.24375e-35  2.52016e-35        00000 
 2.69676e-34 -1.38540e-34        00000 
-1.36580e-33  7.53377e-34        00000 
 6.79304e-33 -4.04424e-33        00000 
-3.30675e-32  2.13763e-32        00000 
 1.56894e-31 -1.10888e-31        00000 
-7.21947e-31  5.62203e-31        00000 
 3.20297e-30 -2.77092e-30        00000 
-1.36121e-29  1.31834e-29        00000 
 5.50680e-29 -5.99876e-29        00000 
-2.11186e-28  2.57833e-28        00000 
 7.67991e-28 -1.02959e-27        00000 
-2.65875e-27  3.73771e-27        00000 
 8.74116e-27 -1.20074e-26        00000 
-2.67165e-26  3.31379e-26        00000 
 7.31033e-26 -7.62785e-26        00000 
-1.72370e-25  1.41910e-25        00000 
 3.40477e-25 -2.03786e-25        00000 
-5.52684e-25  2.02412e-25        00000 
 7.25220e-25 -7.60907e-26        00000 
-7.52765e-25 -1.77935e-25        00000 
 5.94906e-25  4.71045e-25        00000 
-3.29286e-25 -6.71327e-25        00000 
 9.68921e-26  7.01185e-25        00000 
 1.58111e-26 -5.92920e-25        00000 
-3.10579e-26  4.55670e-25        00000 
 2.35743e-26 -3.95860e-25        00000 
-4.00906e-37  1.85286e-37        00000 
 1.07745e-36 -5.25347e-37        00000 
-5.32965e-36  2.77028e-36        00000 
 2.68831e-35 -1.49014e-35        00000 
-1.33593e-34  7.92701e-35        00000 
 6.51545e-34 -4.15745e-34        00000 
-3.10870e-33  2.14408e-33        00000 
 1.44567e-32 -1.08381e-32        00000 
-6.52418e-32  5.34829e-32        00000 
 2.84329e-31 -2.56342e-31        00000 
-1.19038e-30  1.18564e-30        00000 
 4.76425e-30 -5.24820e-30        00000 
-1.81637e-29  2.19965e-29        00000 
 6.58873e-29 -8.61088e-29        00000 
-2.27433e-28  3.09494e-28        00000 
 7.44317e-28 -1.00062e-27        00000 
-2.27683e-27  2.84532e-27        00000 
 6.34818e-27 -6.95537e-27        00000 
-1.56793e-26  1.42788e-26        00000 
 3.34832e-26 -2.39231e-26        00000 
-6.07325e-26  3.11360e-26        00000 
 9.23098e-26 -2.75296e-26        00000 
-1.16050e-25  5.87101e-27        00000 
 1.18632e-25  3.26420e-26        00000 
-9.59184e-26 -7.55272e-26        00000 
 5.81886e-26  1.05527e-25        00000 
-2.32270e-26 -1.12414e-25        00000 
 2.86723e-27  9.99652e-26        00000 
 3.73741e-27 -8.24714e-26        00000 
-4.50018e-27  7.46308e-26        00000 
 2.11108e-37 -1.10818e-37        00000 
-5.52590e-37  3.06225e-37        00000 
 2.64554e-36 -1.56477e-36        00000 
-1.29015e-35  8.14605e-36        00000 
 6.18064e-35 -4.18128e-35        00000 
-2.89642e-34  2.10840e-34        00000 
 1.32327e-33 -1.04113e-33        00000 
-5.87149e-33  5.01526e-33        00000 
 2.51973e-32 -2.34559e-32        00000 
-1.04132e-31  1.05879e-31        00000 
 4.12748e-31 -4.57893e-31        00000 
-1.56405e-30  1.87980e-30        00000 
 5.65471e-30 -7.24271e-30        00000 
-1.94738e-29  2.58307e-29        00000 
 6.36163e-29 -8.39136e-29        00000 
-1.95097e-28  2.43978e-28        00000 
 5.51902e-28 -6.23531e-28        00000 