<?xml version="1.0" encoding="utf-8"?>
<VTKFile byte_order="LittleEndian" type="UnstructuredGrid" version="0.1">
   <UnstructuredGrid>
      <Piece NumberOfCells="3364" NumberOfPoints="1741">
         <Points>
            <DataArray Name="Points" NumberOfComponents="3" format="ascii" type="Float32">
0.0000 1.0000 0.0000
0.0000 1.0345 0.0000
0.0000 1.0690 0.0000
0.0000 1.1034 0.0000
0.0000 1.1379 0.0000
0.0000 1.1724 0.0000
0.0000 1.2069 0.0000
0.0000 1.2414 0.0000
0.0000 1.2759 0.0000
0.0000 1.3103 0.0000
0.0000 1.3448 0.0000
0.0000 1.3793 0.0000
0.0000 1.4138 0.0000
0.0000 1.4483 0.0000
0.0000 1.4828 0.0000
0.0000 1.5172 0.0000
0.0000 1.5517 0.0000
0.0000 1.5862 0.0000
0.0000 1.6207 0.0000
0.0000 1.6552 0.0000
0.0000 1.6897 0.0000
0.0000 1.7241 0.0000
0.0000 1.7586 0.0000
0.0000 1.7931 0.0000
0.0000 1.8276 0.0000
0.0000 1.8621 0.0000
0.0000 1.8966 0.0000
0.0000 1.9310 0.0000
0.0000 1.9655 0.0000
0.0000 2.0000 0.0000
0.0690 1.0000 0.0000
0.0690 1.0345 0.0000
0.0690 1.0690 0.0000
0.0690 1.1034 0.0000
0.0690 1.1379 0.0000
0.0690 1.1724 0.0000
0.0690 1.2069 0.0000
0.0690 1.2414 0.0000
0.0690 1.2759 0.0000
0.0690 1.3103 0.0000
0.0690 1.3448 0.0000
0.0690 1.3793 0.0000
0.0690 1.4138 0.0000
0.0690 1.4483 0.0000
0.0690 1.4828 0.0000
0.0690 1.5172 0.0000
0.0690 1.5517 0.0000
0.0690 1.5862 0.0000
0.0690 1.6207 0.0000
0.0690 1.6552 0.0000
0.0690 1.6897 0.0000
0.0690 1.7241 0.0000
0.0690 1.7586 0.0000
0.0690 1.7931 0.0000
0.0690 1.8276 0.0000
0.0690 1.8621 0.0000
0.0690 1.8966 0.0000
0.0690 1.9310 0.0000
0.0690 1.9655 0.0000
0.0690 2.0000 0.0000
0.1379 1.0000 0.0000
0.1379 1.0345 0.0000
0.1379 1.0690 0.0000
0.1379 1.1034 0.0000
0.1379 1.1379 0.0000
0.1379 1.1724 0.0000
0.1379 1.2069 0.0000
0.1379 1.2414 0.0000
0.1379 1.2759 0.0000
0.1379 1.3103 0.0000
0.1379 1.3448 0.0000
0.1379 1.3793 0.0000
0.1379 1.4138 0.0000
0.1379 1.4483 0.0000
0.1379 1.4828 0.0000
0.1379 1.5172 0.0000
0.1379 1.5517 0.0000
0.1379 1.5862 0.0000
0.1379 1.6207 0.0000
0.1379 1.6552 0.0000
0.1379 1.6897 0.0000
0.1379 1.7241 0.0000
0.1379 1.7586 0.0000
0.1379 1.7931 0.0000
0.1379 1.8276 0.0000
0.1379 1.8621 0.0000
0.1379 1.8966 0.0000
0.1379 1.9310 0.0000
0.1379 1.9655 0.0000
0.1379 2.0000 0.0000
0.2069 1.0000 0.0000
0.2069 1.0345 0.0000
0.2069 1.0690 0.0000
0.2069 1.1034 0.0000
0.2069 1.1379 0.0000
0.2069 1.1724 0.0000
0.2069 1.2069 0.0000
0.2069 1.2414 0.0000
0.2069 1.2759 0.0000
0.2069 1.3103 0.0000
0.2069 1.3448 0.0000
0.2069 1.3793 0.0000
0.2069 1.4138 0.0000
0.2069 1.4483 0.0000
0.2069 1.4828 0.0000
0.2069 1.5172 0.0000
0.2069 1.5517 0.0000
0.2069 1.5862 0.0000
0.2069 1.6207 0.0000
0.2069 1.6552 0.0000
0.2069 1.6897 0.0000
0.2069 1.7241 0.0000
0.2069 1.7586 0.0000
0.2069 1.7931 0.0000
0.2069 1.8276 0.0000
0.2069 1.8621 0.0000
0.2069 1.8966 0.0000
0.2069 1.9310 0.0000
0.2069 1.9655 0.0000
0.2069 2.0000 0.0000
0.2759 1.0000 0.0000
0.2759 1.0345 0.0000
0.2759 1.0690 0.0000
0.2759 1.1034 0.0000
0.2759 1.1379 0.0000
0.2759 1.1724 0.0000
0.2759 1.2069 0.0000
0.2759 1.2414 0.0000
0.2759 1.2759 0.0000
0.2759 1.3103 0.0000
0.2759 1.3448 0.0000
0.2759 1.3793 0.0000
0.2759 1.4138 0.0000
0.2759 1.4483 0.0000
0.2759 1.4828 0.0000
0.2759 1.5172 0.0000
0.2759 1.5517 0.0000
0.2759 1.5862 0.0000
0.2759 1.6207 0.0000
0.2759 1.6552 0.0000
0.2759 1.6897 0.0000
0.2759 1.7241 0.0000
0.2759 1.7586 0.0000
0.2759 1.7931 0.0000
0.2759 1.8276 0.0000
0.2759 1.8621 0.0000
0.2759 1.8966 0.0000
0.2759 1.9310 0.0000
0.2759 1.9655 0.0000
0.2759 2.0000 0.0000
0.3448 1.0000 0.0000
0.3448 1.0345 0.0000
0.3448 1.0690 0.0000
0.3448 1.1034 0.0000
0.3448 1.1379 0.0000
0.3448 1.1724 0.0000
0.3448 1.2069 0.0000
0.3448 1.2414 0.0000
0.3448 1.2759 0.0000
0.3448 1.3103 0.0000
0.3448 1.3448 0.0000
0.3448 1.3793 0.0000
0.3448 1.4138 0.0000
0.3448 1.4483 0.0000
0.3448 1.4828 0.0000
0.3448 1.5172 0.0000
0.3448 1.5517 0.0000
0.3448 1.5862 0.0000
0.3448 1.6207 0.0000
0.3448 1.6552 0.0000
0.3448 1.6897 0.0000
0.3448 1.7241 0.0000
0.3448 1.7586 0.0000
0.3448 1.7931 0.0000
0.3448 1.8276 0.0000
0.3448 1.8621 0.0000
0.3448 1.8966 0.0000
0.3448 1.9310 0.0000
0.3448 1.9655 0.0000
0.3448 2.0000 0.0000
0.4138 1.0000 0.0000
0.4138 1.0345 0.0000
0.4138 1.0690 0.0000
0.4138 1.1034 0.0000
0.4138 1.1379 0.0000
0.4138 1.1724 0.0000
0.4138 1.2069 0.0000
0.4138 1.2414 0.0000
0.4138 1.2759 0.0000
0.4138 1.3103 0.0000
0.4138 1.3448 0.0000
0.4138 1.3793 0.0000
0.4138 1.4138 0.0000
0.4138 1.4483 0.0000
0.4138 1.4828 0.0000
0.4138 1.5172 0.0000
0.4138 1.5517 0.0000
0.4138 1.5862 0.0000
0.4138 1.6207 0.0000
0.4138 1.6552 0.0000
0.4138 1.6897 0.0000
0.4138 1.7241 0.0000
0.4138 1.7586 0.0000
0.4138 1.7931 0.0000
0.4138 1.8276 0.0000
0.4138 1.8621 0.0000
0.4138 1.8966 0.0000
0.4138 1.9310 0.0000
0.4138 1.9655 0.0000
0.4138 2.0000 0.0000
0.4828 1.0000 0.0000
0.4828 1.0345 0.0000
0.4828 1.0690 0.0000
0.4828 1.1034 0.0000
0.4828 1.1379 0.0000
0.4828 1.1724 0.0000
0.4828 1.2069 0.0000
0.4828 1.2414 0.0000
0.4828 1.2759 0.0000
0.4828 1.3103 0.0000
0.4828 1.3448 0.0000
0.4828 1.3793 0.0000
0.4828 1.4138 0.0000
0.4828 1.4483 0.0000
0.4828 1.4828 0.0000
0.4828 1.5172 0.0000
0.4828 1.5517 0.0000
0.4828 1.5862 0.0000
0.4828 1.6207 0.0000
0.4828 1.6552 0.0000
0.4828 1.6897 0.0000
0.4828 1.7241 0.0000
0.4828 1.7586 0.0000
0.4828 1.7931 0.0000
0.4828 1.8276 0.0000
0.4828 1.8621 0.0000
0.4828 1.8966 0.0000
0.4828 1.9310 0.0000
0.4828 1.9655 0.0000
0.4828 2.0000 0.0000
0.5517 1.0000 0.0000
0.5517 1.0345 0.0000
0.5517 1.0690 0.0000
0.5517 1.1034 0.0000
0.5517 1.1379 0.0000
0.5517 1.1724 0.0000
0.5517 1.2069 0.0000
0.5517 1.2414 0.0000
0.5517 1.2759 0.0000
0.5517 1.3103 0.0000
0.5517 1.3448 0.0000
0.5517 1.3793 0.0000
0.5517 1.4138 0.0000
0.5517 1.4483 0.0000
0.5517 1.4828 0.0000
0.5517 1.5172 0.0000
0.5517 1.5517 0.0000
0.5517 1.5862 0.0000
0.5517 1.6207 0.0000
0.5517 1.6552 0.0000
0.5517 1.6897 0.0000
0.5517 1.7241 0.0000
0.5517 1.7586 0.0000
0.5517 1.7931 0.0000
0.5517 1.8276 0.0000
0.5517 1.8621 0.0000
0.5517 1.8966 0.0000
0.5517 1.9310 0.0000
0.5517 1.9655 0.0000
0.5517 2.0000 0.0000
0.6207 1.0000 0.0000
0.6207 1.0345 0.0000
0.6207 1.0690 0.0000
0.6207 1.1034 0.0000
0.6207 1.1379 0.0000
0.6207 1.1724 0.0000
0.6207 1.2069 0.0000
0.6207 1.2414 0.0000
0.6207 1.2759 0.0000
0.6207 1.3103 0.0000
0.6207 1.3448 0.0000
0.6207 1.3793 0.0000
0.6207 1.4138 0.0000
0.6207 1.4483 0.0000
0.6207 1.4828 0.0000
0.6207 1.5172 0.0000
0.6207 1.5517 0.0000
0.6207 1.5862 0.0000
0.6207 1.6207 0.0000
0.6207 1.6552 0.0000
0.6207 1.6897 0.0000
0.6207 1.7241 0.0000
0.6207 1.7586 0.0000
0.6207 1.7931 0.0000
0.6207 1.8276 0.0000
0.6207 1.8621 0.0000
0.6207 1.8966 0.0000
0.6207 1.9310 0.0000
0.6207 1.9655 0.0000
0.6207 2.0000 0.0000
0.6897 1.0000 0.0000
0.6897 1.0345 0.0000
0.6897 1.0690 0.0000
0.6897 1.1034 0.0000
0.6897 1.1379 0.0000
0.6897 1.1724 0.0000
0.6897 1.2069 0.0000
0.6897 1.2414 0.0000
0.6897 1.2759 0.0000
0.6897 1.3103 0.0000
0.6897 1.3448 0.0000
0.6897 1.3793 0.0000
0.6897 1.4138 0.0000
0.6897 1.4483 0.0000
0.6897 1.4828 0.0000
0.6897 1.5172 0.0000
0.6897 1.5517 0.0000
0.6897 1.5862 0.0000
0.6897 1.6207 0.0000
0.6897 1.6552 0.0000
0.6897 1.6897 0.0000
0.6897 1.7241 0.0000
0.6897 1.7586 0.0000
0.6897 1.7931 0.0000
0.6897 1.8276 0.0000
0.6897 1.8621 0.0000
0.6897 1.8966 0.0000
0.6897 1.9310 0.0000
0.6897 1.9655 0.0000
0.6897 2.0000 0.0000
0.7586 1.0000 0.0000
0.7586 1.0345 0.0000
0.7586 1.0690 0.0000
0.7586 1.1034 0.0000
0.7586 1.1379 0.0000
0.7586 1.1724 0.0000
0.7586 1.2069 0.0000
0.7586 1.2414 0.0000
0.7586 1.2759 0.0000
0.7586 1.3103 0.0000
0.7586 1.3448 0.0000
0.7586 1.3793 0.0000
0.7586 1.4138 0.0000
0.7586 1.4483 0.0000
0.7586 1.4828 0.0000
0.7586 1.5172 0.0000
0.7586 1.5517 0.0000
0.7586 1.5862 0.0000
0.7586 1.6207 0.0000
0.7586 1.6552 0.0000
0.7586 1.6897 0.0000
0.7586 1.7241 0.0000
0.7586 1.7586 0.0000
0.7586 1.7931 0.0000
0.7586 1.8276 0.0000
0.7586 1.8621 0.0000
0.7586 1.8966 0.0000
0.7586 1.9310 0.0000
0.7586 1.9655 0.0000
0.7586 2.0000 0.0000
0.8276 1.0000 0.0000
0.8276 1.0345 0.0000
0.8276 1.0690 0.0000
0.8276 1.1034 0.0000
0.8276 1.1379 0.0000
0.8276 1.1724 0.0000
0.8276 1.2069 0.0000
0.8276 1.2414 0.0000
0.8276 1.2759 0.0000
0.8276 1.3103 0.0000
0.8276 1.3448 0.0000
0.8276 1.3793 0.0000
0.8276 1.4138 0.0000
0.8276 1.4483 0.0000
0.8276 1.4828 0.0000
0.8276 1.5172 0.0000
0.8276 1.5517 0.0000
0.8276 1.5862 0.0000
0.8276 1.6207 0.0000
0.8276 1.6552 0.0000
0.8276 1.6897 0.0000
0.8276 1.7241 0.0000
0.8276 1.7586 0.0000
0.8276 1.7931 0.0000
0.8276 1.8276 0.0000
0.8276 1.8621 0.0000
0.8276 1.8966 0.0000
0.8276 1.9310 0.0000
0.8276 1.9655 0.0000
0.8276 2.0000 0.0000
0.8966 1.0000 0.0000
0.8966 1.0345 0.0000
0.8966 1.0690 0.0000
0.8966 1.1034 0.0000
0.8966 1.1379 0.0000
0.8966 1.1724 0.0000
0.8966 1.2069 0.0000
0.8966 1.2414 0.0000
0.8966 1.2759 0.0000
0.8966 1.3103 0.0000
0.8966 1.3448 0.0000
0.8966 1.3793 0.0000
0.8966 1.4138 0.0000
0.8966 1.4483 0.0000
0.8966 1.4828 0.0000
0.8966 1.5172 0.0000
0.8966 1.5517 0.0000
0.8966 1.5862 0.0000
0.8966 1.6207 0.0000
0.8966 1.6552 0.0000
0.8966 1.6897 0.0000
0.8966 1.7241 0.0000
0.8966 1.7586 0.0000
0.8966 1.7931 0.0000
0.8966 1.8276 0.0000
0.8966 1.8621 0.0000
0.8966 1.8966 0.0000
0.8966 1.9310 0.0000
0.8966 1.9655 0.0000
0.8966 2.0000 0.0000
0.9655 1.0000 0.0000
0.9655 1.0345 0.0000
0.9655 1.0690 0.0000
0.9655 1.1034 0.0000
0.9655 1.1379 0.0000
0.9655 1.1724 0.0000
0.9655 1.2069 0.0000
0.9655 1.2414 0.0000
0.9655 1.2759 0.0000
0.9655 1.3103 0.0000
0.9655 1.3448 0.0000
0.9655 1.3793 0.0000
0.9655 1.4138 0.0000
0.9655 1.4483 0.0000
0.9655 1.4828 0.0000
0.9655 1.5172 0.0000
0.9655 1.5517 0.0000
0.9655 1.5862 0.0000
0.9655 1.6207 0.0000
0.9655 1.6552 0.0000
0.9655 1.6897 0.0000
0.9655 1.7241 0.0000
0.9655 1.7586 0.0000
0.9655 1.7931 0.0000
0.9655 1.8276 0.0000
0.9655 1.8621 0.0000
0.9655 1.8966 0.0000
0.9655 1.9310 0.0000
0.9655 1.9655 0.0000
0.9655 2.0000 0.0000
1.0345 1.0000 0.0000
1.0345 1.0345 0.0000
1.0345 1.0690 0.0000
1.0345 1.1034 0.0000
1.0345 1.1379 0.0000
1.0345 1.1724 0.0000
1.0345 1.2069 0.0000
1.0345 1.2414 0.0000
1.0345 1.2759 0.0000
1.0345 1.3103 0.0000
1.0345 1.3448 0.0000
[...]
         <PointData>
            <DataArray Name="fValues" NumberOfComponents="3" format="ascii" type="Float64">
-5.95653e-34 -4.01454e-34        00000 
 7.17268e-34  4.79419e-34        00000 
-1.09417e-33 -7.16156e-34        00000 
 1.75378e-33  1.11377e-33        00000 
-2.71491e-33 -1.65734e-33        00000 
 3.95543e-33  2.29703e-33        00000 
-5.38425e-33 -2.94018e-33        00000 
 6.83281e-33  3.46273e-33        00000 
-8.07725e-33 -3.74132e-33        00000 
 8.89075e-33  3.69513e-33        00000 
-9.10948e-33 -3.31839e-33        00000 
 8.68583e-33  2.68649e-33        00000 
-7.70499e-33 -1.93104e-33        00000 
 6.35701e-33  1.19525e-33        00000 
-4.87684e-33 -5.90211e-34        00000 
 3.47800e-33  1.70094e-34        00000 
-2.30554e-33  6.76398e-35        00000 
 1.42062e-33 -1.63384e-34        00000 
-8.13873e-34  1.70675e-34        00000 
 4.33767e-34 -1.36775e-34        00000 
-2.15272e-34  9.34231e-35        00000 
 9.96222e-35 -5.65841e-35        00000 
-4.30707e-35  3.09989e-35        00000 
 1.74381e-35 -1.55457e-35        00000 
-6.63041e-36  7.19622e-36        00000 
 2.37520e-36 -3.09523e-36        00000 
-8.04676e-37  1.24497e-36        00000 
 2.60006e-37 -4.74494e-37        00000 
-8.53451e-38  1.84868e-37        00000 
 4.60250e-38 -1.12458e-37        00000 
 1.55091e-33  1.05074e-33        00000 
-1.90140e-33 -1.28001e-33        00000 
 2.99823e-33  1.98349e-33        00000 
-4.94942e-33 -3.18600e-33        00000 
 7.84684e-33  4.86380e-33        00000 
-1.16565e-32 -6.87829e-33        00000 
 1.61170e-32  8.94052e-33        00000 
-2.07007e-32 -1.06434e-32        00000 
 2.46793e-32  1.15694e-32        00000 
-2.72986e-32 -1.14385e-32        00000 
 2.80072e-32  1.02258e-32        00000 
-2.66432e-32 -8.18580e-33        00000 
 2.34937e-32  5.76405e-33        00000 
-1.91965e-32 -3.43897e-33        00000 
 1.45298e-32  1.57027e-33        00000 
-1.01847e-32 -3.18111e-34        00000 
 6.61048e-33 -3.47744e-34        00000 
-3.97323e-33  5.76290e-34        00000 
 2.21230e-33 -5.48731e-34        00000 
-1.14202e-33  4.15544e-34        00000 
 5.47254e-34 -2.70934e-34        00000 
-2.43890e-34  1.57151e-34        00000 
 1.01334e-34 -8.25194e-35        00000 
-3.93718e-35  3.96648e-35        00000 
 1.43551e-35 -1.75951e-35        00000 
-4.93035e-36  7.25123e-36        00000 
 1.60182e-36 -2.79446e-36        00000 
-4.96280e-37  1.01975e-36        00000 
 1.55689e-37 -3.79112e-37        00000 
-8.11406e-38  2.23224e-37        00000 
-7.36043e-33 -5.00770e-33        00000 
 9.23653e-33  6.26182e-33        00000 
-1.51830e-32 -1.01641e-32        00000 
 2.59868e-32  1.69902e-32        00000 
-4.24202e-32 -2.67676e-32        00000 
 6.45335e-32  3.88070e-32        00000 
-9.09559e-32 -5.14102e-32        00000 
 1.18561e-31  6.20237e-32        00000 
-1.42824e-31 -6.79302e-32        00000 
 1.58936e-31  6.72550e-32        00000 
-1.63326e-31 -5.97964e-32        00000 
 1.54935e-31  4.72070e-32        00000 
-1.35625e-31 -3.23900e-32        00000 
 1.09506e-31  1.84131e-32        00000 
-8.15210e-32 -7.49457e-33        00000 
 5.59338e-32  5.05205e-34        00000 
-3.53644e-32  2.90567e-33        00000 
 2.06053e-32 -3.78578e-33        00000 
-1.10692e-32  3.30085e-33        00000 
 5.48807e-33 -2.35180e-33        00000 
-2.51544e-33  1.45381e-33        00000 
 1.06842e-33 -8.01132e-34        00000 
-4.21873e-34  3.99645e-34        00000 
 1.55450e-34 -1.82362e-34        00000 
-5.36820e-35  7.67303e-35        00000 
 1.74517e-35 -2.99744e-35        00000 
-5.36505e-36  1.09446e-35        00000 
 1.57124e-36 -3.77964e-36        00000 
-4.63281e-37  1.32329e-36        00000 
 2.29939e-37 -7.46298e-37        00000 
 3.54676e-32  2.41574e-32        00000 
-4.56530e-32 -3.10960e-32        00000 
 7.84105e-32  5.30439e-32        00000 
-1.39356e-31 -9.24740e-32        00000 
 2.34559e-31  1.50652e-31        00000 
-3.65953e-31 -2.24329e-31        00000 
 5.26445e-31  3.03369e-31        00000 
-6.97143e-31 -3.71356e-31        00000 
 8.49214e-31  4.10105e-31        00000 
-9.51138e-31 -4.06701e-31        00000 
 9.79125e-31  3.59508e-31        00000 
-9.26038e-31 -2.79581e-31        00000 
 8.04293e-31  1.86392e-31        00000 
-6.41158e-31 -1.00160e-31        00000 
 4.68864e-31  3.48743e-32        00000 
-3.14382e-31  4.79495e-33        00000 
 1.93237e-31 -2.21752e-32        00000 
-1.08891e-31  2.46985e-32        00000 
 5.62927e-32 -1.99675e-32        00000 
-2.67347e-32  1.34257e-32        00000 
 1.16909e-32 -7.87130e-33        00000 
-4.72236e-33  4.11802e-33        00000 
 1.76930e-33 -1.94969e-33        00000 
-6.17821e-34  8.43830e-34        00000 
 2.02106e-34 -3.36597e-34        00000 
-6.22482e-35  1.24645e-34        00000 
 1.81341e-35 -4.31535e-35        00000 
-5.02888e-36  1.41278e-35        00000 
 1.39607e-36 -4.67183e-36        00000 
-6.59694e-37  2.52744e-36        00000 
-1.67146e-31 -1.13554e-31        00000 
 2.21498e-31  1.51188e-31        00000 
-3.99369e-31 -2.72660e-31        00000 
 7.39649e-31  4.98001e-31        00000 
-1.28778e-30 -8.42306e-31        00000 
 2.06645e-30  1.29272e-30        00000 
-3.04154e-30 -1.78963e-30        00000 
 4.09972e-30  2.22734e-30        00000 
-5.05680e-30 -2.48332e-30        00000 
 5.70495e-30  2.46772e-30        00000 
-5.88445e-30 -2.16742e-30        00000 
 5.54678e-30  1.65705e-30        00000 
-4.77541e-30 -1.06835e-30        00000 
 3.75252e-30  5.35358e-31        00000 
-2.68950e-30 -1.46178e-31        00000 
 1.75710e-30 -7.58714e-32        00000 
-1.04606e-30  1.59691e-31        00000 
 5.67600e-31 -1.57573e-31        00000 
-2.80981e-31  1.18658e-31        00000 
 1.27150e-31 -7.52135e-32        00000 
-5.27633e-32  4.16996e-32        00000 
 2.01657e-32 -2.06355e-32        00000 
-7.13684e-33  9.23615e-33        00000 
 2.35295e-33 -3.77701e-33        00000 
-7.26994e-34  1.42338e-33        00000 
 2.11622e-34 -4.98192e-34        00000 
-5.82814e-35  1.63173e-34        00000 
 1.52616e-35 -5.05709e-35        00000 
-3.97298e-36  1.57864e-35        00000 
 1.77739e-36 -8.18449e-36        00000 
 7.66089e-31  5.16612e-31        00000 
-1.04983e-30 -7.15516e-31        00000 
 1.99798e-30  1.37380e-30        00000 
-3.87243e-30 -2.64333e-30        00000 
 7.00137e-30  4.66500e-30        00000 
-1.15961e-29 -7.41169e-30        00000 
 1.75155e-29  1.05411e-29        00000 
-2.40877e-29 -1.33731e-29        00000 
 3.01346e-29  1.50761e-29        00000 
-3.42775e-29 -1.50191e-29        00000 
 3.54359e-29  1.30973e-29        00000 
-3.32766e-29 -9.81934e-30        00000 
 2.83656e-29  6.08481e-30        00000 
-2.19292e-29 -2.78743e-30        00000 
 1.53612e-29  4.79709e-31        00000 
-9.74200e-30  7.37960e-31        00000 
 5.59149e-30 -1.10427e-30        00000 
-2.90551e-30  9.84111e-31        00000 
 1.36890e-30 -6.91320e-31        00000 
-5.86446e-31  4.12049e-31        00000 
 2.29475e-31 -2.15155e-31        00000 
-8.25059e-32  1.00246e-31        00000 
 2.74490e-32 -4.22191e-32        00000 
-8.51148e-33  1.62418e-32        00000 
 2.47595e-33 -5.76055e-33        00000 
-6.79030e-34  1.89971e-33        00000 
 1.76111e-34 -5.87251e-34        00000 
-4.33154e-35  1.72035e-34        00000 
 1.04875e-35 -5.06638e-35        00000 
-4.39419e-36  2.51470e-35        00000 
-3.39736e-30 -2.25964e-30        00000 
 4.83958e-30  3.27714e-30        00000 
-9.78118e-30 -6.75112e-30        00000 
 1.99370e-29  1.37747e-29        00000 
-3.76075e-29 -2.55240e-29        00000 
 6.45675e-29  4.22119e-29        00000 
-1.00452e-28 -6.19499e-29        00000 
 1.41347e-28  8.03711e-29        00000 
-1.79713e-28 -9.17925e-29        00000 
 2.06347e-28  9.17298e-29        00000 
-2.13873e-28 -7.93494e-29        00000 
 1.99983e-28  5.81585e-29        00000 
-1.68549e-28 -3.43610e-29        00000 
 1.27894e-28  1.39515e-29        00000 
-8.72581e-29 -3.69932e-31        00000 
 5.34722e-29 -6.11029e-30        00000 
-2.94186e-29  7.39787e-30        00000 
 1.45406e-29 -6.01657e-30        00000 
-6.47156e-30  3.93941e-30        00000 
 2.60488e-30 -2.19914e-30        00000 
-9.54382e-31  1.07596e-30        00000 
 3.20899e-31 -4.69449e-31        00000 
-9.99050e-32  1.85076e-31        00000 
 2.90353e-32 -6.66747e-32        00000 
-7.92616e-33  2.21728e-32        00000 
 2.03948e-33 -6.87003e-33        00000 
-4.95082e-34  2.00051e-33        00000 
 1.13319e-34 -5.53395e-34        00000 
-2.51345e-35  1.53741e-34        00000 
 9.65864e-36 -7.30182e-35        00000 
 1.44862e-29  9.42729e-30        00000 
-2.15818e-29 -1.44213e-29        00000 
 4.66376e-29  3.21471e-29        00000 
-1.00545e-28 -7.01056e-29        00000 
 1.98989e-28  1.37458e-28        00000 
-3.56009e-28 -2.38292e-28        00000 
 5.73057e-28  3.62914e-28        00000 
-8.27984e-28 -4.83445e-28        00000 
 1.07254e-27  5.60738e-28        00000 
-1.24487e-27 -5.62524e-28        00000 
 1.29414e-27  4.82154e-28        00000 
-1.20420e-27 -3.44142e-28        00000 
 1.00179e-27  1.91759e-28        00000 
-7.43911e-28 -6.54514e-29        00000 
 4.92215e-28 -1.36217e-29        00000 
-2.89761e-28  4.65413e-29        00000 
 1.51695e-28 -4.82275e-29        00000 
-7.07135e-29  3.59598e-29        00000 
 2.94623e-29 -2.18785e-29        00000 
-1.10451e-29  1.13765e-29        00000 
 3.76102e-30 -5.18294e-30        00000 
-1.17615e-30  2.10462e-30        00000 
 3.41361e-31 -7.72454e-31        00000 
-9.26870e-32  2.59429e-31        00000 
 2.36426e-32 -8.06200e-32        00000 
-5.66826e-33  2.34161e-32        00000 
 1.27365e-33 -6.41498e-33        00000 
-2.66577e-34  1.67515e-33        00000 
 5.24793e-35 -4.39301e-34        00000 
-1.75908e-35  1.99660e-34        00000 
-5.89272e-29 -3.71725e-29        00000 
 9.24785e-29  6.04302e-29        00000 
-2.15301e-28 -1.47050e-28        00000 
 4.94180e-28  3.45980e-28        00000 
-1.03308e-27 -7.24913e-28        00000 
 1.93852e-27  1.32919e-27        00000 
-3.24684e-27 -2.11623e-27        00000 
 4.83859e-27  2.90998e-27        00000 
-6.40549e-27 -3.43848e-27        00000 
 7.52865e-27  3.46610e-27        00000 
-7.85396e-27 -2.93960e-27        00000 
 7.26714e-27  2.03311e-27        00000 
-5.95501e-27 -1.05229e-27        00000 
 4.31174e-27  2.71536e-28        00000 
-2.75141e-27  1.81634e-28        00000 
 1.54422e-27 -3.36076e-28        00000 
-7.62007e-28  3.06423e-28        00000 
 3.31416e-28 -2.09524e-28        00000 
-1.27854e-28  1.17823e-28        00000 
 4.42149e-29 -5.66617e-29        00000 
-1.38959e-29  2.38602e-29        00000 
 4.02473e-30 -8.95724e-30        00000 
-1.08583e-30  3.04394e-30        00000 
 2.74308e-31 -9.49203e-31        00000 
-6.48751e-32  2.74915e-31        00000 
 1.42976e-32 -7.47467e-32        00000 
-2.90824e-33  1.92581e-32        00000 
 5.35468e-34 -4.74960e-33        00000 
-8.58521e-35  1.17742e-33        00000 
 2.06673e-35 -5.12469e-34        00000 
 2.26404e-28  1.37155e-28        00000 
-3.77552e-28 -2.38551e-28        00000 
 9.55149e-28  6.38928e-28        00000 
-2.35186e-27 -1.63936e-27        00000 
 5.23472e-27  3.71603e-27        00000 
-1.03849e-26 -7.29246e-27        00000 
 1.82300e-26  1.22572e-26        00000 
-2.81823e-26 -1.75216e-26        00000 
 3.82796e-26  2.11789e-26        00000 
-4.56596e-26 -2.14783e-26        00000 
 4.78279e-26  1.79910e-26        00000 
-4.39667e-26 -1.19791e-26        00000 
 3.53963e-26  5.63189e-27        00000 
-2.48716e-26 -8.18998e-28        00000 
 1.51947e-26 -1.71724e-27        00000 
-8.04838e-27  2.33286e-27        00000 
 3.69659e-27 -1.89612e-27        00000 
-1.47949e-27  1.18459e-27        00000 
 5.21778e-28 -6.10849e-28        00000 
-1.64912e-28  2.69277e-28        00000 
 4.76048e-29 -1.03946e-28        00000 
-1.27424e-29  3.58323e-29        00000 
 3.18460e-30 -1.12191e-29        00000 
-7.42101e-31  3.23812e-30        00000 
 1.60029e-31 -8.72722e-31        00000 
-3.14923e-32  2.22065e-31        00000 
 5.49950e-33 -5.38442e-32        00000 
-7.91246e-34  1.25597e-32        00000 
 6.36479e-35 -2.94962e-33        00000 
 1.60795e-35  1.23115e-33        00000 
-8.10845e-28 -4.68840e-28        00000 
 1.45230e-27  8.76619e-28        00000 
-4.03371e-27 -2.60010e-27        00000 
 1.07484e-26  7.35683e-27        00000 
-2.57050e-26 -1.83145e-26        00000 
 5.44412e-26  3.90743e-26        00000 
-1.01104e-25 -7.02797e-26        00000 
 1.63386e-25  1.05469e-25        00000 
-2.28881e-25 -1.31141e-25        00000 
 2.77820e-25  1.34006e-25        00000 
-2.92416e-25 -1.10589e-25        00000 
 2.66771e-25  7.02721e-26        00000 
-2.10318e-25 -2.89766e-26        00000 
 1.42524e-25 -5.37818e-28        00000 
-8.25263e-26  1.42121e-26        00000 
 4.06755e-26 -1.56652e-26        00000 
-1.70931e-26  1.13907e-26        00000 
 6.18736e-27 -6.45132e-27        00000 
-1.96856e-27  3.01802e-27        00000 
 5.65141e-28 -1.20685e-27        00000 
-1.49737e-28  4.23433e-28        00000 
 3.69791e-29 -1.33219e-28        00000 
-8.48247e-30  3.82851e-29        00000 
 1.78510e-30 -1.02104e-29        00000 
-3.37594e-31  2.56062e-30        00000 
 5.49853e-32 -6.10423e-31        00000 
-6.78342e-33  1.39548e-31        00000 
 2.17243e-34 -3.08582e-32        00000 
 2.54346e-34  6.88543e-33        00000 
-2.04581e-34 -2.76155e-33        00000 
 2.66165e-27  1.47090e-27        00000 
-5.18162e-27 -2.96392e-27        00000 
 1.60138e-26  9.75552e-27        00000 
-4.66937e-26 -3.07051e-26        00000 
 1.21182e-25  8.53626e-26        00000 
-2.77098e-25 -2.02151e-25        00000 
 5.51120e-25  3.96671e-25        00000 
-9.40902e-25 -6.33922e-25        00000 
 1.36903e-24  8.17299e-25        00000 
-1.69690e-24 -8.43121e-25        00000 
 1.79611e-24  6.83048e-25        00000 
-1.62407e-24 -4.09274e-25        00000 
 1.24873e-24  1.39311e-25        00000 
-8.09149e-25  4.00806e-26        00000 
 4.37631e-25 -1.09290e-25        00000 
-1.96615e-25  1.01923e-25        00000 
 7.38271e-26 -6.60053e-26        00000 
-2.36901e-26  3.34634e-26        00000 
 6.73816e-27 -1.40112e-26        00000 
-1.76044e-27  5.02674e-27        00000 
 4.29112e-28 -1.59079e-27        00000 
-9.68746e-29  4.54676e-28        00000 
 1.98398e-29 -1.19715e-28        00000 
-3.57273e-30  2.95096e-29        00000 
 5.28480e-31 -6.89795e-30        00000 
-4.91190e-32  1.54449e-30        00000 
-4.39630e-33 -3.33882e-31        00000 
 4.07823e-33  7.02142e-32        00000 
-1.56824e-33 -1.49383e-32        00000 
 8.34777e-34  5.77170e-33        00000 
-7.87819e-27 -4.19688e-27        00000 
 1.67585e-26  9.12245e-27        00000 
-5.85901e-26 -3.32730e-26        00000 
 1.90428e-25  1.16715e-25        00000 
-5.42351e-25 -3.67175e-25        00000 
 1.35378e-24  9.90315e-25        00000 
-2.92855e-24 -2.18160e-24        00000 
 5.36444e-24  3.79602e-24        00000 
-8.19076e-24 -5.13588e-24        00000 
 1.04122e-23  5.36074e-24        00000 
-1.10908e-23 -4.23959e-24        00000 
 9.92580e-24  2.35518e-24        00000 
-7.40549e-24 -5.84896e-25        00000 
 4.53129e-24 -4.90334e-25        00000 
-2.23748e-24  8.00215e-25        00000 
 8.87650e-25 -6.40736e-25        00000 
-2.88538e-25  3.64620e-25        00000 
 8.07745e-26 -1.62503e-25        00000 
-2.06679e-26  6.00042e-26        00000 
 4.96778e-27 -1.91284e-26        00000 
-1.10569e-27  5.42858e-27        00000 
 2.19767e-28 -1.40677e-27        00000 
-3.71804e-29  3.39645e-28        00000 
 4.76195e-30 -7.75844e-29        00000 
-2.05474e-31  1.69634e-29        00000 
-1.34438e-31 -3.58134e-30        00000 
 6.37818e-32  7.35003e-31        00000 
-1.99460e-32 -1.47572e-31        00000 
 5.55118e-33  3.00586e-32        00000 
-2.54029e-33 -1.12216e-32        00000 
 2.07987e-26  1.06935e-26        00000 
-4.81357e-26 -2.53831e-26        00000 
 1.90193e-25  1.01875e-25        00000 
-7.13725e-25 -3.97655e-25        00000 
 2.28188e-24  1.41340e-24        00000 
-6.25378e-24 -4.43881e-24        00000 
 1.49480e-23  1.14539e-23        00000 
-3.00930e-23 -2.25362e-23        00000 
 4.90298e-23  3.26454e-23        00000 
-6.42595e-23 -3.45526e-23        00000 
 6.88716e-23  2.64125e-23        00000 
-6.09512e-23 -1.32806e-23        00000 
 4.38627e-23  1.68141e-24        00000 
-2.48323e-23  4.64383e-24        00000 
 1.07582e-23 -5.64232e-24        00000 
-3.58189e-24  3.85483e-24        00000 
 9.75529e-25 -1.87981e-24        00000 
-2.41313e-25  7.21028e-25        00000 
 5.71733e-26 -2.32040e-25        00000 
-1.26292e-26  6.52332e-26        00000 
 2.43067e-27 -1.65670e-26        00000 
-3.78228e-28  3.89970e-27        00000 
 3.78919e-29 -8.66817e-28        00000 
 2.14417e-30  1.84396e-28        00000 
-2.55447e-30 -3.79065e-29        00000 
 9.27468e-31  7.58425e-30        00000 
-2.60555e-31 -1.48482e-30        00000 
 6.47933e-32  2.85910e-31        00000 
-1.55592e-32 -5.60048e-32        00000 
 6.49946e-33  2.02702e-32        00000 
-4.84484e-26 -2.37938e-26        00000 
 1.21825e-25  6.18294e-26        00000 
-5.33732e-25 -2.82422e-25        00000 
 2.28803e-24  1.18737e-24        00000 
-8.94855e-24 -4.81276e-24        00000 
 2.71436e-23  1.72480e-23        00000 
-7.12317e-23 -5.47139e-23        00000 
 1.63669e-22  1.30934e-22        00000 
-2.94230e-22 -2.11322e-22        00000 
 3.99841e-22  2.26886e-22        00000 
-4.29446e-22 -1.64167e-22        00000 
 3.76731e-22  7.24695e-23        00000 
-2.59910e-22  2.97242e-24        00000 
 1.30769e-22 -3.97532e-23        00000 
-4.59095e-23  3.84306e-23        00000 
 1.19184e-23 -2.16416e-23        00000 
-2.77781e-24  8.73081e-24        00000 
 6.48887e-25 -2.84726e-24        00000 
-1.45010e-25  7.90122e-25        00000 
 2.69846e-26 -1.95461e-25        00000 
-3.72253e-27  4.45824e-26        00000 
 2.15100e-28 -9.59161e-27        00000 
 8.18551e-29  1.97657e-27        00000 
-4.14740e-29 -3.94288e-28        00000 
 1.28184e-29  7.67053e-29        00000 
-3.30942e-30 -1.46313e-29        00000 
 7.74585e-31  2.74737e-30        00000 
-1.70475e-31 -5.09863e-31        00000 
 3.72241e-32  9.65061e-32        00000 
-1.45586e-32 -3.39875e-32        00000 
 9.77327e-26  4.56797e-26        00000 
-2.67960e-25 -1.27699e-25        00000 
 1.30583e-24  6.54382e-25        00000 
-6.10290e-24 -3.34615e-24        00000 
 2.76893e-23  1.33988e-23        00000 
-1.18683e-22 -6.00796e-23        00000 
 3.04866e-22  2.08587e-22        00000 
-8.18203e-22 -7.08489e-22        00000 
 1.78638e-21  1.41935e-21        00000 
-2.52803e-21 -1.53181e-21        00000 
 2.65935e-21  9.90692e-22        00000 
-2.36165e-21 -3.84106e-22        00000 
 1.55248e-21 -1.06801e-22        00000 
-6.22355e-22  3.31164e-22        00000 
 1.48427e-22 -2.47907e-22        00000 
-3.09532e-23  1.06508e-22        00000 
 7.11000e-24 -3.54880e-23        00000 
-1.69671e-24  9.66567e-24        00000 
 3.04443e-25 -2.30805e-24        00000 
-3.46527e-26  5.05872e-25        00000 
-5.06002e-28 -1.04640e-25        00000 
 1.67816e-27  2.07830e-26        00000 
-6.21222e-28 -4.00777e-27        00000 
 1.70457e-28  7.56003e-28        00000 
-4.08377e-29 -1.40223e-28        00000 
 9.03641e-30  2.56684e-29        00000 
-1.89728e-30 -4.64996e-30        00000 
 3.84240e-31  8.36067e-31        00000 
-7.82408e-32 -1.53674e-31        00000 
 2.90734e-32  5.28646e-32        00000 
-1.67315e-25 -7.56194e-26        00000 
 4.94749e-25  2.22875e-25        00000 
-2.71312e-24 -1.22420e-24        00000 
 1.44232e-23  6.88968e-24        00000 
-6.72734e-23 -4.31124e-23        00000 
 3.29428e-22  1.27139e-22        00000 
-1.79743e-21 -8.46844e-22        00000 
 2.40491e-21  2.22486e-21        00000 
-1.14271e-20 -1.07573e-20        00000 
 1.69151e-20  1.07413e-20        00000 
-1.51125e-20 -5.00145e-21        00000 
 1.59069e-20  2.53568e-21        00000 
-9.33320e-21  1.39173e-21        00000 
 1.90078e-21 -2.87531e-21        00000 
-3.22003e-22  1.29991e-21        00000 
 7.00330e-23 -4.52667e-22        00000 
-2.10249e-23  1.19745e-22        00000 