<?xml version="1.0" encoding="utf-8"?>
<VTKFile byte_order="LittleEndian" type="UnstructuredGrid" version="0.1">
   <UnstructuredGrid>
      <Piece NumberOfCells="3364" NumberOfPoints="1741">
         <Points>
            <DataArray Name="Points" NumberOfComponents="3" format="ascii" type="Float32">
0.0000 1.0000 0.0000
0.0000 1.0345 0.0000
0.0000 1.0690 0.0000
0.0000 1.1034 0.0000
0.0000 1.1379 0.0000
0.0000 1.1724 0.0000
0.0000 1.2069 0.0000
0.0000 1.2414 0.0000
0.0000 1.2759 0.0000
0.0000 1.3103 0.0000
0.0000 1.3448 0.0000
0.0000 1.3793 0.0000
0.0000 1.4138 0.0000
0.0000 1.4483 0.0000
0.0000 1.4828 0.0000
0.0000 1.5172 0.0000
0.0000 1.5517 0.0000
0.0000 1.5862 0.0000
0.0000 1.6207 0.0000
0.0000 1.6552 0.0000
0.0000 1.6897 0.0000
0.0000 1.7241 0.0000
0.0000 1.7586 0.0000
0.0000 1.7931 0.0000
0.0000 1.8276 0.0000
0.0000 1.8621 0.0000
0.0000 1.8966 0.0000
0.0000 1.9310 0.0000
0.0000 1.9655 0.0000
0.0000 2.0000 0.0000
0.0690 1.0000 0.0000
0.0690 1.0345 0.0000
0.0690 1.0690 0.0000
0.0690 1.1034 0.0000
0.0690 1.1379 0.0000
0.0690 1.1724 0.0000
0.0690 1.2069 0.0000
0.0690 1.2414 0.0000
0.0690 1.2759 0.0000
0.0690 1.3103 0.0000
0.0690 1.3448 0.0000
0.0690 1.3793 0.0000
0.0690 1.4138 0.0000
0.0690 1.4483 0.0000
0.0690 1.4828 0.0000
0.0690 1.5172 0.0000
0.0690 1.5517 0.0000
0.0690 1.5862 0.0000
0.0690 1.6207 0.0000
0.0690 1.6552 0.0000
0.0690 1.6897 0.0000
0.0690 1.7241 0.0000
0.0690 1.7586 0.0000
0.0690 1.7931 0.0000
0.0690 1.8276 0.0000
0.0690 1.8621 0.0000
0.0690 1.8966 0.0000
0.0690 1.9310 0.0000
0.0690 1.9655 0.0000
0.0690 2.0000 0.0000
0.1379 1.0000 0.0000
0.1379 1.0345 0.0000
0.1379 1.0690 0.0000
0.1379 1.1034 0.0000
0.1379 1.1379 0.0000
0.1379 1.1724 0.0000
0.1379 1.2069 0.0000
0.1379 1.2414 0.0000
0.1379 1.2759 0.0000
0.1379 1.3103 0.0000
0.1379 1.3448 0.0000
0.1379 1.3793 0.0000
0.1379 1.4138 0.0000
0.1379 1.4483 0.0000
0.1379 1.4828 0.0000
0.1379 1.5172 0.0000
0.1379 1.5517 0.0000
0.1379 1.5862 0.0000
0.1379 1.6207 0.0000
0.1379 1.6552 0.0000
0.1379 1.6897 0.0000
0.1379 1.7241 0.0000
0.1379 1.7586 0.0000
0.1379 1.7931 0.0000
0.1379 1.8276 0.0000
0.1379 1.8621 0.0000
0.1379 1.8966 0.0000
0.1379 1.9310 0.0000
0.1379 1.9655 0.0000
0.1379 2.0000 0.0000
0.2069 1.0000 0.0000
0.2069 1.0345 0.0000
0.2069 1.0690 0.0000
0.2069 1.1034 0.0000
0.2069 1.1379 0.0000
0.2069 1.1724 0.0000
0.2069 1.2069 0.0000
0.2069 1.2414 0.0000
0.2069 1.2759 0.0000
0.2069 1.3103 0.0000
0.2069 1.3448 0.0000
0.2069 1.3793 0.0000
0.2069 1.4138 0.0000
0.2069 1.4483 0.0000
0.2069 1.4828 0.0000
0.2069 1.5172 0.0000
0.2069 1.5517 0.0000
0.2069 1.5862 0.0000
0.2069 1.6207 0.0000
0.2069 1.6552 0.0000
0.2069 1.6897 0.0000
0.2069 1.7241 0.0000
0.2069 1.7586 0.0000
0.2069 1.7931 0.0000
0.2069 1.8276 0.0000
0.2069 1.8621 0.0000
0.2069 1.8966 0.0000
0.2069 1.9310 0.0000
0.2069 1.9655 0.0000
0.2069 2.0000 0.0000
0.2759 1.0000 0.0000
0.2759 1.0345 0.0000
0.2759 1.0690 0.0000
0.2759 1.1034 0.0000
0.2759 1.1379 0.0000
0.2759 1.1724 0.0000
0.2759 1.2069 0.0000
0.2759 1.2414 0.0000
0.2759 1.2759 0.0000
0.2759 1.3103 0.0000
0.2759 1.3448 0.0000
0.2759 1.3793 0.0000
0.2759 1.4138 0.0000
0.2759 1.4483 0.0000
0.2759 1.4828 0.0000
0.2759 1.5172 0.0000
0.2759 1.5517 0.0000
0.2759 1.5862 0.0000
0.2759 1.6207 0.0000
0.2759 1.6552 0.0000
0.2759 1.6897 0.0000
0.2759 1.7241 0.0000
0.2759 1.7586 0.0000
0.2759 1.7931 0.0000
0.2759 1.8276 0.0000
0.2759 1.8621 0.0000
0.2759 1.8966 0.0000
0.2759 1.9310 0.0000
0.2759 1.9655 0.0000
0.2759 2.0000 0.0000
0.3448 1.0000 0.0000
0.3448 1.0345 0.0000
0.3448 1.0690 0.0000
0.3448 1.1034 0.0000
0.3448 1.1379 0.0000
0.3448 1.1724 0.0000
0.3448 1.2069 0.0000
0.3448 1.2414 0.0000
0.3448 1.2759 0.0000
0.3448 1.3103 0.0000
0.3448 1.3448 0.0000
0.3448 1.3793 0.0000
0.3448 1.4138 0.0000
0.3448 1.4483 0.0000
0.3448 1.4828 0.0000
0.3448 1.5172 0.0000
0.3448 1.5517 0.0000
0.3448 1.5862 0.0000
0.3448 1.6207 0.0000
0.3448 1.6552 0.0000
0.3448 1.6897 0.0000
0.3448 1.7241 0.0000
0.3448 1.7586 0.0000
0.3448 1.7931 0.0000
0.3448 1.8276 0.0000
0.3448 1.8621 0.0000
0.3448 1.8966 0.0000
0.3448 1.9310 0.0000
0.3448 1.9655 0.0000
0.3448 2.0000 0.0000
0.4138 1.0000 0.0000
0.4138 1.0345 0.0000
0.4138 1.0690 0.0000
0.4138 1.1034 0.0000
0.4138 1.1379 0.0000
0.4138 1.1724 0.0000
0.4138 1.2069 0.0000
0.4138 1.2414 0.0000
0.4138 1.2759 0.0000
0.4138 1.3103 0.0000
0.4138 1.3448 0.0000
0.4138 1.3793 0.0000
0.4138 1.4138 0.0000
0.4138 1.4483 0.0000
0.4138 1.4828 0.0000
0.4138 1.5172 0.0000
0.4138 1.5517 0.0000
0.4138 1.5862 0.0000
0.4138 1.6207 0.0000
0.4138 1.6552 0.0000
0.4138 1.6897 0.0000
0.4138 1.7241 0.0000
0.4138 1.7586 0.0000
0.4138 1.7931 0.0000
0.4138 1.8276 0.0000
0.4138 1.8621 0.0000
0.4138 1.8966 0.0000
0.4138 1.9310 0.0000
0.4138 1.9655 0.0000
0.4138 2.0000 0.0000
0.4828 1.0000 0.0000
0.4828 1.0345 0.0000
0.4828 1.0690 0.0000
0.4828 1.1034 0.0000
0.4828 1.1379 0.0000
0.4828 1.1724 0.0000
0.4828 1.2069 0.0000
0.4828 1.2414 0.0000
0.4828 1.2759 0.0000
0.4828 1.3103 0.0000
0.4828 1.3448 0.0000
0.4828 1.3793 0.0000
0.4828 1.4138 0.0000
0.4828 1.4483 0.0000
0.4828 1.4828 0.0000
0.4828 1.5172 0.0000
0.4828 1.5517 0.0000
0.4828 1.5862 0.0000
0.4828 1.6207 0.0000
0.4828 1.6552 0.0000
0.4828 1.6897 0.0000
0.4828 1.7241 0.0000
0.4828 1.7586 0.0000
0.4828 1.7931 0.0000
0.4828 1.8276 0.0000
0.4828 1.8621 0.0000
0.4828 1.8966 0.0000
0.4828 1.9310 0.0000
0.4828 1.9655 0.0000
0.4828 2.0000 0.0000
0.5517 1.0000 0.0000
0.5517 1.0345 0.0000
0.5517 1.0690 0.0000
0.5517 1.1034 0.0000
0.5517 1.1379 0.0000
0.5517 1.1724 0.0000
0.5517 1.2069 0.0000
0.5517 1.2414 0.0000
0.5517 1.2759 0.0000
0.5517 1.3103 0.0000
0.5517 1.3448 0.0000
0.5517 1.3793 0.0000
0.5517 1.4138 0.0000
0.5517 1.4483 0.0000
0.5517 1.4828 0.0000
0.5517 1.5172 0.0000
0.5517 1.5517 0.0000
0.5517 1.5862 0.0000
0.5517 1.6207 0.0000
0.5517 1.6552 0.0000
0.5517 1.6897 0.0000
0.5517 1.7241 0.0000
0.5517 1.7586 0.0000
0.5517 1.7931 0.0000
0.5517 1.8276 0.0000
0.5517 1.8621 0.0000
0.5517 1.8966 0.0000
0.5517 1.9310 0.0000
0.5517 1.9655 0.0000
0.5517 2.0000 0.0000
0.6207 1.0000 0.0000
0.6207 1.0345 0.0000
0.6207 1.0690 0.0000
0.6207 1.1034 0.0000
0.6207 1.1379 0.0000
0.6207 1.1724 0.0000
0.6207 1.2069 0.0000
0.6207 1.2414 0.0000
0.6207 1.2759 0.0000
0.6207 1.3103 0.0000
0.6207 1.3448 0.0000
0.6207 1.3793 0.0000
0.6207 1.4138 0.0000
0.6207 1.4483 0.0000
0.6207 1.4828 0.0000
0.6207 1.5172 0.0000
0.6207 1.5517 0.0000
0.6207 1.5862 0.0000
0.6207 1.6207 0.0000
0.6207 1.6552 0.0000
0.6207 1.6897 0.0000
0.6207 1.7241 0.0000
0.6207 1.7586 0.0000
0.6207 1.7931 0.0000
0.6207 1.8276 0.0000
0.6207 1.8621 0.0000
0.6207 1.8966 0.0000
0.6207 1.9310 0.0000
0.6207 1.9655 0.0000
0.6207 2.0000 0.0000
0.6897 1.0000 0.0000
0.6897 1.0345 0.0000
0.6897 1.0690 0.0000
0.6897 1.1034 0.0000
0.6897 1.1379 0.0000
0.6897 1.1724 0.0000
0.6897 1.2069 0.0000
0.6897 1.2414 0.0000
0.6897 1.2759 0.0000
0.6897 1.3103 0.0000
0.6897 1.3448 0.0000
0.6897 1.3793 0.0000
0.6897 1.4138 0.0000
0.6897 1.4483 0.0000
0.6897 1.4828 0.0000
0.6897 1.5172 0.0000
0.6897 1.5517 0.0000
0.6897 1.5862 0.0000
0.6897 1.6207 0.0000
0.6897 1.6552 0.0000
0.6897 1.6897 0.0000
0.6897 1.7241 0.0000
0.6897 1.7586 0.0000
0.6897 1.7931 0.0000
0.6897 1.8276 0.0000
0.6897 1.8621 0.0000
0.6897 1.8966 0.0000
0.6897 1.9310 0.0000
0.6897 1.9655 0.0000
0.6897 2.0000 0.0000
0.7586 1.0000 0.0000
0.7586 1.0345 0.0000
0.7586 1.0690 0.0000
0.7586 1.1034 0.0000
0.7586 1.1379 0.0000
0.7586 1.1724 0.0000
0.7586 1.2069 0.0000
0.7586 1.2414 0.0000
0.7586 1.2759 0.0000
0.7586 1.3103 0.0000
0.7586 1.3448 0.0000
0.7586 1.3793 0.0000
0.7586 1.4138 0.0000
0.7586 1.4483 0.0000
0.7586 1.4828 0.0000
0.7586 1.5172 0.0000
0.7586 1.5517 0.0000
0.7586 1.5862 0.0000
0.7586 1.6207 0.0000
0.7586 1.6552 0.0000
0.7586 1.6897 0.0000
0.7586 1.7241 0.0000
0.7586 1.7586 0.0000
0.7586 1.7931 0.0000
0.7586 1.8276 0.0000
0.7586 1.8621 0.0000
0.7586 1.8966 0.0000
0.7586 1.9310 0.0000
0.7586 1.9655 0.0000
0.7586 2.0000 0.0000
0.8276 1.0000 0.0000
0.8276 1.0345 0.0000
0.8276 1.0690 0.0000
0.8276 1.1034 0.0000
0.8276 1.1379 0.0000
0.8276 1.1724 0.0000
0.8276 1.2069 0.0000
0.8276 1.2414 0.0000
0.8276 1.2759 0.0000
0.8276 1.3103 0.0000
0.8276 1.3448 0.0000
0.8276 1.3793 0.0000
0.8276 1.4138 0.0000
0.8276 1.4483 0.0000
0.8276 1.4828 0.0000
0.8276 1.5172 0.0000
0.8276 1.5517 0.0000
0.8276 1.5862 0.0000
0.8276 1.6207 0.0000
0.8276 1.6552 0.0000
0.8276 1.6897 0.0000
0.8276 1.7241 0.0000
0.8276 1.7586 0.0000
0.8276 1.7931 0.0000
0.8276 1.8276 0.0000
0.8276 1.8621 0.0000
0.8276 1.8966 0.0000
0.8276 1.9310 0.0000
0.8276 1.9655 0.0000
0.8276 2.0000 0.0000
0.8966 1.0000 0.0000
0.8966 1.0345 0.0000
0.8966 1.0690 0.0000
0.8966 1.1034 0.0000
0.8966 1.1379 0.0000
0.8966 1.1724 0.0000
0.8966 1.2069 0.0000
0.8966 1.2414 0.0000
0.8966 1.2759 0.0000
0.8966 1.3103 0.0000
0.8966 1.3448 0.0000
0.8966 1.3793 0.0000
0.8966 1.4138 0.0000
0.8966 1.4483 0.0000
0.8966 1.4828 0.0000
0.8966 1.5172 0.0000
0.8966 1.5517 0.0000
0.8966 1.5862 0.0000
0.8966 1.6207 0.0000
0.8966 1.6552 0.0000
0.8966 1.6897 0.0000
0.8966 1.7241 0.0000
0.8966 1.7586 0.0000
0.8966 1.7931 0.0000
0.8966 1.8276 0.0000
0.8966 1.8621 0.0000
0.8966 1.8966 0.0000
0.8966 1.9310 0.0000
0.8966 1.9655 0.0000
0.8966 2.0000 0.0000
0.9655 1.0000 0.0000
0.9655 1.0345 0.0000
0.9655 1.0690 0.0000
0.9655 1.1034 0.0000
0.9655 1.1379 0.0000
0.9655 1.1724 0.0000
0.9655 1.2069 0.0000
0.9655 1.2414 0.0000
0.9655 1.2759 0.0000
0.9655 1.3103 0.0000
0.9655 1.3448 0.0000
0.9655 1.3793 0.0000
0.9655 1.4138 0.0000
0.9655 1.4483 0.0000
0.9655 1.4828 0.0000
0.9655 1.5172 0.0000
0.9655 1.5517 0.0000
0.9655 1.5862 0.0000
0.9655 1.6207 0.0000
0.9655 1.6552 0.0000
0.9655 1.6897 0.0000
0.9655 1.7241 0.0000
0.9655 1.7586 0.0000
0.9655 1.7931 0.0000
0.9655 1.8276 0.0000
0.9655 1.8621 0.0000
0.9655 1.8966 0.0000
0.9655 1.9310 0.0000
0.9655 1.9655 0.0000
0.9655 2.0000 0.0000
1.0345 1.0000 0.0000
1.0345 1.0345 0.0000
1.0345 1.0690 0.0000
1.0345 1.1034 0.0000
1.0345 1.1379 0.0000
1.0345 1.1724 0.0000
1.0345 1.2069 0.0000
1.0345 1.2414 0.0000
1.0345 1.2759 0.0000
1.0345 1.3103 0.0000
1.0345 1.3448 0.0000
[...]
         <PointData>
            <DataArray Name="fValues" NumberOfComponents="3" format="ascii" type="Float64">
 1.64928e-37  1.02259e-36        00000 
-2.31838e-37 -1.48701e-36        00000 
 4.68262e-37  3.18580e-36        00000 
-9.87273e-37 -7.13579e-36        00000 
 1.99233e-36  1.53390e-35        00000 
-3.78241e-36 -3.11295e-35        00000 
 6.72599e-36  5.93784e-35        00000 
-1.11806e-35 -1.06218e-34        00000 
 1.73508e-35  1.77922e-34        00000 
-2.51114e-35 -2.78782e-34        00000 
 3.38675e-35  4.08301e-34        00000 
-4.25407e-35 -5.58691e-34        00000 
 4.97449e-35  7.14041e-34        00000 
-5.41359e-35 -8.52288e-34        00000 
 5.48186e-35  9.50094e-34        00000 
-5.16434e-35 -9.89264e-34        00000 
 4.52583e-35  9.62287e-34        00000 
-3.68913e-35 -8.74694e-34        00000 
 2.79642e-35  7.43199e-34        00000 
-1.97044e-35 -5.90498e-34        00000 
 1.28974e-35  4.38928e-34        00000 
-7.83181e-36 -3.05394e-34        00000 
 4.40235e-36  1.99018e-34        00000 
-2.28195e-36 -1.21566e-34        00000 
 1.08343e-36  6.96679e-35        00000 
-4.65255e-37 -3.75147e-35        00000 
 1.75891e-37  1.90568e-35        00000 
-5.43251e-38 -9.29350e-36        00000 
 9.93072e-39  4.74577e-36        00000 
 6.85601e-40 -3.44017e-36        00000 
-3.77915e-37 -2.27853e-36        00000 
 5.44744e-37  3.39261e-36        00000 
-1.14514e-36 -7.54603e-36        00000 
 2.50154e-36  1.74937e-35        00000 
-5.21301e-36 -3.88428e-35        00000 
 1.01954e-35  8.13013e-35        00000 
-1.86315e-35 -1.59651e-34        00000 
 3.17423e-35  2.93347e-34        00000 
-5.03360e-35 -5.03406e-34        00000 
 7.42043e-35  8.05755e-34        00000 
-1.01596e-34 -1.20181e-33        00000 
 1.29097e-34  1.66937e-33        00000 
-1.52167e-34 -2.15879e-33        00000 
 1.66320e-34  2.59864e-33        00000 
-1.68532e-34 -2.91181e-33        00000 
 1.58297e-34  3.03749e-33        00000 
-1.37805e-34 -2.95051e-33        00000 
 1.11175e-34  2.66955e-33        00000 
-8.31007e-35 -2.25062e-33        00000 
 5.75259e-35  1.76881e-33        00000 
-3.68479e-35 -1.29661e-33        00000 
 2.18053e-35  8.87069e-34        00000 
-1.18871e-35 -5.66822e-34        00000 
 5.93957e-36  3.38578e-34        00000 
-2.69521e-36 -1.89263e-34        00000 
 1.09077e-36  9.91654e-35        00000 
-3.77512e-37 -4.88863e-35        00000 
 9.70973e-38  2.30485e-35        00000 
-3.02318e-39 -1.13231e-35        00000 
-1.77531e-38  8.01225e-36        00000 
 1.52865e-36  8.92114e-36        00000 
-2.27590e-36 -1.36835e-35        00000 
 5.02942e-36  3.18733e-35        00000 
-1.14809e-35 -7.70916e-35        00000 
 2.49005e-35  1.78194e-34        00000 
-5.05340e-35 -3.87584e-34        00000 
 9.55318e-35  7.89111e-34        00000 
-1.67794e-34 -1.49902e-33        00000 
 2.73292e-34  2.65071e-33        00000 
-4.12143e-34 -4.35589e-33        00000 
 5.74837e-34  6.64445e-33        00000 
-7.40885e-34 -9.40143e-33        00000 
 8.81879e-34  1.23341e-32        00000 
-9.69046e-34 -1.50014e-32        00000 
 9.82754e-34  1.69151e-32        00000 
-9.19693e-34 -1.76851e-32        00000 
 7.94127e-34  1.71490e-32        00000 
-6.32596e-34 -1.54286e-32        00000 
 4.64769e-34  1.28842e-32        00000 
-3.14759e-34 -9.99205e-33        00000 
 1.96271e-34  7.20090e-33        00000 
-1.12445e-34 -4.82575e-33        00000 
 5.89532e-35  3.00995e-33        00000 
-2.80793e-35 -1.74908e-33        00000 
 1.19819e-35  9.48096e-34        00000 
-4.44795e-36 -4.80202e-34        00000 
 1.32841e-36  2.28077e-34        00000 
-2.18480e-37 -1.03111e-34        00000 
-1.02185e-37  4.82507e-35        00000 
 1.61650e-37 -3.30886e-35        00000 
-6.27407e-36 -3.56299e-35        00000 
 9.65262e-36  5.62279e-35        00000 
-2.24172e-35 -1.36854e-34        00000 
 5.34866e-35  3.44987e-34        00000 
-1.20853e-34 -8.30224e-34        00000 
 2.54868e-34  1.87817e-33        00000 
-4.99263e-34 -3.97008e-33        00000 
 9.05639e-34  7.80962e-33        00000 
-1.51759e-33 -1.42538e-32        00000 
 2.34487e-33  2.40868e-32        00000 
-3.33609e-33 -3.76306e-32        00000 
 4.36583e-33  5.43032e-32        00000 
-5.25165e-33 -7.23465e-32        00000 
 5.80388e-33  8.89678e-32        00000 
-5.89127e-33 -1.00991e-31        00000 
 5.49155e-33  1.05841e-31        00000 
-4.70035e-33 -1.02443e-31        00000 
 3.69364e-33  9.16104e-32        00000 
-2.66401e-33 -7.57301e-32        00000 
 1.76226e-33  5.79050e-32        00000 
-1.06763e-33 -4.09824e-32        00000 
 5.90646e-34  2.68707e-32        00000 
-2.96752e-34 -1.63379e-32        00000 
 1.33972e-34  9.22298e-33        00000 
-5.31927e-35 -4.84094e-33        00000 
 1.76620e-35  2.36698e-33        00000 
-4.15118e-36 -1.08193e-33        00000 
-4.46685e-38  4.68709e-34        00000 
 9.71579e-37 -2.08800e-34        00000 
-1.07241e-36  1.38604e-34        00000 
 2.49590e-35  1.38644e-34        00000 
-3.97682e-35 -2.25113e-34        00000 
 9.72854e-35  5.72380e-34        00000 
-2.43248e-34 -1.50510e-33        00000 
 5.74413e-34  3.77867e-33        00000 
-1.26328e-33 -8.91646e-33        00000 
 2.57361e-33  1.96341e-32        00000 
-4.83847e-33 -4.01370e-32        00000 
 8.36924e-33  7.58753e-32        00000 
-1.32880e-32 -1.32271e-31        00000 
 1.93313e-32  2.12237e-31        00000 
-2.57358e-32 -3.13086e-31        00000 
 3.13264e-32  4.24347e-31        00000 
-3.48444e-32 -5.28310e-31        00000 
 3.54048e-32  6.04204e-31        00000 
-3.28564e-32 -6.34904e-31        00000 
 2.78463e-32  6.13236e-31        00000 
-2.15499e-32 -5.44703e-31        00000 
 1.52231e-32  4.45214e-31        00000 
-9.80751e-33 -3.35093e-31        00000 
 5.75136e-33  2.32445e-31        00000 
-3.05779e-33 -1.48753e-31        00000 
 1.46229e-33  8.79268e-32        00000 
-6.19014e-34 -4.80740e-32        00000 
 2.23914e-34  2.43547e-32        00000 
-6.27943e-35 -1.14575e-32        00000 
 8.13830e-36  5.02343e-33        00000 
 5.39572e-36 -2.07887e-33        00000 
-6.61997e-36  8.78671e-34        00000 
 6.18684e-36 -5.62850e-34        00000 
-9.56929e-35 -5.23945e-34        00000 
 1.58270e-34  8.74991e-34        00000 
-4.08793e-34 -2.32225e-33        00000 
 1.07413e-33  6.37180e-33        00000 
-2.66026e-33 -1.67177e-32        00000 
 6.12578e-33  4.12689e-32        00000 
-1.30341e-32 -9.50233e-32        00000 
 2.55047e-32  2.02705e-31        00000 
-4.57198e-32 -3.98541e-31        00000 
 7.48559e-32  7.19502e-31        00000 
-1.11688e-31 -1.18976e-30        00000 
 1.51615e-31  1.79924e-30        00000 
-1.87052e-31 -2.48641e-30        00000 
 2.09589e-31  3.13889e-30        00000 
-2.13202e-31 -3.62011e-30        00000 
 1.96860e-31  3.81538e-30        00000 
-1.64980e-31 -3.67643e-30        00000 
 1.25477e-31  3.24080e-30        00000 
-8.65728e-32 -2.61536e-30        00000 
 5.41250e-32  1.93390e-30        00000 
-3.05824e-32 -1.31161e-30        00000 
 1.55294e-32  8.16889e-31        00000 
-7.00390e-33 -4.67881e-31        00000 
 2.73513e-33  2.46875e-31        00000 
-8.67913e-34 -1.20254e-31        00000 
 1.76996e-34  5.42157e-32        00000 
 2.04353e-35 -2.27113e-32        00000 
-4.89697e-35  8.94547e-33        00000 
 3.88322e-35 -3.57381e-33        00000 
-3.24997e-35  2.20135e-33        00000 
 3.52308e-34  1.92207e-33        00000 
-6.06126e-34 -3.29942e-33        00000 
 1.65624e-33  9.12520e-33        00000 
-4.58520e-33 -2.61047e-32        00000 
 1.19526e-32  7.16347e-32        00000 
-2.89418e-32 -1.85460e-31        00000 
 6.46225e-32  4.48245e-31        00000 
-1.32258e-31 -1.00243e-30        00000 
 2.46865e-31  2.05973e-30        00000 
-4.18582e-31 -3.86868e-30        00000 
 6.42846e-31  6.61971e-30        00000 
-8.92349e-31 -1.02978e-29        00000 
 1.11805e-30  1.45484e-29        00000 
-1.26334e-30 -1.86586e-29        00000 
 1.28681e-30  2.17252e-29        00000 
-1.18130e-30 -2.29739e-29        00000 
 9.77344e-31  2.20772e-29        00000 
-7.28684e-31 -1.92935e-29        00000 
 4.89371e-31  1.53469e-29        00000 
-2.95605e-31 -1.11231e-29        00000 
 1.60019e-31  7.35452e-30        00000 
-7.69887e-32 -4.44267e-30        00000 
 3.23251e-32  2.45617e-30        00000 
-1.13400e-32 -1.24545e-30        00000 
 2.91075e-33  5.80723e-31        00000 
-1.86125e-34 -2.49779e-31        00000 
-3.79713e-34  9.95343e-32        00000 
 3.28616e-34 -3.71644e-32        00000 
-2.06399e-34  1.39797e-32        00000 
 1.58125e-34 -8.24997e-33        00000 
-1.24098e-33 -6.84186e-33        00000 
 2.22511e-33  1.20693e-32        00000 
-6.44220e-33 -3.47126e-32        00000 
 1.88326e-32  1.03312e-31        00000 
-5.18432e-32 -2.96293e-31        00000 
 1.32580e-31  8.05666e-31        00000 
-3.12270e-31 -2.05122e-30        00000 
 6.72212e-31  4.83295e-30        00000 
-1.31379e-30 -1.04361e-29        00000 
 2.31895e-30  2.05058e-29        00000 
-3.68207e-30 -3.64893e-29        00000 
 5.24488e-30  5.86362e-29        00000 
-6.69017e-30 -8.49660e-29        00000 
 7.63361e-30  1.10963e-28        00000 
-7.78710e-30 -1.30617e-28        00000 
 7.10067e-30  1.38651e-28        00000 
-5.78780e-30 -1.32820e-28        00000 
 4.21710e-30  1.14927e-28        00000 
-2.74522e-30 -8.99226e-29        00000 
 1.59353e-30  6.37027e-29        00000 
-8.20487e-31 -4.09203e-29        00000 
 3.70023e-31  2.38777e-29        00000 
-1.41816e-31 -1.26844e-29        00000 
 4.25180e-32  6.15068e-30        00000 
-6.85556e-33 -2.73125e-30        00000 
-2.42834e-33  1.11502e-30        00000 
 3.05091e-33 -4.20613e-31        00000 
-1.90398e-33  1.48243e-31        00000 
 1.01295e-33 -5.23022e-32        00000 
-7.16675e-34  2.94628e-32        00000 
 4.16614e-33  2.35978e-32        00000 
-7.79896e-33 -4.28281e-32        00000 
 2.39519e-32  1.27931e-31        00000 
-7.40597e-32 -3.94847e-31        00000 
 2.15893e-31  1.18012e-30        00000 
-5.85508e-31 -3.36834e-30        00000 
 1.46264e-30  9.05603e-30        00000 
-3.33275e-30 -2.25922e-29        00000 
 6.86567e-30  5.15948e-29        00000 
-1.26951e-29 -1.06760e-28        00000 
 2.09561e-29  1.98780e-28        00000 
-3.07666e-29 -3.31689e-28        00000 
 4.00773e-29  4.94982e-28        00000 
-4.62549e-29 -6.60145e-28        00000 
 4.72678e-29  7.86926e-28        00000 
-4.27615e-29 -8.38970e-28        00000 
 3.42514e-29  8.00729e-28        00000 
-2.42938e-29 -6.84946e-28        00000 
 1.52496e-29  5.25830e-28        00000 
-8.44895e-30 -3.62858e-28        00000 
 4.09923e-30  2.25496e-28        00000 
-1.70652e-30 -1.26482e-28        00000 
 5.77457e-31  6.42100e-29        00000 
-1.31350e-31 -2.96025e-29        00000 
-4.91234e-33  1.24450e-29        00000 
 2.70965e-32 -4.79451e-30        00000 
-1.94007e-32  1.70304e-30        00000 
 9.96097e-33 -5.64048e-31        00000 
-4.61780e-33  1.85984e-31        00000 
 3.02521e-33 -9.96613e-32        00000 
-1.32735e-32 -7.85632e-32        00000 
 2.59885e-32  1.47238e-31        00000 
-8.47510e-32 -4.57396e-31        00000 
 2.77503e-31  1.45989e-30        00000 
-8.58275e-31 -4.52481e-30        00000 
 2.47671e-30  1.35058e-29        00000 
-6.59619e-30 -3.83459e-29        00000 
 1.60190e-29  1.01709e-28        00000 
-3.50557e-29 -2.47362e-28        00000 
 6.84338e-29  5.43308e-28        00000 
-1.18261e-28 -1.06662e-27        00000 
 1.79962e-28  1.86029e-27        00000 
-2.40350e-28 -2.87383e-27        00000 
 2.81199e-28  3.92834e-27        00000 
-2.87953e-28 -4.75223e-27        00000 
 2.58053e-28  5.09206e-27        00000 
-2.02448e-28 -4.83875e-27        00000 
 1.39088e-28  4.08380e-27        00000 
-8.36337e-29 -3.06641e-27        00000 
 4.38462e-29  2.05254e-27        00000 
-1.97941e-29 -1.22764e-27        00000 
 7.42857e-30  6.57976e-28        00000 
-2.07553e-30 -3.17137e-28        00000 
 2.17263e-31  1.38064e-28        00000 
 2.11053e-31 -5.45784e-29        00000 
-1.95009e-31  1.97162e-29        00000 
 1.07954e-31 -6.55760e-30        00000 
-4.77527e-32  2.03203e-30        00000 
 1.95391e-32 -6.24256e-31        00000 
-1.18487e-32  3.17270e-31        00000 
 3.99440e-32  2.50701e-31        00000 
-8.19427e-32 -4.88281e-31        00000 
 2.84084e-31  1.58631e-30        00000 
-9.86171e-31 -5.23841e-30        00000 
 3.23963e-30  1.67516e-29        00000 
-9.96650e-30 -5.18982e-29        00000 
 2.84167e-29  1.54901e-28        00000 
-7.40585e-29 -4.37483e-28        00000 
 1.73701e-28  1.14073e-27        00000 
-3.61433e-28 -2.68460e-27        00000 
 6.59733e-28  5.61084e-27        00000 
-1.04825e-27 -1.03158e-26        00000 
 1.44292e-27  1.66077e-26        00000 
-1.71621e-27 -2.33771e-26        00000 
 1.76179e-27  2.87774e-26        00000 
-1.56085e-27 -3.10168e-26        00000 
 1.19415e-27  2.93190e-26        00000 
-7.89560e-28 -2.43531e-26        00000 
 4.50938e-28  1.78144e-26        00000 
-2.21197e-28 -1.15055e-26        00000 
 9.12598e-29  6.58067e-27        00000 
-2.96146e-29 -3.34570e-27        00000 
 5.68214e-30  1.51904e-27        00000 
 1.14857e-30 -6.19474e-28        00000 
-1.86583e-30  2.28503e-28        00000 
 1.16821e-30 -7.68685e-29        00000 
-5.41485e-31  2.38047e-29        00000 
 2.10155e-31 -6.87402e-30        00000 
-7.63537e-32  1.96325e-30        00000 
 4.28068e-32 -9.44370e-31        00000 
-1.12953e-31 -7.59026e-31        00000 
 2.43115e-31  1.54843e-30        00000 
-8.97153e-31 -5.31152e-30        00000 
 3.30772e-30  1.82699e-29        00000 
-1.15547e-29 -6.02465e-29        00000 
 3.79163e-29  1.91993e-28        00000 
-1.15954e-28 -5.95728e-28        00000 
 3.26103e-28  1.78312e-27        00000 
-8.27552e-28 -5.00717e-27        00000 
 1.85688e-27  1.27592e-26        00000 
-3.62176e-27 -2.87395e-26        00000 
 6.06785e-27  5.63278e-26        00000 
-8.66969e-27 -9.53489e-26        00000 
 1.05239e-26  1.39067e-25        00000 
-1.08362e-26 -1.74823e-25        00000 
 9.46457e-27  1.89741e-25        00000 
-7.02000e-27 -1.78199e-25        00000 
 4.42869e-27  1.45201e-25        00000 
-2.37587e-27 -1.02947e-25        00000 
 1.07413e-27  6.37220e-26        00000 
-3.93859e-28 -3.45727e-26        00000 
 1.00939e-28  1.65234e-26        00000 
-2.86107e-30 -7.00000e-27        00000 
-1.62904e-29  2.64914e-27        00000 
 1.23719e-29 -9.04050e-28        00000 
-6.17564e-30  2.81209e-28        00000 
 2.46298e-30 -8.06658e-29        00000 
-8.44591e-31  2.16418e-29        00000 
 2.73509e-31 -5.74158e-30        00000 
-1.41691e-31  2.61157e-30        00000 
 2.98629e-31  2.15432e-30        00000 
-6.74599e-31 -4.63621e-30        00000 
 2.65126e-30  1.69745e-29        00000 
-1.04052e-29 -6.16016e-29        00000 
 3.87545e-29  2.11448e-28        00000 
-1.35739e-28 -6.91238e-28        00000 
 4.44818e-28  2.19448e-27        00000 
-1.35244e-27 -6.85077e-27        00000 
 3.74394e-27  2.06549e-26        00000 
-9.18227e-27 -5.75520e-26        00000 
 1.94294e-26  1.41884e-25        00000 
-3.47896e-26 -3.00988e-25        00000 
 5.21090e-26  5.42291e-25        00000 
-6.49100e-26 -8.26500e-25        00000 
 6.70907e-26  1.06610e-24        00000 
-5.75443e-26 -1.16676e-24        00000 
 4.10387e-26  1.08694e-24        00000 
-2.44130e-26 -8.65044e-25        00000 
 1.21227e-26  5.90458e-25        00000 
-4.94764e-27 -3.47222e-25        00000 
 1.53366e-27  1.76868e-25        00000 
-2.29631e-28 -7.85724e-26        00000 
-1.16234e-28  3.07052e-26        00000 
 1.26180e-28 -1.06690e-26        00000 
-7.00339e-29  3.33824e-27        00000 
 2.91838e-29 -9.53837e-28        00000 
-1.01030e-29  2.52456e-28        00000 
 3.07189e-30 -6.28407e-29        00000 
-8.90631e-31  1.55007e-29        00000 
 4.26860e-31 -6.67050e-30        00000 
-7.34966e-31 -5.66405e-30        00000 
 1.74057e-30  1.29165e-29        00000 
-7.27655e-30 -5.08919e-29        00000 
 3.04368e-29  1.97668e-28        00000 
-1.21317e-28 -7.19675e-28        00000 
 4.55432e-28  2.44708e-27        00000 
-1.59801e-27 -7.88900e-27        00000 
 5.23115e-27  2.49699e-26        00000 
-1.58349e-26 -7.91249e-26        00000 
 4.30218e-26  2.41756e-25        00000 
-1.00715e-25 -6.64477e-25        00000 
 1.96458e-25  1.55841e-24        00000 
-3.12975e-25 -3.04128e-24        00000 
 4.03313e-25  4.90213e-24        00000 
-4.18925e-25 -6.53137e-24        00000 
 3.50807e-25  7.22109e-24        00000 
-2.37658e-25 -6.65716e-24        00000 
 1.31112e-25  5.14398e-24        00000 
-5.91060e-26 -3.34979e-24        00000 
 2.11346e-26  1.84992e-24        00000 
-4.92800e-27 -8.72986e-25        00000 
-3.65588e-28  3.55438e-25        00000 
 1.20060e-27 -1.26399e-25        00000 
-7.85041e-28  3.98545e-26        00000 
 3.47739e-28 -1.13357e-26        00000 
-1.22493e-28  2.96067e-27        00000 
 3.69613e-29 -7.21857e-28        00000 
-1.00115e-29  1.66852e-28        00000 
 2.61579e-30 -3.83757e-29        00000 
-1.16379e-30  1.56568e-29        00000 
 1.67848e-30  1.36518e-29        00000 
-4.15668e-30 -3.30212e-29        00000 
 1.84221e-29  1.40455e-28        00000 
-8.20055e-29 -5.89685e-28        00000 
 3.50394e-28  2.32213e-27        00000 
-1.41870e-27 -8.45174e-27        00000 
 5.37060e-27  2.82869e-26        00000 
-1.88335e-26 -8.91015e-26        00000 
 6.16751e-26  2.82088e-25        00000 
-1.86665e-25 -9.23056e-25        00000 
 4.94967e-25  2.87611e-24        00000 
-1.08164e-24 -7.68745e-24        00000 
 1.87407e-24  1.66867e-23        00000 
-2.53006e-24 -2.89618e-23        00000 
 2.64577e-24  4.02427e-23        00000 
-2.14343e-24 -4.50593e-23        00000 
 1.35358e-24  4.09658e-23        00000 
-6.75975e-25 -3.04739e-23        00000 
 2.70099e-25  1.86965e-23        00000 
-8.06956e-26 -9.54622e-24        00000 
 8.65943e-27  4.10156e-24        00000 
 9.81310e-27 -1.50401e-24        00000 
-8.60118e-27  4.79193e-25        00000 
 4.17108e-27 -1.35532e-25        00000 
-1.50250e-27  3.48195e-26        00000 
 4.50102e-28 -8.29939e-27        00000 
-1.19181e-28  1.86695e-27        00000 
 2.89824e-29 -4.02076e-28        00000 
-6.88505e-30  8.66415e-29        00000 
 2.85893e-30 -3.36311e-29        00000 
-3.54958e-30 -2.99204e-29        00000 
 9.16029e-30  7.65824e-29        00000 
-4.28230e-29 -3.50905e-28        00000 
 2.01957e-28  1.59658e-27        00000 
-9.22316e-28 -6.87604e-27        00000 
 4.03453e-27  2.75039e-26        00000 
-1.66601e-26 -1.00044e-25        00000 
 6.36349e-26  3.26141e-25        00000 
-2.21422e-25 -9.84813e-25        00000 
 7.29504e-25  3.15341e-24        00000 
-2.23031e-24 -1.10104e-23        00000 
 5.69141e-24  3.50067e-23        00000 
-1.11281e-23 -8.82768e-23        00000 
 1.60773e-23  1.69826e-22        00000 
-1.69806e-23 -2.49766e-22        00000 
 1.31040e-23  2.84209e-22        00000 
-7.47039e-24 -2.53428e-22        00000 
 3.25937e-24  1.79231e-22        00000 
-1.13180e-24 -1.01759e-22        00000 
 2.56003e-25  4.70182e-23        00000 
 4.81560e-26 -1.79800e-23        00000 
-8.96175e-26  5.81380e-24        00000 
 5.04885e-26 -1.63287e-24        00000 
-1.87182e-26  4.10689e-25        00000 
 5.53951e-27 -9.51721e-26        00000 
-1.42739e-27  2.07640e-26        00000 
 3.35510e-28 -4.33109e-27        00000 
-7.40501e-29  8.74155e-28        00000 
 1.61665e-29 -1.77614e-28        00000 
-6.30889e-30  6.59050e-29        00000 
 6.94119e-30  5.92799e-29        00000 
-1.85972e-29 -1.59768e-28        00000 
 9.11934e-29  7.83689e-28        00000 
-4.52819e-28 -3.84827e-27        00000 
 2.19485e-27  1.81281e-26        00000 
-1.03079e-26 -8.05380e-26        00000 
 4.64330e-26  3.29553e-25        00000 
-1.96976e-25 -1.20017e-24        00000 
 7.60514e-25  3.74375e-24        00000 
-2.56669e-24 -1.03517e-23        00000 
 8.69876e-24  3.48537e-23        00000 
-2.73845e-23 -1.37550e-22        00000 
 6.46427e-23  4.36722e-22        00000 
-1.04019e-22 -9.81069e-22        00000 
 1.11687e-22  1.56532e-21        00000 
-7.97363e-23 -1.81917e-21        00000 
 3.85658e-23  1.57647e-21        00000 