<?xml version="1.0" encoding="utf-8"?>
<VTKFile byte_order="LittleEndian" type="UnstructuredGrid" version="0.1">
   <UnstructuredGrid>
      <Piece NumberOfCells="3364" NumberOfPoints="1741">
         <Points>
            <DataArray Name="Points" NumberOfComponents="3" format="ascii" type="Float32">
0.0000 1.0000 0.0000
0.0000 1.0345 0.0000
0.0000 1.0690 0.0000
0.0000 1.1034 0.0000
0.0000 1.1379 0.0000
0.0000 1.1724 0.0000
0.0000 1.2069 0.0000
0.0000 1.2414 0.0000
0.0000 1.2759 0.0000
0.0000 1.3103 0.0000
0.0000 1.3448 0.0000
0.0000 1.3793 0.0000
0.0000 1.4138 0.0000
0.0000 1.4483 0.0000
0.0000 1.4828 0.0000
0.0000 1.5172 0.0000
0.0000 1.5517 0.0000
0.0000 1.5862 0.0000
0.0000 1.6207 0.0000
0.0000 1.6552 0.0000
0.0000 1.6897 0.0000
0.0000 1.7241 0.0000
0.0000 1.7586 0.0000
0.0000 1.7931 0.0000
0.0000 1.8276 0.0000
0.0000 1.8621 0.0000
0.0000 1.8966 0.0000
0.0000 1.9310 0.0000
0.0000 1.9655 0.0000
0.0000 2.0000 0.0000
0.0690 1.0000 0.0000
0.0690 1.0345 0.0000
0.0690 1.0690 0.0000
0.0690 1.1034 0.0000
0.0690 1.1379 0.0000
0.0690 1.1724 0.0000
0.0690 1.2069 0.0000
0.0690 1.2414 0.0000
0.0690 1.2759 0.0000
0.0690 1.3103 0.0000
0.0690 1.3448 0.0000
0.0690 1.3793 0.0000
0.0690 1.4138 0.0000
0.0690 1.4483 0.0000
0.0690 1.4828 0.0000
0.0690 1.5172 0.0000
0.0690 1.5517 0.0000
0.0690 1.5862 0.0000
0.0690 1.6207 0.0000
0.0690 1.6552 0.0000
0.0690 1.6897 0.0000
0.0690 1.7241 0.0000
0.0690 1.7586 0.0000
0.0690 1.7931 0.0000
0.0690 1.8276 0.0000
0.0690 1.8621 0.0000
0.0690 1.8966 0.0000
0.0690 1.9310 0.0000
0.0690 1.9655 0.0000
0.0690 2.0000 0.0000
0.1379 1.0000 0.0000
0.1379 1.0345 0.0000
0.1379 1.0690 0.0000
0.1379 1.1034 0.0000
0.1379 1.1379 0.0000
0.1379 1.1724 0.0000
0.1379 1.2069 0.0000
0.1379 1.2414 0.0000
0.1379 1.2759 0.0000
0.1379 1.3103 0.0000
0.1379 1.3448 0.0000
0.1379 1.3793 0.0000
0.1379 1.4138 0.0000
0.1379 1.4483 0.0000
0.1379 1.4828 0.0000
0.1379 1.5172 0.0000
0.1379 1.5517 0.0000
0.1379 1.5862 0.0000
0.1379 1.6207 0.0000
0.1379 1.6552 0.0000
0.1379 1.6897 0.0000
0.1379 1.7241 0.0000
0.1379 1.7586 0.0000
0.1379 1.7931 0.0000
0.1379 1.8276 0.0000
0.1379 1.8621 0.0000
0.1379 1.8966 0.0000
0.1379 1.9310 0.0000
0.1379 1.9655 0.0000
0.1379 2.0000 0.0000
0.2069 1.0000 0.0000
0.2069 1.0345 0.0000
0.2069 1.0690 0.0000
0.2069 1.1034 0.0000
0.2069 1.1379 0.0000
0.2069 1.1724 0.0000
0.2069 1.2069 0.0000
0.2069 1.2414 0.0000
0.2069 1.2759 0.0000
0.2069 1.3103 0.0000
0.2069 1.3448 0.0000
0.2069 1.3793 0.0000
0.2069 1.4138 0.0000
0.2069 1.4483 0.0000
0.2069 1.4828 0.0000
0.2069 1.5172 0.0000
0.2069 1.5517 0.0000
0.2069 1.5862 0.0000
0.2069 1.6207 0.0000
0.2069 1.6552 0.0000
0.2069 1.6897 0.0000
0.2069 1.7241 0.0000
0.2069 1.7586 0.0000
0.2069 1.7931 0.0000
0.2069 1.8276 0.0000
0.2069 1.8621 0.0000
0.2069 1.8966 0.0000
0.2069 1.9310 0.0000
0.2069 1.9655 0.0000
0.2069 2.0000 0.0000
0.2759 1.0000 0.0000
0.2759 1.0345 0.0000
0.2759 1.0690 0.0000
0.2759 1.1034 0.0000
0.2759 1.1379 0.0000
0.2759 1.1724 0.0000
0.2759 1.2069 0.0000
0.2759 1.2414 0.0000
0.2759 1.2759 0.0000
0.2759 1.3103 0.0000
0.2759 1.3448 0.0000
0.2759 1.3793 0.0000
0.2759 1.4138 0.0000
0.2759 1.4483 0.0000
0.2759 1.4828 0.0000
0.2759 1.5172 0.0000
0.2759 1.5517 0.0000
0.2759 1.5862 0.0000
0.2759 1.6207 0.0000
0.2759 1.6552 0.0000
0.2759 1.6897 0.0000
0.2759 1.7241 0.0000
0.2759 1.7586 0.0000
0.2759 1.7931 0.0000
0.2759 1.8276 0.0000
0.2759 1.8621 0.0000
0.2759 1.8966 0.0000
0.2759 1.9310 0.0000
0.2759 1.9655 0.0000
0.2759 2.0000 0.0000
0.3448 1.0000 0.0000
0.3448 1.0345 0.0000
0.3448 1.0690 0.0000
0.3448 1.1034 0.0000
0.3448 1.1379 0.0000
0.3448 1.1724 0.0000
0.3448 1.2069 0.0000
0.3448 1.2414 0.0000
0.3448 1.2759 0.0000
0.3448 1.3103 0.0000
0.3448 1.3448 0.0000
0.3448 1.3793 0.0000
0.3448 1.4138 0.0000
0.3448 1.4483 0.0000
0.3448 1.4828 0.0000
0.3448 1.5172 0.0000
0.3448 1.5517 0.0000
0.3448 1.5862 0.0000
0.3448 1.6207 0.0000
0.3448 1.6552 0.0000
0.3448 1.6897 0.0000
0.3448 1.7241 0.0000
0.3448 1.7586 0.0000
0.3448 1.7931 0.0000
0.3448 1.8276 0.0000
0.3448 1.8621 0.0000
0.3448 1.8966 0.0000
0.3448 1.9310 0.0000
0.3448 1.9655 0.0000
0.3448 2.0000 0.0000
0.4138 1.0000 0.0000
0.4138 1.0345 0.0000
0.4138 1.0690 0.0000
0.4138 1.1034 0.0000
0.4138 1.1379 0.0000
0.4138 1.1724 0.0000
0.4138 1.2069 0.0000
0.4138 1.2414 0.0000
0.4138 1.2759 0.0000
0.4138 1.3103 0.0000
0.4138 1.3448 0.0000
0.4138 1.3793 0.0000
0.4138 1.4138 0.0000
0.4138 1.4483 0.0000
0.4138 1.4828 0.0000
0.4138 1.5172 0.0000
0.4138 1.5517 0.0000
0.4138 1.5862 0.0000
0.4138 1.6207 0.0000
0.4138 1.6552 0.0000
0.4138 1.6897 0.0000
0.4138 1.7241 0.0000
0.4138 1.7586 0.0000
0.4138 1.7931 0.0000
0.4138 1.8276 0.0000
0.4138 1.8621 0.0000
0.4138 1.8966 0.0000
0.4138 1.9310 0.0000
0.4138 1.9655 0.0000
0.4138 2.0000 0.0000
0.4828 1.0000 0.0000
0.4828 1.0345 0.0000
0.4828 1.0690 0.0000
0.4828 1.1034 0.0000
0.4828 1.1379 0.0000
0.4828 1.1724 0.0000
0.4828 1.2069 0.0000
0.4828 1.2414 0.0000
0.4828 1.2759 0.0000
0.4828 1.3103 0.0000
0.4828 1.3448 0.0000
0.4828 1.3793 0.0000
0.4828 1.4138 0.0000
0.4828 1.4483 0.0000
0.4828 1.4828 0.0000
0.4828 1.5172 0.0000
0.4828 1.5517 0.0000
0.4828 1.5862 0.0000
0.4828 1.6207 0.0000
0.4828 1.6552 0.0000
0.4828 1.6897 0.0000
0.4828 1.7241 0.0000
0.4828 1.7586 0.0000
0.4828 1.7931 0.0000
0.4828 1.8276 0.0000
0.4828 1.8621 0.0000
0.4828 1.8966 0.0000
0.4828 1.9310 0.0000
0.4828 1.9655 0.0000
0.4828 2.0000 0.0000
0.5517 1.0000 0.0000
0.5517 1.0345 0.0000
0.5517 1.0690 0.0000
0.5517 1.1034 0.0000
0.5517 1.1379 0.0000
0.5517 1.1724 0.0000
0.5517 1.2069 0.0000
0.5517 1.2414 0.0000
0.5517 1.2759 0.0000
0.5517 1.3103 0.0000
0.5517 1.3448 0.0000
0.5517 1.3793 0.0000
0.5517 1.4138 0.0000
0.5517 1.4483 0.0000
0.5517 1.4828 0.0000
0.5517 1.5172 0.0000
0.5517 1.5517 0.0000
0.5517 1.5862 0.0000
0.5517 1.6207 0.0000
0.5517 1.6552 0.0000
0.5517 1.6897 0.0000
0.5517 1.7241 0.0000
0.5517 1.7586 0.0000
0.5517 1.7931 0.0000
0.5517 1.8276 0.0000
0.5517 1.8621 0.0000
0.5517 1.8966 0.0000
0.5517 1.9310 0.0000
0.5517 1.9655 0.0000
0.5517 2.0000 0.0000
0.6207 1.0000 0.0000
0.6207 1.0345 0.0000
0.6207 1.0690 0.0000
0.6207 1.1034 0.0000
0.6207 1.1379 0.0000
0.6207 1.1724 0.0000
0.6207 1.2069 0.0000
0.6207 1.2414 0.0000
0.6207 1.2759 0.0000
0.6207 1.3103 0.0000
0.6207 1.3448 0.0000
0.6207 1.3793 0.0000
0.6207 1.4138 0.0000
0.6207 1.4483 0.0000
0.6207 1.4828 0.0000
0.6207 1.5172 0.0000
0.6207 1.5517 0.0000
0.6207 1.5862 0.0000
0.6207 1.6207 0.0000
0.6207 1.6552 0.0000
0.6207 1.6897 0.0000
0.6207 1.7241 0.0000
0.6207 1.7586 0.0000
0.6207 1.7931 0.0000
0.6207 1.8276 0.0000
0.6207 1.8621 0.0000
0.6207 1.8966 0.0000
0.6207 1.9310 0.0000
0.6207 1.9655 0.0000
0.6207 2.0000 0.0000
0.6897 1.0000 0.0000
0.6897 1.0345 0.0000
0.6897 1.0690 0.0000
0.6897 1.1034 0.0000
0.6897 1.1379 0.0000
0.6897 1.1724 0.0000
0.6897 1.2069 0.0000
0.6897 1.2414 0.0000
0.6897 1.2759 0.0000
0.6897 1.3103 0.0000
0.6897 1.3448 0.0000
0.6897 1.3793 0.0000
0.6897 1.4138 0.0000
0.6897 1.4483 0.0000
0.6897 1.4828 0.0000
0.6897 1.5172 0.0000
0.6897 1.5517 0.0000
0.6897 1.5862 0.0000
0.6897 1.6207 0.0000
0.6897 1.6552 0.0000
0.6897 1.6897 0.0000
0.6897 1.7241 0.0000
0.6897 1.7586 0.0000
0.6897 1.7931 0.0000
0.6897 1.8276 0.0000
0.6897 1.8621 0.0000
0.6897 1.8966 0.0000
0.6897 1.9310 0.0000
0.6897 1.9655 0.0000
0.6897 2.0000 0.0000
0.7586 1.0000 0.0000
0.7586 1.0345 0.0000
0.7586 1.0690 0.0000
0.7586 1.1034 0.0000
0.7586 1.1379 0.0000
0.7586 1.1724 0.0000
0.7586 1.2069 0.0000
0.7586 1.2414 0.0000
0.7586 1.2759 0.0000
0.7586 1.3103 0.0000
0.7586 1.3448 0.0000
0.7586 1.3793 0.0000
0.7586 1.4138 0.0000
0.7586 1.4483 0.0000
0.7586 1.4828 0.0000
0.7586 1.5172 0.0000
0.7586 1.5517 0.0000
0.7586 1.5862 0.0000
0.7586 1.6207 0.0000
0.7586 1.6552 0.0000
0.7586 1.6897 0.0000
0.7586 1.7241 0.0000
0.7586 1.7586 0.0000
0.7586 1.7931 0.0000
0.7586 1.8276 0.0000
0.7586 1.8621 0.0000
0.7586 1.8966 0.0000
0.7586 1.9310 0.0000
0.7586 1.9655 0.0000
0.7586 2.0000 0.0000
0.8276 1.0000 0.0000
0.8276 1.0345 0.0000
0.8276 1.0690 0.0000
0.8276 1.1034 0.0000
0.8276 1.1379 0.0000
0.8276 1.1724 0.0000
0.8276 1.2069 0.0000
0.8276 1.2414 0.0000
0.8276 1.2759 0.0000
0.8276 1.3103 0.0000
0.8276 1.3448 0.0000
0.8276 1.3793 0.0000
0.8276 1.4138 0.0000
0.8276 1.4483 0.0000
0.8276 1.4828 0.0000
0.8276 1.5172 0.0000
0.8276 1.5517 0.0000
0.8276 1.5862 0.0000
0.8276 1.6207 0.0000
0.8276 1.6552 0.0000
0.8276 1.6897 0.0000
0.8276 1.7241 0.0000
0.8276 1.7586 0.0000
0.8276 1.7931 0.0000
0.8276 1.8276 0.0000
0.8276 1.8621 0.0000
0.8276 1.8966 0.0000
0.8276 1.9310 0.0000
0.8276 1.9655 0.0000
0.8276 2.0000 0.0000
0.8966 1.0000 0.0000
0.8966 1.0345 0.0000
0.8966 1.0690 0.0000
0.8966 1.1034 0.0000
0.8966 1.1379 0.0000
0.8966 1.1724 0.0000
0.8966 1.2069 0.0000
0.8966 1.2414 0.0000
0.8966 1.2759 0.0000
0.8966 1.3103 0.0000
0.8966 1.3448 0.0000
0.8966 1.3793 0.0000
0.8966 1.4138 0.0000
0.8966 1.4483 0.0000
0.8966 1.4828 0.0000
0.8966 1.5172 0.0000
0.8966 1.5517 0.0000
0.8966 1.5862 0.0000
0.8966 1.6207 0.0000
0.8966 1.6552 0.0000
0.8966 1.6897 0.0000
0.8966 1.7241 0.0000
0.8966 1.7586 0.0000
0.8966 1.7931 0.0000
0.8966 1.8276 0.0000
0.8966 1.8621 0.0000
0.8966 1.8966 0.0000
0.8966 1.9310 0.0000
0.8966 1.9655 0.0000
0.8966 2.0000 0.0000
0.9655 1.0000 0.0000
0.9655 1.0345 0.0000
0.9655 1.0690 0.0000
0.9655 1.1034 0.0000
0.9655 1.1379 0.0000
0.9655 1.1724 0.0000
0.9655 1.2069 0.0000
0.9655 1.2414 0.0000
0.9655 1.2759 0.0000
0.9655 1.3103 0.0000
0.9655 1.3448 0.0000
0.9655 1.3793 0.0000
0.9655 1.4138 0.0000
0.9655 1.4483 0.0000
0.9655 1.4828 0.0000
0.9655 1.5172 0.0000
0.9655 1.5517 0.0000
0.9655 1.5862 0.0000
0.9655 1.6207 0.0000
0.9655 1.6552 0.0000
0.9655 1.6897 0.0000
0.9655 1.7241 0.0000
0.9655 1.7586 0.0000
0.9655 1.7931 0.0000
0.9655 1.8276 0.0000
0.9655 1.8621 0.0000
0.9655 1.8966 0.0000
0.9655 1.9310 0.0000
0.9655 1.9655 0.0000
0.9655 2.0000 0.0000
1.0345 1.0000 0.0000
1.0345 1.0345 0.0000
1.0345 1.0690 0.0000
1.0345 1.1034 0.0000
1.0345 1.1379 0.0000
1.0345 1.1724 0.0000
1.0345 1.2069 0.0000
1.0345 1.2414 0.0000
1.0345 1.2759 0.0000
1.0345 1.3103 0.0000
1.0345 1.3448 0.0000
[...]
         <PointData>
            <DataArray Name="fValues" NumberOfComponents="3" format="ascii" type="Float64">
-9.01535e-39  8.51089e-39        00000 
 1.59824e-38 -1.46157e-38        00000 
-4.59086e-38  4.01097e-38        00000 
 1.34971e-37 -1.12832e-37        00000 
-3.79859e-37  3.03393e-37        00000 
 1.01466e-36 -7.72497e-37        00000 
-2.56527e-36  1.85719e-36        00000 
 6.12626e-36 -4.20736e-36        00000 
-1.37962e-35  8.96637e-36        00000 
 2.92536e-35 -1.79492e-35        00000 
-5.83322e-35  3.37096e-35        00000 
 1.09265e-34 -5.93325e-35        00000 
-1.92094e-34  9.77866e-35        00000 
 3.16722e-34 -1.50797e-34        00000 
-4.89450e-34  2.17452e-34        00000 
 7.08571e-34 -2.93057e-34        00000 
-9.60552e-34  3.68937e-34        00000 
 1.21891e-33 -4.33688e-34        00000 
-1.44750e-33  4.75830e-34        00000 
 1.60829e-33 -4.87093e-34        00000 
-1.67161e-33  4.65050e-34        00000 
 1.62515e-33 -4.13970e-34        00000 
-1.47791e-33  3.43468e-34        00000 
 1.25749e-33 -2.65560e-34        00000 
-1.00202e-33  1.91358e-34        00000 
 7.50018e-34 -1.28674e-34        00000 
-5.32352e-34  8.12175e-35        00000 
 3.68671e-34 -4.92838e-35        00000 
-2.68477e-34  3.13143e-35        00000 
 2.34902e-34 -2.55660e-35        00000 
 1.66636e-38 -1.62249e-38        00000 
-3.04613e-38  2.87356e-38        00000 
 9.12440e-38 -8.23035e-38        00000 
-2.78817e-37  2.40745e-37        00000 
 8.14949e-37 -6.72348e-37        00000 
-2.25968e-36  1.77673e-36        00000 
 5.92574e-36 -4.42857e-36        00000 
-1.46617e-35  1.03869e-35        00000 
 3.41570e-35 -2.28770e-35        00000 
-7.47907e-35  4.72317e-35        00000 
 1.53683e-34 -9.12719e-35        00000 
-2.95974e-34  1.64878e-34        00000 
 5.33657e-34 -2.78131e-34        00000 
-9.00040e-34  4.37742e-34        00000 
 1.41883e-33 -6.42308e-34        00000 
-2.08931e-33  8.78111e-34        00000 
 2.87253e-33 -1.11787e-33        00000 
-3.68586e-33  1.32452e-33        00000 
 4.41247e-33 -1.45996e-33        00000 
-4.92699e-33  1.49641e-33        00000 
 5.13042e-33 -1.42564e-33        00000 
-4.98130e-33  1.26195e-33        00000 
 4.50963e-33 -1.03752e-33        00000 
-3.80746e-33  7.92037e-34        00000 
 3.00034e-33 -5.61426e-34        00000 
-2.21259e-33  3.69886e-34        00000 
 1.54035e-33 -2.27663e-34        00000 
-1.04094e-33  1.33875e-34        00000 
 7.38325e-34 -8.20280e-35        00000 
-6.37512e-34  6.56198e-35        00000 
-5.07035e-38  5.14802e-38        00000 
 9.66668e-38 -9.50708e-38        00000 
-3.06176e-37  2.88066e-37        00000 
 9.84483e-37 -8.86665e-37        00000 
-3.02364e-36  2.60101e-36        00000 
 8.80047e-36 -7.21001e-36        00000 
-2.41907e-35  1.88200e-35        00000 
 6.26245e-35 -4.61285e-35        00000 
-1.52309e-34  1.05907e-34        00000 
 3.47275e-34 -2.27287e-34        00000 
-7.40965e-34  4.55134e-34        00000 
 1.47721e-33 -8.49137e-34        00000 
-2.74826e-33  1.47420e-33        00000 
 4.76647e-33 -2.37920e-33        00000 
-7.69995e-33  3.56646e-33        00000 
 1.15779e-32 -4.96205e-33        00000 
-1.61950e-32  6.40368e-33        00000 
 2.10640e-32 -7.66122e-33        00000 
-2.54652e-32  8.49252e-33        00000 
 2.86070e-32 -8.71821e-33        00000 
-2.98551e-32  8.28433e-33        00000 
 2.89414e-32 -7.28314e-33        00000 
-2.60585e-32  5.92129e-33        00000 
 2.17954e-32 -4.45026e-33        00000 
-1.69449e-32  3.09138e-33        00000 
 1.22729e-32 -1.98611e-33        00000 
-8.34622e-33  1.18511e-33        00000 
 5.47407e-33 -6.70325e-34        00000 
-3.75647e-33  3.92250e-34        00000 
 3.18866e-33 -3.05491e-34        00000 
 1.57242e-37 -1.66118e-37        00000 
-3.12149e-37  3.19503e-37        00000 
 1.04254e-36 -1.02177e-36        00000 
-3.52164e-36  3.30525e-36        00000 
 1.13562e-35 -1.01801e-35        00000 
-3.46896e-35  2.96073e-35        00000 
 9.99889e-35 -8.09892e-35        00000 
-2.71050e-34  2.07675e-34        00000 
 6.88991e-34 -4.97725e-34        00000 
-1.63807e-33  1.11208e-33        00000 
 3.63459e-33 -2.31145e-33        00000 
-7.51267e-33  4.46128e-33        00000 
 1.44442e-32 -7.98401e-33        00000 
-2.57997e-32  1.32327e-32        00000 
 4.27686e-32 -2.02911e-32        00000 
-6.57460e-32  2.87630e-32        00000 
 9.36619e-32 -3.76635e-32        00000 
-1.23587e-31  4.55282e-32        00000 
 1.50978e-31 -5.07750e-32        00000 
-1.70701e-31  5.22127e-32        00000 
 1.78577e-31 -4.94774e-32        00000 
-1.72822e-31  4.31812e-32        00000 
 1.54709e-31 -3.46898e-32        00000 
-1.28117e-31  2.56396e-32        00000 
 9.81959e-32 -1.74298e-32        00000 
-6.97901e-32  1.09019e-32        00000 
 4.63161e-32 -6.29541e-33        00000 
-2.94437e-32  3.41844e-33        00000 
 1.95045e-32 -1.90465e-33        00000 
-1.62480e-32  1.44008e-33        00000 
-4.65882e-37  5.12361e-37        00000 
 9.63845e-37 -1.02773e-36        00000 
-3.39680e-36  3.47281e-36        00000 
 1.20726e-35 -1.18287e-35        00000 
-4.09676e-35  3.83506e-35        00000 
 1.31712e-34 -1.17388e-34        00000 
-3.99410e-34  3.37697e-34        00000 
 1.13787e-33 -9.09371e-34        00000 
-3.03455e-33  2.28405e-33        00000 
 7.55204e-33 -5.33410e-33        00000 
-1.74922e-32  1.15520e-32        00000 
 3.76242e-32 -2.31492e-32        00000 
-7.50130e-32  4.28470e-32        00000 
 1.38422e-31 -7.31446e-32        00000 
-2.36128e-31  1.15029e-31        00000 
 3.72005e-31 -1.66483e-31        00000 
-5.40838e-31  2.21567e-31        00000 
 7.25154e-31 -2.70947e-31        00000 
-8.96229e-31  3.04231e-31        00000 
 1.02061e-30 -3.13445e-31        00000 
-1.07056e-30  2.96116e-31        00000 
 1.03413e-30 -2.56333e-31        00000 
-9.19816e-31  2.03187e-31        00000 
 7.53347e-31 -1.47389e-31        00000 
-5.68368e-31  9.77932e-32        00000 
 3.95630e-31 -5.93576e-32        00000 
-2.55634e-31  3.30469e-32        00000 
 1.57047e-31 -1.71526e-32        00000 
-1.00004e-31  9.04622e-33        00000 
 8.15136e-32 -6.60780e-33        00000 
 1.30610e-36 -1.49645e-36        00000 
-2.81917e-36  3.13552e-36        00000 
 1.04938e-35 -1.12117e-35        00000 
-3.93120e-35  4.02986e-35        00000 
 1.40745e-34 -1.37937e-34        00000 
-4.77798e-34  4.45937e-34        00000 
 1.53012e-33 -1.35458e-33        00000 
-4.60056e-33  3.84764e-33        00000 
 1.29301e-32 -1.01750e-32        00000 
-3.38396e-32  2.49537e-32        00000 
 8.21946e-32 -5.65672e-32        00000 
-1.84781e-31  1.18204e-31        00000 
 3.83607e-31 -2.27184e-31        00000 
-7.34075e-31  4.00894e-31        00000 
 1.29295e-30 -6.48584e-31        00000 
-2.09368e-30  9.60915e-31        00000 
 3.11398e-30 -1.30244e-30        00000 
-4.25085e-30  1.61361e-30        00000 
 5.32268e-30 -1.82579e-30        00000 
-6.11043e-30  1.88521e-30        00000 
 6.42888e-30 -1.77489e-30        00000 
-6.19728e-30  1.52236e-30        00000 
 5.47261e-30 -1.18859e-30        00000 
-4.42701e-30  8.44057e-31        00000 
 3.28157e-30 -5.44823e-31        00000 
-2.23190e-30  3.19613e-31        00000 
 1.40015e-30 -1.70753e-31        00000 
-8.28333e-31  8.42623e-32        00000 
 5.04512e-31 -4.17710e-32        00000 
-4.00919e-31  2.93011e-32        00000 
-3.44782e-36  4.11671e-36        00000 
 7.76946e-36 -9.02240e-36        00000 
-3.05600e-35  3.41762e-35        00000 
 1.20844e-34 -1.29882e-34        00000 
-4.57502e-34  4.70643e-34        00000 
 1.64506e-33 -1.61268e-33        00000 
-5.58518e-33  5.19438e-33        00000 
 1.78029e-32 -1.56376e-32        00000 
-5.29944e-32  4.37648e-32        00000 
 1.46612e-31 -1.13317e-31        00000 
-3.75411e-31  2.70315e-31        00000 
 8.86614e-31 -5.92031e-31        00000 
-1.92587e-30  1.18715e-30        00000 
 3.83886e-30 -2.17466e-30        00000 
-7.00938e-30  3.63285e-30        00000 
 1.17069e-29 -5.52669e-30        00000 
-1.78649e-29  7.64779e-30        00000 
 2.48867e-29 -9.61632e-30        00000 
-3.16248e-29  1.09764e-29        00000 
 3.66381e-29 -1.13624e-29        00000 
-3.86799e-29  1.06562e-29        00000 
 3.71995e-29 -9.04493e-30        00000 
-3.25832e-29  6.94100e-30        00000 
 2.59915e-29 -4.81066e-30        00000 
-1.88868e-29  3.00868e-30        00000 
 1.25154e-29 -1.69735e-30        00000 
-7.59702e-30  8.65084e-31        00000 
 4.31031e-30 -4.03224e-31        00000 
-2.49663e-30  1.86367e-31        00000 
 1.92570e-30 -1.24652e-31        00000 
 8.53211e-36 -1.06106e-35        00000 
-2.00732e-35  2.43466e-35        00000 
 8.34126e-35 -9.77585e-35        00000 
-3.48435e-34  3.93404e-34        00000 
 1.39736e-33 -1.51274e-33        00000 
-5.33650e-33  5.51189e-33        00000 
 1.92796e-32 -1.89040e-32        00000 
-6.54546e-32  6.06194e-32        00000 
 2.07472e-31 -1.80567e-31        00000 
-6.10315e-31  4.96600e-31        00000 
 1.65742e-30 -1.25431e-30        00000 
-4.13688e-30  2.89663e-30        00000 
 9.45610e-30 -6.09421e-30        00000 
-1.97383e-29  1.16482e-29        00000 
 3.75401e-29 -2.01823e-29        00000 
-6.49389e-29  3.16454e-29        00000 
 1.02033e-28 -4.48402e-29        00000 
-1.45454e-28  5.73468e-29        00000 
 1.87969e-28 -6.61194e-29        00000 
-2.20046e-28  6.86465e-29        00000 
 2.33223e-28 -6.40981e-29        00000 
-2.23704e-28  5.37581e-29        00000 
 1.94133e-28 -4.04413e-29        00000 
-1.52408e-28  2.72525e-29        00000 
 1.08265e-28 -1.64314e-29        00000 
-6.96550e-29  8.85839e-30        00000 
 4.07436e-29 -4.27523e-30        00000 
-2.20623e-29  1.86699e-30        00000 
 1.20719e-29 -7.97105e-31        00000 
-8.98917e-30  5.04217e-31        00000 
-1.97092e-35  2.54782e-35        00000 
 4.83767e-35 -6.12378e-35        00000 
-2.12151e-34  2.60675e-34        00000 
 9.36126e-34 -1.11189e-33        00000 
-3.98050e-33  4.54528e-33        00000 
 1.61781e-32 -1.76599e-32        00000 
-6.23985e-32  6.47440e-32        00000 
 2.26654e-31 -2.22261e-31        00000 
-7.69331e-31  7.08899e-31        00000 
 2.42197e-30 -2.08490e-30        00000 
-7.02414e-30  5.61564e-30        00000 
 1.86591e-29 -1.37719e-29        00000 
-4.51887e-29  3.06075e-29        00000 
 9.94066e-29 -6.14203e-29        00000 
-1.98066e-28  1.10979e-28        00000 
 3.56665e-28 -1.80172e-28        00000 
-5.79458e-28  2.62369e-28        00000 
 8.48226e-28 -3.42194e-28        00000 
-1.11754e-27  3.99176e-28        00000 
 1.32404e-27 -4.15878e-28        00000 
-1.40971e-27  3.86378e-28        00000 
 1.34808e-27 -3.19584e-28        00000 
-1.15746e-27  2.34915e-28        00000 
 8.92146e-28 -1.53184e-28        00000 
-6.17430e-28  8.84694e-29        00000 
 3.84012e-28 -4.52099e-29        00000 
-2.15354e-28  2.04638e-29        00000 
 1.10647e-28 -8.28720e-30        00000 
-5.67517e-29  3.23490e-30        00000 
 4.05305e-29 -1.91890e-30        00000 
 4.23321e-35 -5.66387e-35        00000 
-1.08238e-34  1.42623e-34        00000 
 4.99929e-34 -6.43403e-34        00000 
-2.32779e-33  2.90995e-33        00000 
 1.04931e-32 -1.26604e-32        00000 
-4.54319e-32  5.25626e-32        00000 
 1.87521e-31 -2.06673e-31        00000 
-7.31670e-31  7.63142e-31        00000 
 2.67435e-30 -2.62236e-30        00000 
-9.07295e-30  8.30863e-30        00000 
 2.83223e-29 -2.40605e-29        00000 
-8.07342e-29  6.31928e-29        00000 
 2.08851e-28 -1.49580e-28        00000 
-4.87929e-28  3.17540e-28        00000 
 1.02569e-27 -6.02364e-28        00000 
-1.93464e-27  1.01830e-27        00000 
 3.26715e-27 -1.53085e-27        00000 
-4.93166e-27  2.04292e-27        00000 
 6.64495e-27 -2.41601e-27        00000 
-7.98355e-27  2.52760e-27        00000 
 8.54533e-27 -2.33474e-27        00000 
-8.14321e-27  1.89999e-27        00000 
 6.90546e-27 -1.35898e-27        00000 
-5.20992e-27  8.52242e-28        00000 
 3.49779e-27 -4.67537e-28        00000 
-2.09161e-27  2.24065e-28        00000 
 1.11743e-27 -9.39210e-29        00000 
-5.40906e-28  3.48108e-29        00000 
 2.57729e-28 -1.22953e-29        00000 
-1.75133e-28  6.79821e-30        00000 
-8.42473e-35  1.15711e-34        00000 
 2.23841e-34 -3.05268e-34        00000 
-1.08559e-33  1.45849e-33        00000 
 5.32215e-33 -6.99341e-33        00000 
-2.53971e-32  3.23961e-32        00000 
 1.17096e-31 -1.43898e-31        00000 
-5.17742e-31  6.08284e-31        00000 
 2.17616e-30 -2.42557e-30        00000 
-8.60793e-30  9.03232e-30        00000 
 3.16931e-29 -3.10674e-29        00000 
-1.07418e-28  9.76143e-29        00000 
 3.31753e-28 -2.77307e-28        00000 
-9.25758e-28  7.06123e-28        00000 
 2.31878e-27 -1.60081e-27        00000 
-5.18756e-27  3.21506e-27        00000 
 1.03282e-26 -5.70003e-27        00000 
-1.82494e-26  8.89714e-27        00000 
 2.85567e-26 -1.21999e-26        00000 
-3.95060e-26  1.46653e-26        00000 
 4.82521e-26 -1.54205e-26        00000 
-5.19733e-26  1.41478e-26        00000 
 4.93255e-26 -1.12932e-26        00000 
-4.12208e-26  7.81743e-27        00000 
 3.03244e-26 -4.67646e-27        00000 
-1.96424e-26  2.40965e-27        00000 
 1.12149e-26 -1.06734e-27        00000 
-5.66168e-27  4.07216e-28        00000 
 2.55942e-27 -1.35835e-28        00000 
-1.12113e-27  4.31094e-29        00000 
 7.17993e-28 -2.23212e-29        00000 
 1.54933e-34 -2.15203e-34        00000 
-4.26277e-34  5.94951e-34        00000 
 2.16165e-33 -3.00871e-33        00000 
-1.11191e-32  1.52888e-32        00000 
 5.60063e-32 -7.53963e-32        00000 
-2.74407e-31  3.58432e-31        00000 
 1.29870e-30 -1.63107e-30        00000 
-5.88632e-30  7.04340e-30        00000 
 2.52847e-29 -2.85615e-29        00000 
-1.01675e-28  1.07436e-28        00000 
 3.77580e-28 -3.69861e-28        00000 
-1.27751e-27  1.14967e-27        00000 
 3.89149e-27 -3.18790e-27        00000 
-1.05733e-26  7.80985e-27        00000 
 2.54506e-26 -1.67857e-26        00000 
-5.40091e-26  3.14980e-26        00000 
 1.00685e-25 -5.14249e-26        00000 
-1.64435e-25  7.28494e-26        00000 
 2.34747e-25 -8.93152e-26        00000 
-2.92417e-25  9.45048e-26        00000 
 3.17362e-25 -8.60159e-26        00000 
-2.99739e-25  6.70786e-26        00000 
 2.46147e-25 -4.46126e-26        00000 
-1.75685e-25  2.51748e-26        00000 
 1.09016e-25 -1.19934e-26        00000 
-5.88952e-26  4.80942e-27        00000 
 2.78034e-26 -1.63002e-27        00000 
-1.16091e-26  4.79517e-28        00000 
 4.61938e-27 -1.37848e-28        00000 
-2.75741e-27  6.93360e-29        00000 
-2.62891e-34  3.59417e-34        00000 
 7.45535e-34 -1.04254e-33        00000 
-3.93112e-33  5.58158e-33        00000 
 2.11104e-32 -3.00550e-32        00000 
-1.11720e-31  1.57742e-31        00000 
 5.79364e-31 -8.02434e-31        00000 
-2.92620e-30  3.93207e-30        00000 
 1.42817e-29 -1.84137e-29        00000 
-6.66827e-29  8.15789e-29        00000 
 2.94117e-28 -3.37634e-28        00000 
-1.20683e-27  1.28574e-27        00000 
 4.52781e-27 -4.42918e-27        00000 
-1.52731e-26  1.35728e-26        00000 
 4.56839e-26 -3.64769e-26        00000 
-1.19976e-25  8.50792e-26        00000 
 2.74794e-25 -1.71019e-25        00000 
-5.46326e-25  2.94894e-25        00000 
 9.39453e-25 -4.34702e-25        00000 
-1.39321e-24  5.46044e-25        00000 
 1.77754e-24 -5.82376e-25        00000 
-1.94719e-24  5.25022e-25        00000 
 1.82839e-24 -3.97848e-25        00000 
-1.46986e-24  2.51673e-25        00000 
 1.01107e-24 -1.31846e-25        00000 
-5.95342e-25  5.67381e-26        00000 
 3.00705e-25 -1.99628e-26        00000 
-1.30942e-25  5.80149e-27        00000 
 4.98022e-26 -1.47918e-27        00000 
-1.77619e-26  4.08904e-28        00000 
 9.76392e-27 -2.20673e-28        00000 
 4.11772e-34 -5.26751e-34        00000 
-1.19643e-33  1.60985e-33        00000 
 6.51318e-33 -9.14898e-33        00000 
-3.62682e-32  5.22801e-32        00000 
 2.00333e-31 -2.92201e-31        00000 
-1.09273e-30  1.59060e-30        00000 
 5.85703e-30 -8.39181e-30        00000 
-3.06466e-29  4.26275e-29        00000 
 1.55163e-28 -2.06635e-28        00000 
-7.51216e-28  9.44614e-28        00000 
 3.42443e-27 -4.00995e-27        00000 
-1.44130e-26  1.55057e-26        00000 
 5.47443e-26 -5.34214e-26        00000 
-1.83688e-25  1.60543e-25        00000 
 5.36042e-25 -4.13949e-25        00000 
-1.34713e-24  9.05906e-25        00000 
 2.89718e-24 -1.67161e-24        00000 
-5.30734e-24  2.58926e-24        00000 
 8.24947e-24 -3.35319e-24        00000 
-1.08432e-23  3.61344e-24        00000 
 1.20176e-23 -3.21997e-24        00000 
-1.12042e-23  2.35317e-24        00000 
 8.77176e-24 -1.39526e-24        00000 
-5.76183e-24  6.62301e-25        00000 
 3.17763e-24 -2.48041e-25        00000 
-1.47631e-24  7.26976e-26        00000 
 5.82320e-25 -1.72024e-26        00000 
-1.98292e-25  3.90629e-27        00000 
 6.25092e-26 -1.25434e-27        00000 
-3.12851e-26  8.10091e-28        00000 
-5.97660e-34  6.45785e-34        00000 
 1.76587e-33 -2.10708e-33        00000 
-9.83556e-33  1.28382e-32        00000 
 5.62846e-32 -7.83474e-32        00000 
-3.21542e-31  4.68178e-31        00000 
 1.82804e-30 -2.73317e-30        00000 
-1.03075e-29  1.55397e-29        00000 
 5.73616e-29 -8.56415e-29        00000 
-3.12863e-28  4.54355e-28        00000 
 1.65598e-27 -2.29773e-27        00000 
-8.38829e-27  1.09236e-26        00000 
 3.98876e-26 -4.78946e-26        00000 
-1.73527e-25  1.88868e-25        00000 
 6.68939e-25 -6.50019e-25        00000 
-2.22368e-24  1.89994e-24        00000 
 6.27081e-24 -4.63014e-24        00000 
-1.48719e-23  9.31201e-24        00000 
 2.94904e-23 -1.53652e-23        00000 
-4.86412e-23  2.06970e-23        00000 
 6.64078e-23 -2.26157e-23        00000 
-7.47219e-23  1.98659e-23        00000 
 6.90453e-23 -1.38483e-23        00000 
-5.22532e-23  7.52356e-24        00000 
 3.23464e-23 -3.10781e-24        00000 
-1.63992e-23  9.46550e-25        00000 
 6.85006e-24 -2.08941e-25        00000 
-2.38966e-24  3.81485e-26        00000 
 7.13993e-25 -1.01772e-26        00000 
-1.96572e-25  4.79093e-27        00000 
 8.88756e-26 -3.41209e-27        00000 
 8.11285e-34 -5.76216e-34        00000 
-2.41602e-33  2.11402e-33        00000 
 1.36167e-32 -1.43307e-32        00000 
-7.91542e-32  9.55963e-32        00000 
 4.61907e-31 -6.20262e-31        00000 
-2.70190e-30  3.92255e-30        00000 
 1.58184e-29 -2.41824e-29        00000 
-9.24387e-29  1.45073e-28        00000 
 5.36774e-28 -8.43562e-28        00000 
-3.07532e-27  4.72250e-27        00000 
 1.71957e-26 -2.51862e-26        00000 
-9.23053e-26  1.25912e-25        00000 
 4.64221e-25 -5.76011e-25        00000 
-2.11275e-24  2.33166e-24        00000 
 8.28798e-24 -7.99513e-24        00000 
-2.70920e-23  2.24216e-23        00000 
 7.27920e-23 -5.04842e-23        00000 
-1.59767e-22  9.05175e-23        00000 
 2.84617e-22 -1.28484e-22        00000 
-4.08507e-22  1.43161e-22        00000 
 4.69107e-22 -1.23506e-22        00000 
-4.28503e-22  8.07366e-23        00000 
 3.10007e-22 -3.86724e-23        00000 
-1.77281e-22  1.28599e-23        00000 
 8.03513e-23 -2.71828e-24        00000 
-2.92084e-23  3.42324e-25        00000 
 8.74315e-24 -6.73935e-26        00000 
-2.24841e-24  4.18005e-26        00000 
 5.37943e-25 -2.18190e-26        00000 
-2.19378e-25  1.43039e-26        00000 
-1.04730e-33  1.14088e-34        00000 
 3.11512e-33 -9.72026e-34        00000 
-1.75500e-32  9.62242e-33        00000 
 1.02190e-31 -7.94917e-32        00000 
-5.99393e-31  6.01195e-31        00000 
 3.54291e-30 -4.30127e-30        00000 
-2.11223e-29  2.95482e-29        00000 
 1.27041e-28 -1.96263e-28        00000 
-7.70001e-28  1.26331e-27        00000 
 4.68803e-27 -7.86962e-27        00000 
-2.84850e-26  4.71944e-26        00000 
 1.70739e-25 -2.69646e-25        00000 
-9.90060e-25  1.44108e-24        00000 
 5.38134e-24 -6.98570e-24        00000 
-2.61649e-23  2.93429e-23        00000 
 1.04556e-22 -9.96056e-23        00000 
-3.31501e-22  2.61821e-22        00000 