<?xml version="1.0" encoding="utf-8"?>
<VTKFile byte_order="LittleEndian" type="UnstructuredGrid" version="0.1">
   <UnstructuredGrid>
      <Piece NumberOfCells="3364" NumberOfPoints="1741">
         <Points>
            <DataArray Name="Points" NumberOfComponents="3" format="ascii" type="Float32">
0.0000 1.0000 0.0000
0.0000 1.0345 0.0000
0.0000 1.0690 0.0000
0.0000 1.1034 0.0000
0.0000 1.1379 0.0000
0.0000 1.1724 0.0000
0.0000 1.2069 0.0000
0.0000 1.2414 0.0000
0.0000 1.2759 0.0000
0.0000 1.3103 0.0000
0.0000 1.3448 0.0000
0.0000 1.3793 0.0000
0.0000 1.4138 0.0000
0.0000 1.4483 0.0000
0.0000 1.4828 0.0000
0.0000 1.5172 0.0000
0.0000 1.5517 0.0000
0.0000 1.5862 0.0000
0.0000 1.6207 0.0000
0.0000 1.6552 0.0000
0.0000 1.6897 0.0000
0.0000 1.7241 0.0000
0.0000 1.7586 0.0000
0.0000 1.7931 0.0000
0.0000 1.8276 0.0000
0.0000 1.8621 0.0000
0.0000 1.8966 0.0000
0.0000 1.9310 0.0000
0.0000 1.9655 0.0000
0.0000 2.0000 0.0000
0.0690 1.0000 0.0000
0.0690 1.0345 0.0000
0.0690 1.0690 0.0000
0.0690 1.1034 0.0000
0.0690 1.1379 0.0000
0.0690 1.1724 0.0000
0.0690 1.2069 0.0000
0.0690 1.2414 0.0000
0.0690 1.2759 0.0000
0.0690 1.3103 0.0000
0.0690 1.3448 0.0000
0.0690 1.3793 0.0000
0.0690 1.4138 0.0000
0.0690 1.4483 0.0000
0.0690 1.4828 0.0000
0.0690 1.5172 0.0000
0.0690 1.5517 0.0000
0.0690 1.5862 0.0000
0.0690 1.6207 0.0000
0.0690 1.6552 0.0000
0.0690 1.6897 0.0000
0.0690 1.7241 0.0000
0.0690 1.7586 0.0000
0.0690 1.7931 0.0000
0.0690 1.8276 0.0000
0.0690 1.8621 0.0000
0.0690 1.8966 0.0000
0.0690 1.9310 0.0000
0.0690 1.9655 0.0000
0.0690 2.0000 0.0000
0.1379 1.0000 0.0000
0.1379 1.0345 0.0000
0.1379 1.0690 0.0000
0.1379 1.1034 0.0000
0.1379 1.1379 0.0000
0.1379 1.1724 0.0000
0.1379 1.2069 0.0000
0.1379 1.2414 0.0000
0.1379 1.2759 0.0000
0.1379 1.3103 0.0000
0.1379 1.3448 0.0000
0.1379 1.3793 0.0000
0.1379 1.4138 0.0000
0.1379 1.4483 0.0000
0.1379 1.4828 0.0000
0.1379 1.5172 0.0000
0.1379 1.5517 0.0000
0.1379 1.5862 0.0000
0.1379 1.6207 0.0000
0.1379 1.6552 0.0000
0.1379 1.6897 0.0000
0.1379 1.7241 0.0000
0.1379 1.7586 0.0000
0.1379 1.7931 0.0000
0.1379 1.8276 0.0000
0.1379 1.8621 0.0000
0.1379 1.8966 0.0000
0.1379 1.9310 0.0000
0.1379 1.9655 0.0000
0.1379 2.0000 0.0000
0.2069 1.0000 0.0000
0.2069 1.0345 0.0000
0.2069 1.0690 0.0000
0.2069 1.1034 0.0000
0.2069 1.1379 0.0000
0.2069 1.1724 0.0000
0.2069 1.2069 0.0000
0.2069 1.2414 0.0000
0.2069 1.2759 0.0000
0.2069 1.3103 0.0000
0.2069 1.3448 0.0000
0.2069 1.3793 0.0000
0.2069 1.4138 0.0000
0.2069 1.4483 0.0000
0.2069 1.4828 0.0000
0.2069 1.5172 0.0000
0.2069 1.5517 0.0000
0.2069 1.5862 0.0000
0.2069 1.6207 0.0000
0.2069 1.6552 0.0000
0.2069 1.6897 0.0000
0.2069 1.7241 0.0000
0.2069 1.7586 0.0000
0.2069 1.7931 0.0000
0.2069 1.8276 0.0000
0.2069 1.8621 0.0000
0.2069 1.8966 0.0000
0.2069 1.9310 0.0000
0.2069 1.9655 0.0000
0.2069 2.0000 0.0000
0.2759 1.0000 0.0000
0.2759 1.0345 0.0000
0.2759 1.0690 0.0000
0.2759 1.1034 0.0000
0.2759 1.1379 0.0000
0.2759 1.1724 0.0000
0.2759 1.2069 0.0000
0.2759 1.2414 0.0000
0.2759 1.2759 0.0000
0.2759 1.3103 0.0000
0.2759 1.3448 0.0000
0.2759 1.3793 0.0000
0.2759 1.4138 0.0000
0.2759 1.4483 0.0000
0.2759 1.4828 0.0000
0.2759 1.5172 0.0000
0.2759 1.5517 0.0000
0.2759 1.5862 0.0000
0.2759 1.6207 0.0000
0.2759 1.6552 0.0000
0.2759 1.6897 0.0000
0.2759 1.7241 0.0000
0.2759 1.7586 0.0000
0.2759 1.7931 0.0000
0.2759 1.8276 0.0000
0.2759 1.8621 0.0000
0.2759 1.8966 0.0000
0.2759 1.9310 0.0000
0.2759 1.9655 0.0000
0.2759 2.0000 0.0000
0.3448 1.0000 0.0000
0.3448 1.0345 0.0000
0.3448 1.0690 0.0000
0.3448 1.1034 0.0000
0.3448 1.1379 0.0000
0.3448 1.1724 0.0000
0.3448 1.2069 0.0000
0.3448 1.2414 0.0000
0.3448 1.2759 0.0000
0.3448 1.3103 0.0000
0.3448 1.3448 0.0000
0.3448 1.3793 0.0000
0.3448 1.4138 0.0000
0.3448 1.4483 0.0000
0.3448 1.4828 0.0000
0.3448 1.5172 0.0000
0.3448 1.5517 0.0000
0.3448 1.5862 0.0000
0.3448 1.6207 0.0000
0.3448 1.6552 0.0000
0.3448 1.6897 0.0000
0.3448 1.7241 0.0000
0.3448 1.7586 0.0000
0.3448 1.7931 0.0000
0.3448 1.8276 0.0000
0.3448 1.8621 0.0000
0.3448 1.8966 0.0000
0.3448 1.9310 0.0000
0.3448 1.9655 0.0000
0.3448 2.0000 0.0000
0.4138 1.0000 0.0000
0.4138 1.0345 0.0000
0.4138 1.0690 0.0000
0.4138 1.1034 0.0000
0.4138 1.1379 0.0000
0.4138 1.1724 0.0000
0.4138 1.2069 0.0000
0.4138 1.2414 0.0000
0.4138 1.2759 0.0000
0.4138 1.3103 0.0000
0.4138 1.3448 0.0000
0.4138 1.3793 0.0000
0.4138 1.4138 0.0000
0.4138 1.4483 0.0000
0.4138 1.4828 0.0000
0.4138 1.5172 0.0000
0.4138 1.5517 0.0000
0.4138 1.5862 0.0000
0.4138 1.6207 0.0000
0.4138 1.6552 0.0000
0.4138 1.6897 0.0000
0.4138 1.7241 0.0000
0.4138 1.7586 0.0000
0.4138 1.7931 0.0000
0.4138 1.8276 0.0000
0.4138 1.8621 0.0000
0.4138 1.8966 0.0000
0.4138 1.9310 0.0000
0.4138 1.9655 0.0000
0.4138 2.0000 0.0000
0.4828 1.0000 0.0000
0.4828 1.0345 0.0000
0.4828 1.0690 0.0000
0.4828 1.1034 0.0000
0.4828 1.1379 0.0000
0.4828 1.1724 0.0000
0.4828 1.2069 0.0000
0.4828 1.2414 0.0000
0.4828 1.2759 0.0000
0.4828 1.3103 0.0000
0.4828 1.3448 0.0000
0.4828 1.3793 0.0000
0.4828 1.4138 0.0000
0.4828 1.4483 0.0000
0.4828 1.4828 0.0000
0.4828 1.5172 0.0000
0.4828 1.5517 0.0000
0.4828 1.5862 0.0000
0.4828 1.6207 0.0000
0.4828 1.6552 0.0000
0.4828 1.6897 0.0000
0.4828 1.7241 0.0000
0.4828 1.7586 0.0000
0.4828 1.7931 0.0000
0.4828 1.8276 0.0000
0.4828 1.8621 0.0000
0.4828 1.8966 0.0000
0.4828 1.9310 0.0000
0.4828 1.9655 0.0000
0.4828 2.0000 0.0000
0.5517 1.0000 0.0000
0.5517 1.0345 0.0000
0.5517 1.0690 0.0000
0.5517 1.1034 0.0000
0.5517 1.1379 0.0000
0.5517 1.1724 0.0000
0.5517 1.2069 0.0000
0.5517 1.2414 0.0000
0.5517 1.2759 0.0000
0.5517 1.3103 0.0000
0.5517 1.3448 0.0000
0.5517 1.3793 0.0000
0.5517 1.4138 0.0000
0.5517 1.4483 0.0000
0.5517 1.4828 0.0000
0.5517 1.5172 0.0000
0.5517 1.5517 0.0000
0.5517 1.5862 0.0000
0.5517 1.6207 0.0000
0.5517 1.6552 0.0000
0.5517 1.6897 0.0000
0.5517 1.7241 0.0000
0.5517 1.7586 0.0000
0.5517 1.7931 0.0000
0.5517 1.8276 0.0000
0.5517 1.8621 0.0000
0.5517 1.8966 0.0000
0.5517 1.9310 0.0000
0.5517 1.9655 0.0000
0.5517 2.0000 0.0000
0.6207 1.0000 0.0000
0.6207 1.0345 0.0000
0.6207 1.0690 0.0000
0.6207 1.1034 0.0000
0.6207 1.1379 0.0000
0.6207 1.1724 0.0000
0.6207 1.2069 0.0000
0.6207 1.2414 0.0000
0.6207 1.2759 0.0000
0.6207 1.3103 0.0000
0.6207 1.3448 0.0000
0.6207 1.3793 0.0000
0.6207 1.4138 0.0000
0.6207 1.4483 0.0000
0.6207 1.4828 0.0000
0.6207 1.5172 0.0000
0.6207 1.5517 0.0000
0.6207 1.5862 0.0000
0.6207 1.6207 0.0000
0.6207 1.6552 0.0000
0.6207 1.6897 0.0000
0.6207 1.7241 0.0000
0.6207 1.7586 0.0000
0.6207 1.7931 0.0000
0.6207 1.8276 0.0000
0.6207 1.8621 0.0000
0.6207 1.8966 0.0000
0.6207 1.9310 0.0000
0.6207 1.9655 0.0000
0.6207 2.0000 0.0000
0.6897 1.0000 0.0000
0.6897 1.0345 0.0000
0.6897 1.0690 0.0000
0.6897 1.1034 0.0000
0.6897 1.1379 0.0000
0.6897 1.1724 0.0000
0.6897 1.2069 0.0000
0.6897 1.2414 0.0000
0.6897 1.2759 0.0000
0.6897 1.3103 0.0000
0.6897 1.3448 0.0000
0.6897 1.3793 0.0000
0.6897 1.4138 0.0000
0.6897 1.4483 0.0000
0.6897 1.4828 0.0000
0.6897 1.5172 0.0000
0.6897 1.5517 0.0000
0.6897 1.5862 0.0000
0.6897 1.6207 0.0000
0.6897 1.6552 0.0000
0.6897 1.6897 0.0000
0.6897 1.7241 0.0000
0.6897 1.7586 0.0000
0.6897 1.7931 0.0000
0.6897 1.8276 0.0000
0.6897 1.8621 0.0000
0.6897 1.8966 0.0000
0.6897 1.9310 0.0000
0.6897 1.9655 0.0000
0.6897 2.0000 0.0000
0.7586 1.0000 0.0000
0.7586 1.0345 0.0000
0.7586 1.0690 0.0000
0.7586 1.1034 0.0000
0.7586 1.1379 0.0000
0.7586 1.1724 0.0000
0.7586 1.2069 0.0000
0.7586 1.2414 0.0000
0.7586 1.2759 0.0000
0.7586 1.3103 0.0000
0.7586 1.3448 0.0000
0.7586 1.3793 0.0000
0.7586 1.4138 0.0000
0.7586 1.4483 0.0000
0.7586 1.4828 0.0000
0.7586 1.5172 0.0000
0.7586 1.5517 0.0000
0.7586 1.5862 0.0000
0.7586 1.6207 0.0000
0.7586 1.6552 0.0000
0.7586 1.6897 0.0000
0.7586 1.7241 0.0000
0.7586 1.7586 0.0000
0.7586 1.7931 0.0000
0.7586 1.8276 0.0000
0.7586 1.8621 0.0000
0.7586 1.8966 0.0000
0.7586 1.9310 0.0000
0.7586 1.9655 0.0000
0.7586 2.0000 0.0000
0.8276 1.0000 0.0000
0.8276 1.0345 0.0000
0.8276 1.0690 0.0000
0.8276 1.1034 0.0000
0.8276 1.1379 0.0000
0.8276 1.1724 0.0000
0.8276 1.2069 0.0000
0.8276 1.2414 0.0000
0.8276 1.2759 0.0000
0.8276 1.3103 0.0000
0.8276 1.3448 0.0000
0.8276 1.3793 0.0000
0.8276 1.4138 0.0000
0.8276 1.4483 0.0000
0.8276 1.4828 0.0000
0.8276 1.5172 0.0000
0.8276 1.5517 0.0000
0.8276 1.5862 0.0000
0.8276 1.6207 0.0000
0.8276 1.6552 0.0000
0.8276 1.6897 0.0000
0.8276 1.7241 0.0000
0.8276 1.7586 0.0000
0.8276 1.7931 0.0000
0.8276 1.8276 0.0000
0.8276 1.8621 0.0000
0.8276 1.8966 0.0000
0.8276 1.9310 0.0000
0.8276 1.9655 0.0000
0.8276 2.0000 0.0000
0.8966 1.0000 0.0000
0.8966 1.0345 0.0000
0.8966 1.0690 0.0000
0.8966 1.1034 0.0000
0.8966 1.1379 0.0000
0.8966 1.1724 0.0000
0.8966 1.2069 0.0000
0.8966 1.2414 0.0000
0.8966 1.2759 0.0000
0.8966 1.3103 0.0000
0.8966 1.3448 0.0000
0.8966 1.3793 0.0000
0.8966 1.4138 0.0000
0.8966 1.4483 0.0000
0.8966 1.4828 0.0000
0.8966 1.5172 0.0000
0.8966 1.5517 0.0000
0.8966 1.5862 0.0000
0.8966 1.6207 0.0000
0.8966 1.6552 0.0000
0.8966 1.6897 0.0000
0.8966 1.7241 0.0000
0.8966 1.7586 0.0000
0.8966 1.7931 0.0000
0.8966 1.8276 0.0000
0.8966 1.8621 0.0000
0.8966 1.8966 0.0000
0.8966 1.9310 0.0000
0.8966 1.9655 0.0000
0.8966 2.0000 0.0000
0.9655 1.0000 0.0000
0.9655 1.0345 0.0000
0.9655 1.0690 0.0000
0.9655 1.1034 0.0000
0.9655 1.1379 0.0000
0.9655 1.1724 0.0000
0.9655 1.2069 0.0000
0.9655 1.2414 0.0000
0.9655 1.2759 0.0000
0.9655 1.3103 0.0000
0.9655 1.3448 0.0000
0.9655 1.3793 0.0000
0.9655 1.4138 0.0000
0.9655 1.4483 0.0000
0.9655 1.4828 0.0000
0.9655 1.5172 0.0000
0.9655 1.5517 0.0000
0.9655 1.5862 0.0000
0.9655 1.6207 0.0000
0.9655 1.6552 0.0000
0.9655 1.6897 0.0000
0.9655 1.7241 0.0000
0.9655 1.7586 0.0000
0.9655 1.7931 0.0000
0.9655 1.8276 0.0000
0.9655 1.8621 0.0000
0.9655 1.8966 0.0000
0.9655 1.9310 0.0000
0.9655 1.9655 0.0000
0.9655 2.0000 0.0000
1.0345 1.0000 0.0000
1.0345 1.0345 0.0000
1.0345 1.0690 0.0000
1.0345 1.1034 0.0000
1.0345 1.1379 0.0000
1.0345 1.1724 0.0000
1.0345 1.2069 0.0000
1.0345 1.2414 0.0000
1.0345 1.2759 0.0000
1.0345 1.3103 0.0000
1.0345 1.3448 0.0000
[...]
         <PointData>
            <DataArray Name="fValues" NumberOfComponents="3" format="ascii" type="Float64">
-1.28938e-28 -4.02856e-27        00000 
 4.00740e-28  1.26616e-26        00000 
-2.36888e-27 -7.59972e-26        00000 
 1.44165e-26  4.70835e-25        00000 
-8.81727e-26 -2.91345e-24        00000 
 5.42079e-25  1.33464e-23        00000 
-3.35419e-24 -2.46341e-23        00000 
 2.09264e-23  1.29496e-22        00000 
-1.32000e-22 -7.23923e-22        00000 
 8.45604e-22  1.77659e-23        00000 
-5.54667e-21 -4.38477e-20        00000 
 3.79365e-20  1.82870e-19        00000 
-2.86310e-19 -4.36643e-18        00000 
 3.46104e-18  2.34920e-17        00000 
-1.15301e-18 -3.78424e-17        00000 
-2.84229e-18  4.11457e-17        00000 
 2.60423e-19 -1.27887e-17        00000 
-3.04174e-20  1.64034e-18        00000 
 4.00253e-21 -2.47539e-19        00000 
-5.63578e-22  3.87449e-20        00000 
 8.28071e-23 -6.15585e-21        00000 
-1.25221e-23  9.97859e-22        00000 
 1.93280e-24 -1.60833e-22        00000 
-3.02907e-25  2.61507e-23        00000 
 4.80288e-26 -4.27517e-24        00000 
-7.68576e-27  7.01932e-25        00000 
 1.23906e-27 -1.15664e-25        00000 
-2.01110e-28  1.91305e-26        00000 
 3.36416e-29 -3.25515e-27        00000 
-1.07266e-29  1.05216e-27        00000 
 1.22508e-28  3.77153e-27        00000 
-3.79318e-28 -1.17668e-26        00000 
 2.23140e-27  6.99314e-26        00000 
-1.35049e-26 -4.28834e-25        00000 
 8.20489e-26  2.67464e-24        00000 
-5.00320e-25 -2.11929e-23        00000 
 3.06405e-24  2.45112e-23        00000 
-1.88617e-23 -1.31821e-22        00000 
 1.16828e-22  7.76231e-22        00000 
-7.28955e-22 -8.30337e-21        00000 
 4.58505e-21  4.85734e-20        00000 
-2.89723e-20 -3.25530e-19        00000 
 1.76724e-19        00000        00000 
 7.46619e-18 -1.82769e-01        00000 
-5.34531e-18  8.38817e-01        00000 
 5.12780e-19 -1.82769e-01        00000 
-1.20771e-19  6.53235e-18        00000 
 1.88920e-20 -1.32335e-18        00000 
-2.86260e-21  2.14350e-19        00000 
 4.37239e-22 -3.44118e-20        00000 
-6.76768e-23  5.56033e-21        00000 
 1.06062e-23 -9.06644e-22        00000 
-1.67985e-24  1.48339e-22        00000 
 2.68411e-25 -2.43296e-23        00000 
-4.32018e-26  4.00446e-24        00000 
 6.99608e-27 -6.61146e-25        00000 
-1.13881e-27  1.09453e-25        00000 
 1.86318e-28 -1.81757e-26        00000 
-3.13838e-29  3.10382e-27        00000 
 1.00606e-29 -1.00611e-27        00000 
-1.05089e-28 -3.10260e-27        00000 
 3.21716e-28  9.47508e-27        00000 
-1.86526e-27 -5.46630e-26        00000 
 1.11035e-26  3.22586e-25        00000 
-6.61297e-26 -1.88726e-24        00000 
 3.93516e-25  7.90532e-24        00000 
-2.33707e-24 -2.34677e-23        00000 
 1.38249e-23  1.33336e-22        00000 
-8.11485e-23 -7.91806e-22        00000 
 4.68906e-22  1.55202e-21        00000 
-2.61814e-21 -3.35042e-20        00000 
 1.33983e-20  2.68827e-19        00000 
-5.14601e-20 -3.12290e-18        00000 
 4.48533e-19  2.30387e-17        00000 
 6.48178e-19  1.82769e-01        00000 
 9.84307e-19  4.61420e-18        00000 
-4.58897e-20 -5.46019e-18        00000 
-7.83234e-22  8.07601e-19        00000 
 7.71744e-22 -1.40203e-19        00000 
-1.81498e-22  2.41125e-20        00000 
 3.49004e-23 -4.09628e-21        00000 
-6.24653e-24  6.92982e-22        00000 
 1.08245e-24 -1.16634e-22        00000 
-1.84550e-25  1.96044e-23        00000 
 3.11935e-26 -3.29173e-24        00000 
-5.24782e-27  5.52539e-25        00000 
 8.80696e-28 -9.27585e-26        00000 
-1.47731e-28  1.55889e-26        00000 
 2.54256e-29 -2.69089e-27        00000 
-8.28697e-30  8.79766e-28        00000 
 8.14072e-29  2.26111e-27        00000 
-2.44579e-28 -6.68677e-27        00000 
 1.38423e-27  3.68997e-26        00000 
-8.01684e-27 -2.05493e-25        00000 
 4.61995e-26  1.09843e-24        00000 
-2.64054e-25 -7.01397e-24        00000 
 1.49099e-24  2.08147e-23        00000 
-8.26498e-24 -1.23935e-22        00000 
 4.44900e-23  7.69783e-22        00000 
-2.27979e-22 -7.14871e-21        00000 
 1.07055e-21  3.23966e-20        00000 
-4.33324e-21 -2.36529e-19        00000 
 1.80042e-20  1.26237e-18        00000 
 3.26904e-20 -2.34009e-18        00000 
-7.51168e-20 -5.18517e-18        00000 
-7.31929e-21 -3.19863e-18        00000 
 3.95372e-20  8.62835e-19        00000 
-4.68409e-21 -3.24939e-19        00000 
 3.46128e-22  6.87834e-20        00000 
 1.24139e-24 -1.32889e-20        00000 
-7.55675e-24  2.45716e-21        00000 
 2.16811e-24 -4.42628e-22        00000 
-4.75187e-25  7.83055e-23        00000 
 9.37614e-26 -1.36935e-23        00000 
-1.75352e-26  2.37578e-24        00000 
 3.17885e-27 -4.09851e-25        00000 
-5.65122e-28  7.04164e-26        00000 
 9.92537e-29 -1.20717e-26        00000 
-1.77602e-29  2.12146e-27        00000 
 5.96177e-30 -7.03541e-28        00000 
-5.69740e-29 -1.48089e-27        00000 
 1.66764e-28  4.22342e-27        00000 
-9.12646e-28 -2.22645e-26        00000 
 5.08793e-27  1.18693e-25        00000 
-2.80137e-26 -6.36401e-25        00000 
 1.51451e-25  2.92323e-24        00000 
-7.97971e-25 -1.29305e-23        00000 
 4.04981e-24  1.03954e-22        00000 
-1.94244e-23 -5.86188e-22        00000 
 8.53061e-23  2.46333e-21        00000 
-3.26197e-22 -1.08201e-20        00000 
 1.01172e-21  5.82586e-20        00000 
 4.32010e-23 -2.11895e-19        00000 
-4.94564e-21  1.57665e-19        00000 
 6.78635e-21  1.97950e-19        00000 
-1.02788e-21  2.36293e-19        00000 
-3.34959e-21 -2.25521e-19        00000 
 2.06139e-21  8.27117e-20        00000 
-3.63854e-22 -2.44717e-20        00000 
 4.50073e-23  5.70642e-21        00000 
-3.87098e-24 -1.19846e-21        00000 
 2.64304e-26  2.36105e-22        00000 
 9.12365e-26 -4.48297e-23        00000 
-2.94456e-26  8.29252e-24        00000 
 6.99975e-27 -1.50611e-24        00000 
-1.47348e-27  2.69929e-25        00000 
 2.90780e-28 -4.78993e-26        00000 
-5.52242e-29  8.44268e-27        00000 
 1.05293e-29 -1.52135e-27        00000 
-3.70251e-30  5.14639e-28        00000 
 3.60484e-29  8.88046e-28        00000 
-1.02073e-28 -2.44967e-27        00000 
 5.35166e-28  1.24432e-26        00000 
-2.84241e-27 -6.42585e-26        00000 
 1.47718e-26  3.18786e-25        00000 
-7.44513e-26 -1.61724e-24        00000 
 3.59672e-25  9.47144e-24        00000 
-1.63586e-24 -5.00167e-23        00000 
 6.80770e-24  2.24383e-22        00000 
-2.46956e-23 -9.66369e-22        00000 
 7.01353e-23  4.22721e-21        00000 
-7.21678e-23 -1.45548e-20        00000 
-1.93455e-22  2.53020e-20        00000 
 6.78272e-22 -1.41222e-20        00000 
-7.75412e-22  2.75476e-21        00000 
 2.36958e-22 -2.06996e-20        00000 
 2.83333e-22  3.07771e-20        00000 
-3.14016e-22 -1.79223e-20        00000 
 1.29236e-22  6.55750e-21        00000 
-2.75262e-23 -1.92244e-21        00000 
 4.37877e-24  4.73896e-22        00000 
-5.59012e-25 -1.05347e-22        00000 
 5.19371e-26  2.19012e-23        00000 
-7.72204e-28 -4.35520e-24        00000 
-1.24133e-27  8.39044e-25        00000 
 4.33952e-28 -1.57928e-25        00000 
-1.09033e-28  2.92097e-26        00000 
 2.40601e-29 -5.33494e-27        00000 
-5.11693e-30  9.92773e-28        00000 
 1.93761e-30 -3.44463e-28        00000 
-2.06390e-29 -4.96490e-28        00000 
 5.61539e-29  1.33251e-27        00000 
-2.79522e-28 -6.57433e-27        00000 
 1.40049e-27  3.30683e-26        00000 
-6.79094e-27 -1.68017e-25        00000 
 3.14746e-26  8.79167e-25        00000 
-1.37123e-25 -4.36268e-24        00000 
 5.47258e-25  1.95895e-23        00000 
-1.91571e-24 -8.21903e-23        00000 
 5.36922e-24  3.26315e-22        00000 
-8.70427e-24 -1.08739e-21        00000 
-2.13854e-24  2.45611e-21        00000 
 4.35280e-23 -3.24458e-21        00000 
-9.50132e-23  2.44145e-21        00000 
 9.94819e-23 -1.90595e-21        00000 
-4.08664e-23  3.17944e-21        00000 
-2.30713e-23 -4.10422e-21        00000 
 4.12134e-23  3.07917e-21        00000 
-2.55768e-23 -1.47705e-21        00000 
 9.03658e-24  5.25516e-22        00000 
-2.11606e-24 -1.54531e-22        00000 
 3.90759e-25  3.94677e-23        00000 
-6.07388e-26 -9.15784e-24        00000 
 7.92305e-27  1.98756e-24        00000 
-7.72635e-28 -4.11294e-25        00000 
 1.65675e-29  8.21644e-26        00000 
 1.82143e-29 -1.59816e-26        00000 
-6.77827e-30  3.04799e-27        00000 
 1.85416e-30 -5.89880e-28        00000 
-8.06634e-31  2.11065e-28        00000 
 1.07058e-29  2.61806e-28        00000 
-2.78113e-29 -6.86314e-28        00000 
 1.30299e-28  3.30369e-27        00000 
-6.10102e-28 -1.63914e-26        00000 
 2.73049e-27  8.08966e-26        00000 
-1.14878e-26 -3.82753e-25        00000 
 4.44083e-26  1.68415e-24        00000 
-1.52021e-25 -6.88987e-24        00000 
 4.30024e-25  2.60486e-23        00000 
-8.48064e-25 -8.53791e-23        00000 
 6.37909e-25  2.16533e-22        00000 
 1.99980e-24 -3.88081e-22        00000 
-7.88604e-24  4.75567e-22        00000 
 1.36957e-23 -4.32926e-22        00000 
-1.36633e-23  4.16856e-22        00000 
 6.65985e-24 -5.26969e-22        00000 
 1.53894e-24  6.02228e-22        00000 
-5.16110e-24 -4.93508e-22        00000 
 4.21819e-24  2.85697e-22        00000 
-2.04033e-24 -1.23298e-22        00000 
 6.72821e-25  4.27064e-23        00000 
-1.66159e-25 -1.26095e-23        00000 
 3.37811e-26  3.30155e-24        00000 
-5.94175e-27 -7.91664e-25        00000 
 9.17790e-28  1.77912e-25        00000 
-1.21624e-28 -3.80875e-26        00000 
 1.22750e-29  7.85660e-27        00000 
-3.25506e-31 -1.57623e-27        00000 
-3.10756e-31  3.19433e-28        00000 
 2.19257e-31 -1.18477e-28        00000 
-5.03930e-30 -1.30415e-28        00000 
 1.24267e-29  3.33244e-28        00000 
-5.43457e-29 -1.55304e-27        00000 
 2.35739e-28  7.35919e-27        00000 
-9.64010e-28 -3.35594e-26        00000 
 3.63720e-27  1.44069e-25        00000 
-1.22806e-26 -5.76270e-25        00000 
 3.52373e-26  2.12034e-24        00000 
-7.76033e-26 -6.90198e-24        00000 
 1.02159e-25  1.86119e-23        00000 
 3.04136e-26 -3.91110e-23        00000 
-5.15630e-25  6.19745e-23        00000 
 1.33563e-24 -7.48092e-23        00000 
-2.02344e-24  7.55469e-23        00000 
 1.96174e-24 -7.77393e-23        00000 
-1.07089e-24  8.83501e-23        00000 
-1.97835e-26 -9.34759e-23        00000 
 6.29479e-25  7.90620e-23        00000 
-6.42902e-25 -5.11870e-23        00000 
 3.87390e-25  2.56851e-23        00000 
-1.63554e-25 -1.03608e-23        00000 
 5.20464e-26  3.51226e-24        00000 
-1.32895e-26 -1.04029e-24        00000 
 2.88565e-27  2.77430e-25        00000 
-5.52864e-28 -6.82595e-26        00000 
 9.51211e-29  1.57851e-26        00000 
-1.46765e-29 -3.47877e-27        00000 
 1.96722e-30  7.39142e-28        00000 
-1.99623e-31 -1.57877e-28        00000 
 1.30915e-32  6.09905e-29        00000 
 2.15686e-30  6.09135e-29        00000 
-5.02283e-30 -1.50286e-28        00000 
 2.03468e-29  6.64303e-28        00000 
-8.11200e-29 -2.93616e-27        00000 
 3.00391e-28  1.23127e-26        00000 
-1.00558e-27 -4.83071e-26        00000 
 2.92637e-27  1.74795e-25        00000 
-6.92327e-27 -5.67920e-25        00000 
 1.16292e-26  1.59000e-24        00000 
-7.78463e-27 -3.67687e-24        00000 
-2.51912e-26  6.82300e-24        00000 
 1.06121e-25 -1.00865e-23        00000 
-2.20399e-25  1.21881e-23        00000 
 3.04982e-25 -1.30113e-23        00000 
-2.90507e-25  1.37319e-23        00000 
 1.71993e-25 -1.48248e-23        00000 
-2.24756e-26  1.49676e-23        00000 
-7.45817e-26 -1.28088e-23        00000 
 9.40113e-26  8.88329e-24        00000 
-6.71184e-26 -4.96630e-24        00000 
 3.40773e-26  2.27320e-24        00000 
-1.32423e-26 -8.74756e-25        00000 
 4.12837e-27  2.91610e-25        00000 
-1.07855e-27 -8.65583e-26        00000 
 2.45536e-28  2.34103e-26        00000 
-5.00798e-29 -5.87992e-27        00000 
 9.30222e-30  1.39252e-27        00000 
-1.58220e-30 -3.15146e-28        00000 
 2.47831e-31  7.13650e-29        00000 
-6.62193e-32 -2.88384e-29        00000 
-8.41561e-31 -2.64007e-29        00000 
 1.84279e-30  6.21594e-29        00000 
-6.86654e-30 -2.56905e-28        00000 
 2.49918e-29  1.05311e-27        00000 
-8.31998e-29 -4.06437e-27        00000 
 2.45197e-28  1.45410e-26        00000 
-6.10194e-28 -4.72693e-26        00000 
 1.17942e-27  1.35780e-25        00000 
-1.41299e-27 -3.34423e-25        00000 
-4.05213e-28  6.89554e-25        00000 
 7.01646e-27 -1.17609e-24        00000 
-1.99436e-26  1.66696e-24        00000 
 3.59913e-26 -2.02086e-24        00000 
-4.67141e-26  2.22207e-24        00000 
 4.40037e-26 -2.36847e-24        00000 
-2.76988e-26  2.48584e-24        00000 
 6.69369e-27 -2.43941e-24        00000 
 8.43747e-27  2.09804e-24        00000 
-1.33929e-26 -1.52171e-24        00000 
 1.10203e-26  9.19426e-25        00000 
-6.46783e-27 -4.64823e-25        00000 
 2.94268e-27  1.99482e-25        00000 
-1.08288e-27 -7.41434e-26        00000 
 3.33281e-28  2.43933e-26        00000 
-8.85430e-29 -7.25118e-27        00000 
 2.08830e-29  1.98289e-27        00000 
-4.46708e-30 -5.06530e-28        00000 
 8.79655e-31  1.22635e-28        00000 
-1.64518e-31 -2.95890e-29        00000 
 5.41767e-32  1.25513e-29        00000 
 3.00296e-31  1.05521e-29        00000 
-6.16282e-31 -2.35392e-29        00000 
 2.09988e-30  9.04331e-29        00000 
-6.94147e-30 -3.43351e-28        00000 
 2.06778e-29  1.21813e-27        00000 
-5.34383e-29 -3.96580e-27        00000 
 1.13252e-28  1.16101e-26        00000 
-1.74665e-28 -2.98954e-26        00000 
 1.12686e-28  6.64098e-26        00000 
 3.50980e-28 -1.25673e-25        00000 
-1.55709e-27  2.01986e-25        00000 
 3.57994e-27 -2.78437e-25        00000 
-5.85596e-27  3.38110e-25        00000 
 7.24935e-27 -3.77506e-25        00000 
-6.78063e-27  4.03699e-25        00000 
 4.47828e-27 -4.16612e-25        00000 
-1.46732e-27  4.01780e-25        00000 
-8.74795e-28 -3.46621e-25        00000 
 1.86949e-27  2.59331e-25        00000 
-1.74815e-27 -1.65911e-25        00000 
 1.15614e-27  9.06397e-26        00000 
-5.97608e-28 -4.25836e-26        00000 
 2.52108e-28  1.74220e-26        00000 
-8.93258e-29 -6.30543e-27        00000 
 2.72573e-29  2.05278e-27        00000 
-7.33517e-30 -6.10815e-28        00000 
 1.77805e-30  1.68542e-28        00000 
-3.95264e-31 -4.37707e-29        00000 
 8.41088e-32  1.12950e-29        00000 
-3.12794e-32 -5.04250e-30        00000 
-9.83823e-32 -3.89037e-30        00000 
 1.88847e-31  8.20039e-30        00000 
-5.85777e-31 -2.92114e-29        00000 
 1.75314e-30  1.02640e-28        00000 
-4.66371e-30 -3.34700e-28        00000 
 1.05508e-29  9.94442e-28        00000 
-1.88615e-29 -2.64672e-27        00000 
 2.15597e-29  6.21231e-27        00000 
 5.26359e-30 -1.27091e-26        00000 
-1.03401e-28  2.25289e-26        00000 
 3.12684e-28 -3.46649e-26        00000 
-6.26184e-28  4.68336e-26        00000 
 9.52349e-28 -5.68417e-26        00000 
-1.13714e-27  6.39284e-26        00000 
 1.05893e-27 -6.83781e-26        00000 
-7.27012e-28  6.98115e-26        00000 
 2.88118e-28 -6.66139e-26        00000 
 7.40286e-29  5.76306e-26        00000 
-2.55839e-28 -4.41149e-26        00000 
 2.70716e-28  2.94745e-26        00000 
-1.98419e-28 -1.71162e-26        00000 
 1.14061e-28  8.66186e-27        00000 
-5.39158e-29 -3.84852e-27        00000 
 2.15344e-29  1.51751e-27        00000 
-7.42287e-30 -5.37809e-28        00000 
 2.25153e-30  1.73596e-28        00000 
-6.12163e-31 -5.16993e-29        00000 
 1.51912e-31  1.44153e-29        00000 
-3.61810e-32 -3.98808e-30        00000 
 1.48179e-32  1.87664e-30        00000 
 2.97319e-32  1.32840e-30        00000 
-5.33482e-32 -2.64474e-30        00000 
 1.50211e-31  8.72567e-30        00000 
-4.06481e-31 -2.83872e-29        00000 
 9.65100e-31  8.53281e-29        00000 
-1.90380e-30 -2.32987e-28        00000 
 2.79289e-30  5.70446e-28        00000 
-1.80463e-30 -1.23935e-27        00000 
-5.19485e-30  2.37324e-27        00000 
 2.41685e-29 -3.99806e-27        00000 
-5.94387e-29  5.95010e-27        00000 
 1.07834e-28 -7.91277e-27        00000 
-1.55047e-28  9.58145e-27        00000 
 1.79974e-28 -1.08048e-26        00000 
-1.67151e-28  1.15422e-26        00000 
 1.18487e-28 -1.17002e-26        00000 
-5.36030e-29  1.10930e-26        00000 
-2.49414e-30 -9.62618e-27        00000 
 3.42070e-29  7.50096e-27        00000 
-4.11576e-29 -5.18455e-27        00000 
 3.30791e-29  3.16145e-27        00000 
-2.08262e-29 -1.70081e-27        00000 
 1.08400e-29  8.10598e-28        00000 
-4.79570e-30 -3.44689e-28        00000 
 1.83832e-30  1.31988e-28        00000 
-6.20671e-31 -4.59905e-29        00000 
 1.87475e-31  1.47441e-29        00000 
-5.15243e-32 -4.41059e-30        00000 
 1.36242e-32  1.30952e-30        00000 
-6.07613e-33 -6.49736e-31        00000 
-8.33316e-33 -4.22359e-31        00000 
 1.39884e-32  7.94938e-31        00000 
-3.57022e-32 -2.42979e-30        00000 
 8.73202e-32  7.33699e-30        00000 
-1.84754e-31 -2.04391e-29        00000 
 3.14058e-31  5.17383e-29        00000 
-3.50740e-31 -1.17882e-28        00000 
-6.49749e-32  2.40120e-28        00000 
 1.60440e-30 -4.35756e-28        00000 
-5.08565e-30  7.04857e-28        00000 
 1.09244e-29 -1.02158e-27        00000 
-1.83896e-29  1.34069e-27        00000 
 2.52881e-29 -1.61757e-27        00000 
-2.86988e-29  1.82407e-27        00000 
 2.66159e-29 -1.94473e-27        00000 
-1.93802e-29  1.96167e-27        00000 
 9.67247e-30 -1.85296e-27        00000 
-9.55616e-31  1.61330e-27        00000 
-4.43312e-30 -1.27549e-27        00000 
 6.16040e-30  9.05990e-28        00000 
-5.39633e-30 -5.74870e-28        00000 
 3.68025e-30  3.25376e-28        00000 
-2.08147e-30 -1.64593e-28        00000 
 1.00567e-30  7.47525e-29        00000 
-4.22873e-31 -3.06818e-29        00000 
 1.57023e-31  1.14722e-29        00000 
-5.21822e-32 -3.94338e-30        00000 
 1.57650e-32  1.26292e-30        00000 
-4.60046e-33 -4.02261e-31        00000 
 2.21811e-33  2.10290e-31        00000 
 2.17885e-33  1.25776e-31        00000 
-3.42850e-33 -2.24240e-31        00000 
 7.92799e-33  6.36163e-31        00000 
-1.75093e-32 -1.79030e-30        00000 
 3.28340e-32  4.65307e-30        00000 
-4.66973e-32 -1.10165e-29        00000 
 3.08119e-32  2.35969e-29        00000 
 7.99864e-32 -4.55358e-29        00000 
-3.90133e-31  7.90545e-29        00000 
 1.00805e-30 -1.23700e-28        00000 
-1.96382e-30  1.75420e-28        00000 
 3.11653e-30 -2.27562e-28        00000 
-4.13330e-30  2.73340e-28        00000 
 4.60565e-30 -3.07749e-28        00000 
-4.26882e-30  3.27362e-28        00000 
 3.18025e-30 -3.29063e-28        00000 
-1.71275e-30  3.10216e-28        00000 
 3.53205e-31 -2.71056e-28        00000 
 5.48303e-31  2.16942e-28        00000 
-9.08614e-31 -1.57604e-28        00000 
 8.65433e-31  1.03352e-28        00000 
-6.34354e-31 -6.10412e-29        00000 
 3.85914e-31  3.24871e-29        00000 
-2.01340e-31 -1.56239e-29        00000 
 9.18045e-32  6.82096e-30        00000 
-3.70868e-32 -2.71942e-30        00000 
 1.34327e-32  9.97446e-31        00000 
-4.42777e-33 -3.40934e-31        00000 
 1.41783e-33  1.16322e-31        00000 
-7.34466e-34 -6.39600e-32        00000 
-5.34668e-34 -3.52973e-32        00000 
 7.90759e-34  5.97894e-32        00000 
-1.65598e-33 -1.57937e-31        00000 
 3.29231e-33  4.16322e-31        00000 
-5.39778e-33 -1.01652e-30        00000 
 5.96653e-33  2.26944e-30        00000 
 7.07123e-34 -4.60959e-30        00000 
-2.58023e-32  8.49742e-30        00000 
 8.50583e-32 -1.42154e-29        00000 
-1.92333e-31  2.16360e-29        00000 
 3.47680e-31 -3.01215e-29        00000 
-5.26032e-31  3.86680e-29        00000 
 6.77092e-31 -4.62181e-29        00000 
-7.43182e-31  5.19072e-29        00000 
 6.88822e-31 -5.50850e-29        00000 
-5.23403e-31  5.52315e-29        00000 
 2.99569e-31 -5.20252e-29        00000 