<?xml version="1.0" encoding="utf-8"?>
<VTKFile byte_order="LittleEndian" type="UnstructuredGrid" version="0.1">
   <UnstructuredGrid>
      <Piece NumberOfCells="3364" NumberOfPoints="1741">
         <Points>
            <DataArray Name="Points" NumberOfComponents="3" format="ascii" type="Float32">
0.0000 1.0000 0.0000
0.0000 1.0345 0.0000
0.0000 1.0690 0.0000
0.0000 1.1034 0.0000
0.0000 1.1379 0.0000
0.0000 1.1724 0.0000
0.0000 1.2069 0.0000
0.0000 1.2414 0.0000
0.0000 1.2759 0.0000
0.0000 1.3103 0.0000
0.0000 1.3448 0.0000
0.0000 1.3793 0.0000
0.0000 1.4138 0.0000
0.0000 1.4483 0.0000
0.0000 1.4828 0.0000
0.0000 1.5172 0.0000
0.0000 1.5517 0.0000
0.0000 1.5862 0.0000
0.0000 1.6207 0.0000
0.0000 1.6552 0.0000
0.0000 1.6897 0.0000
0.0000 1.7241 0.0000
0.0000 1.7586 0.0000
0.0000 1.7931 0.0000
0.0000 1.8276 0.0000
0.0000 1.8621 0.0000
0.0000 1.8966 0.0000
0.0000 1.9310 0.0000
0.0000 1.9655 0.0000
0.0000 2.0000 0.0000
0.0690 1.0000 0.0000
0.0690 1.0345 0.0000
0.0690 1.0690 0.0000
0.0690 1.1034 0.0000
0.0690 1.1379 0.0000
0.0690 1.1724 0.0000
0.0690 1.2069 0.0000
0.0690 1.2414 0.0000
0.0690 1.2759 0.0000
0.0690 1.3103 0.0000
0.0690 1.3448 0.0000
0.0690 1.3793 0.0000
0.0690 1.4138 0.0000
0.0690 1.4483 0.0000
0.0690 1.4828 0.0000
0.0690 1.5172 0.0000
0.0690 1.5517 0.0000
0.0690 1.5862 0.0000
0.0690 1.6207 0.0000
0.0690 1.6552 0.0000
0.0690 1.6897 0.0000
0.0690 1.7241 0.0000
0.0690 1.7586 0.0000
0.0690 1.7931 0.0000
0.0690 1.8276 0.0000
0.0690 1.8621 0.0000
0.0690 1.8966 0.0000
0.0690 1.9310 0.0000
0.0690 1.9655 0.0000
0.0690 2.0000 0.0000
0.1379 1.0000 0.0000
0.1379 1.0345 0.0000
0.1379 1.0690 0.0000
0.1379 1.1034 0.0000
0.1379 1.1379 0.0000
0.1379 1.1724 0.0000
0.1379 1.2069 0.0000
0.1379 1.2414 0.0000
0.1379 1.2759 0.0000
0.1379 1.3103 0.0000
0.1379 1.3448 0.0000
0.1379 1.3793 0.0000
0.1379 1.4138 0.0000
0.1379 1.4483 0.0000
0.1379 1.4828 0.0000
0.1379 1.5172 0.0000
0.1379 1.5517 0.0000
0.1379 1.5862 0.0000
0.1379 1.6207 0.0000
0.1379 1.6552 0.0000
0.1379 1.6897 0.0000
0.1379 1.7241 0.0000
0.1379 1.7586 0.0000
0.1379 1.7931 0.0000
0.1379 1.8276 0.0000
0.1379 1.8621 0.0000
0.1379 1.8966 0.0000
0.1379 1.9310 0.0000
0.1379 1.9655 0.0000
0.1379 2.0000 0.0000
0.2069 1.0000 0.0000
0.2069 1.0345 0.0000
0.2069 1.0690 0.0000
0.2069 1.1034 0.0000
0.2069 1.1379 0.0000
0.2069 1.1724 0.0000
0.2069 1.2069 0.0000
0.2069 1.2414 0.0000
0.2069 1.2759 0.0000
0.2069 1.3103 0.0000
0.2069 1.3448 0.0000
0.2069 1.3793 0.0000
0.2069 1.4138 0.0000
0.2069 1.4483 0.0000
0.2069 1.4828 0.0000
0.2069 1.5172 0.0000
0.2069 1.5517 0.0000
0.2069 1.5862 0.0000
0.2069 1.6207 0.0000
0.2069 1.6552 0.0000
0.2069 1.6897 0.0000
0.2069 1.7241 0.0000
0.2069 1.7586 0.0000
0.2069 1.7931 0.0000
0.2069 1.8276 0.0000
0.2069 1.8621 0.0000
0.2069 1.8966 0.0000
0.2069 1.9310 0.0000
0.2069 1.9655 0.0000
0.2069 2.0000 0.0000
0.2759 1.0000 0.0000
0.2759 1.0345 0.0000
0.2759 1.0690 0.0000
0.2759 1.1034 0.0000
0.2759 1.1379 0.0000
0.2759 1.1724 0.0000
0.2759 1.2069 0.0000
0.2759 1.2414 0.0000
0.2759 1.2759 0.0000
0.2759 1.3103 0.0000
0.2759 1.3448 0.0000
0.2759 1.3793 0.0000
0.2759 1.4138 0.0000
0.2759 1.4483 0.0000
0.2759 1.4828 0.0000
0.2759 1.5172 0.0000
0.2759 1.5517 0.0000
0.2759 1.5862 0.0000
0.2759 1.6207 0.0000
0.2759 1.6552 0.0000
0.2759 1.6897 0.0000
0.2759 1.7241 0.0000
0.2759 1.7586 0.0000
0.2759 1.7931 0.0000
0.2759 1.8276 0.0000
0.2759 1.8621 0.0000
0.2759 1.8966 0.0000
0.2759 1.9310 0.0000
0.2759 1.9655 0.0000
0.2759 2.0000 0.0000
0.3448 1.0000 0.0000
0.3448 1.0345 0.0000
0.3448 1.0690 0.0000
0.3448 1.1034 0.0000
0.3448 1.1379 0.0000
0.3448 1.1724 0.0000
0.3448 1.2069 0.0000
0.3448 1.2414 0.0000
0.3448 1.2759 0.0000
0.3448 1.3103 0.0000
0.3448 1.3448 0.0000
0.3448 1.3793 0.0000
0.3448 1.4138 0.0000
0.3448 1.4483 0.0000
0.3448 1.4828 0.0000
0.3448 1.5172 0.0000
0.3448 1.5517 0.0000
0.3448 1.5862 0.0000
0.3448 1.6207 0.0000
0.3448 1.6552 0.0000
0.3448 1.6897 0.0000
0.3448 1.7241 0.0000
0.3448 1.7586 0.0000
0.3448 1.7931 0.0000
0.3448 1.8276 0.0000
0.3448 1.8621 0.0000
0.3448 1.8966 0.0000
0.3448 1.9310 0.0000
0.3448 1.9655 0.0000
0.3448 2.0000 0.0000
0.4138 1.0000 0.0000
0.4138 1.0345 0.0000
0.4138 1.0690 0.0000
0.4138 1.1034 0.0000
0.4138 1.1379 0.0000
0.4138 1.1724 0.0000
0.4138 1.2069 0.0000
0.4138 1.2414 0.0000
0.4138 1.2759 0.0000
0.4138 1.3103 0.0000
0.4138 1.3448 0.0000
0.4138 1.3793 0.0000
0.4138 1.4138 0.0000
0.4138 1.4483 0.0000
0.4138 1.4828 0.0000
0.4138 1.5172 0.0000
0.4138 1.5517 0.0000
0.4138 1.5862 0.0000
0.4138 1.6207 0.0000
0.4138 1.6552 0.0000
0.4138 1.6897 0.0000
0.4138 1.7241 0.0000
0.4138 1.7586 0.0000
0.4138 1.7931 0.0000
0.4138 1.8276 0.0000
0.4138 1.8621 0.0000
0.4138 1.8966 0.0000
0.4138 1.9310 0.0000
0.4138 1.9655 0.0000
0.4138 2.0000 0.0000
0.4828 1.0000 0.0000
0.4828 1.0345 0.0000
0.4828 1.0690 0.0000
0.4828 1.1034 0.0000
0.4828 1.1379 0.0000
0.4828 1.1724 0.0000
0.4828 1.2069 0.0000
0.4828 1.2414 0.0000
0.4828 1.2759 0.0000
0.4828 1.3103 0.0000
0.4828 1.3448 0.0000
0.4828 1.3793 0.0000
0.4828 1.4138 0.0000
0.4828 1.4483 0.0000
0.4828 1.4828 0.0000
0.4828 1.5172 0.0000
0.4828 1.5517 0.0000
0.4828 1.5862 0.0000
0.4828 1.6207 0.0000
0.4828 1.6552 0.0000
0.4828 1.6897 0.0000
0.4828 1.7241 0.0000
0.4828 1.7586 0.0000
0.4828 1.7931 0.0000
0.4828 1.8276 0.0000
0.4828 1.8621 0.0000
0.4828 1.8966 0.0000
0.4828 1.9310 0.0000
0.4828 1.9655 0.0000
0.4828 2.0000 0.0000
0.5517 1.0000 0.0000
0.5517 1.0345 0.0000
0.5517 1.0690 0.0000
0.5517 1.1034 0.0000
0.5517 1.1379 0.0000
0.5517 1.1724 0.0000
0.5517 1.2069 0.0000
0.5517 1.2414 0.0000
0.5517 1.2759 0.0000
0.5517 1.3103 0.0000
0.5517 1.3448 0.0000
0.5517 1.3793 0.0000
0.5517 1.4138 0.0000
0.5517 1.4483 0.0000
0.5517 1.4828 0.0000
0.5517 1.5172 0.0000
0.5517 1.5517 0.0000
0.5517 1.5862 0.0000
0.5517 1.6207 0.0000
0.5517 1.6552 0.0000
0.5517 1.6897 0.0000
0.5517 1.7241 0.0000
0.5517 1.7586 0.0000
0.5517 1.7931 0.0000
0.5517 1.8276 0.0000
0.5517 1.8621 0.0000
0.5517 1.8966 0.0000
0.5517 1.9310 0.0000
0.5517 1.9655 0.0000
0.5517 2.0000 0.0000
0.6207 1.0000 0.0000
0.6207 1.0345 0.0000
0.6207 1.0690 0.0000
0.6207 1.1034 0.0000
0.6207 1.1379 0.0000
0.6207 1.1724 0.0000
0.6207 1.2069 0.0000
0.6207 1.2414 0.0000
0.6207 1.2759 0.0000
0.6207 1.3103 0.0000
0.6207 1.3448 0.0000
0.6207 1.3793 0.0000
0.6207 1.4138 0.0000
0.6207 1.4483 0.0000
0.6207 1.4828 0.0000
0.6207 1.5172 0.0000
0.6207 1.5517 0.0000
0.6207 1.5862 0.0000
0.6207 1.6207 0.0000
0.6207 1.6552 0.0000
0.6207 1.6897 0.0000
0.6207 1.7241 0.0000
0.6207 1.7586 0.0000
0.6207 1.7931 0.0000
0.6207 1.8276 0.0000
0.6207 1.8621 0.0000
0.6207 1.8966 0.0000
0.6207 1.9310 0.0000
0.6207 1.9655 0.0000
0.6207 2.0000 0.0000
0.6897 1.0000 0.0000
0.6897 1.0345 0.0000
0.6897 1.0690 0.0000
0.6897 1.1034 0.0000
0.6897 1.1379 0.0000
0.6897 1.1724 0.0000
0.6897 1.2069 0.0000
0.6897 1.2414 0.0000
0.6897 1.2759 0.0000
0.6897 1.3103 0.0000
0.6897 1.3448 0.0000
0.6897 1.3793 0.0000
0.6897 1.4138 0.0000
0.6897 1.4483 0.0000
0.6897 1.4828 0.0000
0.6897 1.5172 0.0000
0.6897 1.5517 0.0000
0.6897 1.5862 0.0000
0.6897 1.6207 0.0000
0.6897 1.6552 0.0000
0.6897 1.6897 0.0000
0.6897 1.7241 0.0000
0.6897 1.7586 0.0000
0.6897 1.7931 0.0000
0.6897 1.8276 0.0000
0.6897 1.8621 0.0000
0.6897 1.8966 0.0000
0.6897 1.9310 0.0000
0.6897 1.9655 0.0000
0.6897 2.0000 0.0000
0.7586 1.0000 0.0000
0.7586 1.0345 0.0000
0.7586 1.0690 0.0000
0.7586 1.1034 0.0000
0.7586 1.1379 0.0000
0.7586 1.1724 0.0000
0.7586 1.2069 0.0000
0.7586 1.2414 0.0000
0.7586 1.2759 0.0000
0.7586 1.3103 0.0000
0.7586 1.3448 0.0000
0.7586 1.3793 0.0000
0.7586 1.4138 0.0000
0.7586 1.4483 0.0000
0.7586 1.4828 0.0000
0.7586 1.5172 0.0000
0.7586 1.5517 0.0000
0.7586 1.5862 0.0000
0.7586 1.6207 0.0000
0.7586 1.6552 0.0000
0.7586 1.6897 0.0000
0.7586 1.7241 0.0000
0.7586 1.7586 0.0000
0.7586 1.7931 0.0000
0.7586 1.8276 0.0000
0.7586 1.8621 0.0000
0.7586 1.8966 0.0000
0.7586 1.9310 0.0000
0.7586 1.9655 0.0000
0.7586 2.0000 0.0000
0.8276 1.0000 0.0000
0.8276 1.0345 0.0000
0.8276 1.0690 0.0000
0.8276 1.1034 0.0000
0.8276 1.1379 0.0000
0.8276 1.1724 0.0000
0.8276 1.2069 0.0000
0.8276 1.2414 0.0000
0.8276 1.2759 0.0000
0.8276 1.3103 0.0000
0.8276 1.3448 0.0000
0.8276 1.3793 0.0000
0.8276 1.4138 0.0000
0.8276 1.4483 0.0000
0.8276 1.4828 0.0000
0.8276 1.5172 0.0000
0.8276 1.5517 0.0000
0.8276 1.5862 0.0000
0.8276 1.6207 0.0000
0.8276 1.6552 0.0000
0.8276 1.6897 0.0000
0.8276 1.7241 0.0000
0.8276 1.7586 0.0000
0.8276 1.7931 0.0000
0.8276 1.8276 0.0000
0.8276 1.8621 0.0000
0.8276 1.8966 0.0000
0.8276 1.9310 0.0000
0.8276 1.9655 0.0000
0.8276 2.0000 0.0000
0.8966 1.0000 0.0000
0.8966 1.0345 0.0000
0.8966 1.0690 0.0000
0.8966 1.1034 0.0000
0.8966 1.1379 0.0000
0.8966 1.1724 0.0000
0.8966 1.2069 0.0000
0.8966 1.2414 0.0000
0.8966 1.2759 0.0000
0.8966 1.3103 0.0000
0.8966 1.3448 0.0000
0.8966 1.3793 0.0000
0.8966 1.4138 0.0000
0.8966 1.4483 0.0000
0.8966 1.4828 0.0000
0.8966 1.5172 0.0000
0.8966 1.5517 0.0000
0.8966 1.5862 0.0000
0.8966 1.6207 0.0000
0.8966 1.6552 0.0000
0.8966 1.6897 0.0000
0.8966 1.7241 0.0000
0.8966 1.7586 0.0000
0.8966 1.7931 0.0000
0.8966 1.8276 0.0000
0.8966 1.8621 0.0000
0.8966 1.8966 0.0000
0.8966 1.9310 0.0000
0.8966 1.9655 0.0000
0.8966 2.0000 0.0000
0.9655 1.0000 0.0000
0.9655 1.0345 0.0000
0.9655 1.0690 0.0000
0.9655 1.1034 0.0000
0.9655 1.1379 0.0000
0.9655 1.1724 0.0000
0.9655 1.2069 0.0000
0.9655 1.2414 0.0000
0.9655 1.2759 0.0000
0.9655 1.3103 0.0000
0.9655 1.3448 0.0000
0.9655 1.3793 0.0000
0.9655 1.4138 0.0000
0.9655 1.4483 0.0000
0.9655 1.4828 0.0000
0.9655 1.5172 0.0000
0.9655 1.5517 0.0000
0.9655 1.5862 0.0000
0.9655 1.6207 0.0000
0.9655 1.6552 0.0000
0.9655 1.6897 0.0000
0.9655 1.7241 0.0000
0.9655 1.7586 0.0000
0.9655 1.7931 0.0000
0.9655 1.8276 0.0000
0.9655 1.8621 0.0000
0.9655 1.8966 0.0000
0.9655 1.9310 0.0000
0.9655 1.9655 0.0000
0.9655 2.0000 0.0000
1.0345 1.0000 0.0000
1.0345 1.0345 0.0000
1.0345 1.0690 0.0000
1.0345 1.1034 0.0000
1.0345 1.1379 0.0000
1.0345 1.1724 0.0000
1.0345 1.2069 0.0000
1.0345 1.2414 0.0000
1.0345 1.2759 0.0000
1.0345 1.3103 0.0000
1.0345 1.3448 0.0000
[...]
         <PointData>
            <DataArray Name="fValues" NumberOfComponents="3" format="ascii" type="Float64">
-5.17330e-40  2.71862e-39        00000 
 1.55370e-39 -8.07868e-39        00000 
-8.81000e-39  4.52289e-38        00000 
 5.12976e-38 -2.59893e-37        00000 
-2.98680e-37  1.49164e-36        00000 
 1.73739e-36 -8.54151e-36        00000 
-1.00945e-35  4.87790e-35        00000 
 5.85703e-35 -2.77691e-34        00000 
-3.39286e-34  1.57501e-33        00000 
 1.96161e-33 -8.89409e-33        00000 
-1.13150e-32  4.99630e-32        00000 
 6.50841e-32 -2.78908e-31        00000 
-3.73092e-31  1.54505e-30        00000 
 2.12980e-30 -8.47850e-30        00000 
-1.20952e-29  4.59792e-29        00000 
 6.82449e-29 -2.45622e-28        00000 
-3.81917e-28  1.28666e-27        00000 
 2.11501e-27 -6.56539e-27        00000 
-1.15551e-26  3.22940e-26        00000 
 6.20329e-26 -1.50359e-25        00000 
-3.25802e-25  6.37201e-25        00000 
 1.67027e-24 -2.19496e-24        00000 
-7.91793e-24  6.61790e-24        00000 
 3.57070e-23 -8.97174e-25        00000 
-1.45981e-22 -1.34501e-22        00000 
 5.16799e-22  8.95514e-22        00000 
-1.49271e-21 -3.02196e-21        00000 
 3.28967e-21  6.15910e-21        00000 
-5.34624e-21 -8.80380e-21        00000 
 6.29606e-21  9.77535e-21        00000 
 5.16185e-40 -2.75366e-39        00000 
-1.55142e-39  8.19801e-39        00000 
 8.80548e-39 -4.60044e-38        00000 
-5.13262e-38  2.65027e-37        00000 
 2.99219e-37 -1.52557e-36        00000 
-1.74307e-36  8.76540e-36        00000 
 1.01449e-35 -5.02542e-35        00000 
-5.89822e-35  2.87399e-34        00000 
 3.42494e-34 -1.63883e-33        00000 
-1.98585e-33  9.31328e-33        00000 
 1.14942e-32 -5.27138e-32        00000 
-6.63896e-32  2.96940e-31        00000 
 3.82498e-31 -1.66310e-30        00000 
-2.19702e-30  9.25013e-30        00000 
 1.25724e-29 -5.10114e-29        00000 
-7.16158e-29  2.78335e-28        00000 
 4.05613e-28 -1.49838e-27        00000 
-2.28074e-27  7.92716e-27        00000 
 1.27061e-26 -4.09821e-26        00000 
-6.99305e-26  2.05300e-25        00000 
 3.78535e-25 -9.83947e-25        00000 
-2.00193e-24  4.40229e-24        00000 
 1.03200e-23 -1.73004e-23        00000 
-5.08317e-23  5.05555e-23        00000 
 2.34015e-22 -2.20322e-23        00000 
-9.72372e-22 -1.08302e-21        00000 
 3.43823e-21  7.46335e-21        00000 
-9.24262e-21 -1.92432e-20        00000 
 1.72929e-20  2.84520e-20        00000 
-2.14332e-20 -3.11716e-20        00000 
-5.11718e-40  2.84561e-39        00000 
 1.54100e-39 -8.51227e-39        00000 
-8.76807e-39  4.80531e-38        00000 
 5.12498e-38 -2.78624e-37        00000 
-2.99733e-37  1.61563e-36        00000 
 1.75259e-36 -9.36062e-36        00000 
-1.02448e-35  5.41813e-35        00000 
 5.98676e-35 -3.13274e-34        00000 
-3.49722e-34  1.80911e-33        00000 
 2.04211e-33 -1.04327e-32        00000 
-1.19190e-32  6.00661e-32        00000 
 6.95300e-32 -3.45187e-31        00000 
-4.05370e-31  1.97940e-30        00000 
 2.36179e-30 -1.13212e-29        00000 
-1.37498e-29  6.45516e-29        00000 
 7.99756e-29 -3.66665e-28        00000 
-4.64670e-28  2.07284e-27        00000 
 2.69606e-27 -1.16470e-26        00000 
-1.56134e-26  6.49213e-26        00000 
 9.01661e-26 -3.58042e-25        00000 
-5.18203e-25  1.94732e-24        00000 
 2.94479e-24 -1.04629e-23        00000 
-1.67930e-23  5.22075e-23        00000 
 9.35494e-23 -2.43288e-22        00000 
-5.05411e-22  9.24194e-22        00000 
 2.55718e-21 -1.75377e-21        00000 
-1.13128e-20 -1.55074e-20        00000 
 4.38659e-20  1.25962e-19        00000 
-1.04868e-19 -1.75403e-19        00000 
 1.48969e-19  1.85517e-19        00000 
 5.01266e-40 -2.95888e-39        00000 
-1.51318e-39  8.90340e-39        00000 
 8.63621e-39 -5.06264e-38        00000 
-5.06501e-38  2.95824e-37        00000 
 2.97378e-37 -1.73020e-36        00000 
-1.74661e-36  1.01214e-35        00000 
 1.02625e-35 -5.92200e-35        00000 
-6.03280e-35  3.46575e-34        00000 
 3.54835e-34 -2.02883e-33        00000 
-2.08845e-33  1.18805e-32        00000 
 1.23017e-32 -6.95957e-32        00000 
-7.25308e-32  4.07859e-31        00000 
 4.28127e-31 -2.39129e-30        00000 
-2.53054e-30  1.40267e-29        00000 
 1.49817e-29 -8.23134e-29        00000 
-8.88676e-29  4.83211e-28        00000 
 5.28344e-28 -2.83704e-27        00000 
-3.14954e-27  1.66527e-26        00000 
 1.88329e-26 -9.76504e-26        00000 
-1.13013e-25  5.71272e-25        00000 
 6.81059e-25 -3.32497e-24        00000 
-4.13569e-24  1.90864e-23        00000 
 2.48124e-23 -1.10796e-22        00000 
-1.49982e-22  6.24071e-22        00000 
 9.04200e-22 -3.35989e-21        00000 
-5.40044e-21  1.55279e-20        00000 
 3.07240e-20 -4.06268e-20        00000 
-1.39972e-19 -2.47319e-19        00000 
 6.45998e-19  2.61670e-18        00000 
-9.47440e-19 -6.87921e-19        00000 
-4.81669e-40  3.04590e-39        00000 
 1.45698e-39 -9.21382e-39        00000 
-8.33667e-39  5.27276e-38        00000 
 4.90300e-38 -3.10172e-37        00000 
-2.88778e-37  1.82742e-36        00000 
 1.70219e-36 -1.07758e-35        00000 
-1.00423e-35  6.36017e-35        00000 
 5.93051e-35 -3.75791e-34        00000 
-3.50634e-34  2.22298e-33        00000 
 2.07583e-33 -1.31672e-32        00000 
-1.23082e-32  7.81064e-32        00000 
 7.31080e-32 -4.64068e-31        00000 
-4.35132e-31  2.76219e-30        00000 
 2.59598e-30 -1.64733e-29        00000 
-1.55298e-29  9.84563e-29        00000 
 9.31974e-29 -5.89824e-28        00000 
-5.61346e-28  3.54237e-27        00000 
 3.39554e-27 -2.13315e-26        00000 
-2.06421e-26  1.28807e-25        00000 
 1.26229e-25 -7.79884e-25        00000 
-7.77326e-25  4.73347e-24        00000 
 4.81999e-24 -2.88215e-23        00000 
-3.01578e-23  1.76323e-22        00000 
 1.91295e-22 -1.07635e-21        00000 
-1.21943e-21  6.74063e-21        00000 
 7.92503e-21 -4.33699e-20        00000 
-5.47058e-20  2.57728e-19        00000 
 3.91441e-19 -1.30181e-18        00000 
-1.52999e-18 -4.03658e-18        00000 
-1.52023e-02  1.60485e-01        00000 
 4.50635e-40 -3.06066e-39        00000 
-1.36434e-39  9.29199e-39        00000 
 7.81551e-39 -5.34031e-38        00000 
-4.60219e-38  3.15523e-37        00000 
 2.71436e-37 -1.86761e-36        00000 
-1.60243e-36  1.10674e-35        00000 
 9.46976e-36 -6.56678e-35        00000 
-5.60274e-35  3.90173e-34        00000 
 3.31914e-34 -2.32177e-33        00000 
-1.96917e-33  1.38390e-32        00000 
 1.17018e-32 -8.26383e-32        00000 
-6.96664e-32  4.94461e-31        00000 
 4.15618e-31 -2.96514e-30        00000 
-2.48529e-30  1.78247e-29        00000 
 1.49005e-29 -1.07443e-28        00000 
-8.96010e-29  6.49607e-28        00000 
 5.40611e-28 -3.94099e-27        00000 
-3.27430e-27  2.40021e-26        00000 
 1.99187e-26 -1.46844e-25        00000 
-1.21789e-25  9.03250e-25        00000 
 7.49048e-25 -5.59370e-24        00000 
-4.64199e-24  3.49360e-23        00000 
 2.90771e-23 -2.20302e-22        00000 
-1.85147e-22  1.40209e-21        00000 
 1.23201e-21 -8.55026e-21        00000 
-7.41546e-21  6.33454e-20        00000 
 5.19843e-20 -4.52092e-19        00000 
-4.14826e-19  3.70903e-18        00000 
 1.94293e-18 -3.20971e-01        00000 
-5.94926e-17  7.36546e-01        00000 
-4.07797e-40  2.97135e-39        00000 
 1.23377e-39 -9.03413e-39        00000 
-7.06154e-39  5.20074e-38        00000 
 4.15447e-38 -3.07767e-37        00000 
-2.44783e-37  1.82459e-36        00000 
 1.44342e-36 -1.08294e-35        00000 
-8.51867e-36  6.43528e-35        00000 
 5.03211e-35 -3.82912e-34        00000 
-2.97552e-34  2.28163e-33        00000 
 1.76136e-33 -1.36162e-32        00000 
-1.04385e-32  8.13932e-32        00000 
 6.19410e-32 -4.87422e-31        00000 
-3.68045e-31  2.92469e-30        00000 
 2.19000e-30 -1.75871e-29        00000 
-1.30509e-29  1.06011e-28        00000 
 7.78966e-29 -6.40721e-28        00000 
-4.65691e-28  3.88421e-27        00000 
 2.78857e-27 -2.36292e-26        00000 
-1.67245e-26  1.44335e-25        00000 
 1.00452e-25 -8.85996e-25        00000 
-6.04116e-25  5.47155e-24        00000 
 3.63623e-24 -3.40475e-23        00000 
-2.18718e-23  2.14152e-22        00000 
 1.30769e-22 -1.37424e-21        00000 
-7.46354e-22  9.68500e-21        00000 
 3.94432e-21 -5.74331e-20        00000 
-2.01414e-20  3.83022e-19        00000 
 5.20754e-20 -2.49314e-18        00000 
 2.60990e-18  6.26377e-18        00000 
 1.52023e-02  1.60485e-01        00000 
 3.55100e-40 -2.76817e-39        00000 
-1.07155e-39  8.40979e-39        00000 
 6.11383e-39 -4.83627e-38        00000 
-3.58498e-38  2.85849e-37        00000 
 2.10453e-37 -1.69217e-36        00000 
-1.23591e-36  1.00259e-35        00000 
 7.26055e-36 -5.94537e-35        00000 
-4.26674e-35  3.52886e-34        00000 
 2.50816e-34 -2.09657e-33        00000 
-1.47479e-33  1.24687e-32        00000 
 8.67336e-33 -7.42320e-32        00000 
-5.10136e-32  4.42424e-31        00000 
 3.00028e-31 -2.63988e-30        00000 
-1.76412e-30  1.57706e-29        00000 
 1.03671e-29 -9.43296e-29        00000 
-6.08662e-29  5.64943e-28        00000 
 3.56809e-28 -3.38790e-27        00000 
-2.08679e-27  2.03436e-26        00000 
 1.21614e-26 -1.22314e-25        00000 
-7.04951e-26  7.36212e-25        00000 
 4.05267e-25 -4.43433e-24        00000 
-2.29899e-24  2.67049e-23        00000 
 1.27492e-23 -1.60472e-22        00000 
-6.78590e-23  9.54412e-22        00000 
 3.45239e-22 -5.03635e-21        00000 
-8.79222e-22  3.24655e-20        00000 
-1.48557e-21 -1.65413e-19        00000 
 7.21985e-20  5.83622e-19        00000 
 2.59058e-19 -1.03623e-18        00000 
       00000  7.27738e-18        00000 
-2.96400e-40  2.46448e-39        00000 
 8.90324e-40 -7.46484e-39        00000 
-5.05168e-39  4.27713e-38        00000 
 2.94493e-38 -2.51813e-37        00000 
-1.71775e-37  1.48419e-36        00000 
 1.00164e-36 -8.75083e-36        00000 
-5.83817e-36  5.16101e-35        00000 
 3.40089e-35 -3.04460e-34        00000 
-1.97964e-34  1.79643e-33        00000 
 1.15123e-33 -1.06010e-32        00000 
-6.68648e-33  6.25608e-32        00000 
 3.87737e-32 -3.69163e-31        00000 
-2.24378e-31  2.17783e-30        00000 
 1.29497e-30 -1.28418e-29        00000 
-7.44778e-30  7.56653e-29        00000 
 4.26393e-29 -4.45300e-28        00000 
-2.42641e-28  2.61603e-27        00000 
 1.36956e-27 -1.53284e-26        00000 
-7.64462e-27  8.94664e-26        00000 
 4.20061e-26 -5.19130e-25        00000 
-2.25603e-25  2.98503e-24        00000 
 1.17040e-24 -1.69133e-23        00000 
-5.74796e-24  9.33927e-23        00000 
 2.58465e-23 -4.90707e-22        00000 
-9.68682e-23  2.60746e-21        00000 
-6.44128e-23 -1.13586e-20        00000 
 1.84556e-21  3.52368e-20        00000 
 8.49555e-21 -9.33622e-22        00000 
-3.27005e-20  2.60823e-19        00000 
 3.43019e-20 -5.48655e-19        00000 
 2.36519e-40 -2.09168e-39        00000 
-7.05781e-40  6.30345e-39        00000 
 3.97280e-39 -3.58949e-38        00000 
-2.29676e-38  2.09964e-37        00000 
 1.32752e-37 -1.22878e-36        00000 
-7.66377e-37  7.18848e-36        00000 
 4.41777e-36 -4.20313e-35        00000 
-2.54213e-35  2.45592e-34        00000 
 1.45973e-34 -1.43377e-33        00000 
-8.36057e-34  8.36128e-33        00000 
 4.77365e-33 -4.86927e-32        00000 
-2.71529e-32  2.83071e-31        00000 
 1.53728e-31 -1.64197e-30        00000 
-8.65298e-31  9.49756e-30        00000 
 4.83518e-30 -5.47378e-29        00000 
-2.67692e-29  3.13998e-28        00000 
 1.46441e-28 -1.79017e-27        00000 
-7.88607e-28  1.01227e-26        00000 
 4.15786e-27 -5.66042e-26        00000 
-2.12892e-26  3.11628e-25        00000 
 1.04521e-25 -1.67772e-24        00000 
-4.81730e-25  8.73911e-24        00000 
 2.00355e-24 -4.33445e-23        00000 
-6.76388e-24  2.02265e-22        00000 
 9.23144e-24 -7.84566e-22        00000 
-6.23054e-23  2.46891e-21        00000 
 9.41874e-22 -1.25108e-21        00000 
-3.80642e-21  1.01603e-20        00000 
 2.49516e-21 -6.62779e-20        00000 
-5.33429e-21  6.79213e-20        00000 
-1.80113e-40  1.69011e-39        00000 
 5.32873e-40 -5.05725e-39        00000 
-2.96864e-39  2.85533e-38        00000 
 1.69784e-38 -1.65538e-37        00000 
-9.69905e-38  9.59430e-37        00000 
 5.52774e-37 -5.55347e-36        00000 
-3.14175e-36  3.20949e-35        00000 
 1.77990e-35 -1.85140e-34        00000 
-1.00455e-34  1.06562e-33        00000 
 5.64410e-34 -6.11719e-33        00000 
-3.15418e-33  3.50035e-32        00000 
 1.75135e-32 -1.99521e-31        00000 
-9.64857e-32  1.13190e-30        00000 
 5.26489e-31 -6.38401e-30        00000 
-2.83896e-30  3.57455e-29        00000 
 1.50819e-29 -1.98319e-28        00000 
-7.86149e-29  1.08745e-27        00000 
 3.99799e-28 -5.87244e-27        00000 
-1.96778e-27  3.10763e-26        00000 
 9.26417e-27 -1.60001e-25        00000 
-4.09846e-26  7.93090e-25        00000 
 1.65703e-25 -3.72606e-24        00000 
-5.85557e-25  1.62012e-23        00000 
 1.75846e-24 -6.11034e-23        00000 
-8.50697e-24  1.86915e-22        00000 
 5.98841e-23 -3.45875e-22        00000 
-2.49083e-22  9.20765e-22        00000 
 4.44266e-22 -4.46038e-21        00000 
-1.23495e-21 -8.08574e-22        00000 
 1.45242e-21 -9.67255e-21        00000 
 1.30748e-40 -1.29921e-39        00000 
-3.82788e-40  3.85269e-39        00000 
 2.10572e-39 -2.15180e-38        00000 
-1.18862e-38  1.23356e-37        00000 
 6.69399e-38 -7.06278e-37        00000 
-3.75615e-37  4.03410e-36        00000 
 2.09874e-36 -2.29770e-35        00000 
-1.16691e-35  1.30440e-34        00000 
 6.45089e-35 -7.37653e-34        00000 
-3.54218e-34  4.15260e-33        00000 
 1.92955e-33 -2.32511e-32        00000 
-1.04115e-32  1.29349e-31        00000 
 5.55398e-32 -7.14012e-31        00000 
-2.92197e-31  3.90419e-30        00000 
 1.51136e-30 -2.11003e-29        00000 
-7.65426e-30  1.12391e-28        00000 
 3.77522e-29 -5.87755e-28        00000 
-1.80037e-28  3.00208e-27        00000 
 8.22245e-28 -1.48690e-26        00000 
-3.55193e-27  7.06900e-26        00000 
 1.43086e-26 -3.17875e-25        00000 
-5.34051e-26  1.32179e-24        00000 
 1.93963e-25 -4.87932e-24        00000 
-8.53260e-25  1.52007e-23        00000 
 4.38848e-24 -3.69433e-23        00000 
-1.77476e-23  9.02603e-23        00000 
 4.59772e-23 -2.78217e-22        00000 
-1.03833e-22  3.90831e-22        00000 
 1.83233e-22 -5.39521e-22        00000 
-2.22632e-22  7.24414e-22        00000 
-9.04219e-41  9.49863e-40        00000 
 2.61485e-40 -2.78633e-39        00000 
-1.41722e-39  1.53605e-38        00000 
 7.87779e-39 -8.68764e-38        00000 
-4.36332e-38  4.90199e-37        00000 
 2.40436e-37 -2.75572e-36        00000 
-1.31707e-36  1.54254e-35        00000 
 7.16553e-36 -8.59174e-35        00000 
-3.86764e-35  4.75796e-34        00000 
 2.06836e-34 -2.61714e-33        00000 
-1.09418e-33  1.42816e-32        00000 
 5.71451e-33 -7.72014e-32        00000 
-2.93918e-32  4.12628e-31        00000 
 1.48424e-31 -2.17547e-30        00000 
-7.33071e-31  1.12796e-29        00000 
 3.52421e-30 -5.72890e-29        00000 
-1.63930e-29  2.83551e-28        00000 
 7.32566e-29 -1.35816e-27        00000 
-3.12137e-28  6.23621e-27        00000 
 1.26186e-27 -2.70901e-26        00000 
-4.87569e-27  1.09246e-25        00000 
 1.87777e-26 -3.97718e-25        00000 
-7.84204e-26  1.26456e-24        00000 
 3.46745e-25 -3.41727e-24        00000 
-1.34506e-24  8.55305e-24        00000 
 3.98231e-24 -2.21586e-23        00000 
-9.53481e-24  4.46661e-23        00000 
 1.88326e-23 -6.86108e-23        00000 
-2.91516e-23  9.29350e-23        00000 
 3.38665e-23 -1.05843e-22        00000 
 5.95618e-41 -6.60453e-40        00000 
-1.69839e-40  1.91307e-39        00000 
 9.05016e-40 -1.03874e-38        00000 
-4.94338e-39  5.78356e-38        00000 
 2.68675e-38 -3.20854e-37        00000 
-1.45042e-37  1.77081e-36        00000 
 7.76935e-37 -9.71514e-36        00000 
-4.12485e-36  5.29354e-35        00000 
 2.16755e-35 -2.86150e-34        00000 
-1.12554e-34  1.53259e-33        00000 
 5.76410e-34 -8.11981e-33        00000 
-2.90434e-33  4.24720e-32        00000 
 1.43570e-32 -2.18792e-31        00000 
-6.93874e-32  1.10662e-30        00000 
 3.26525e-31 -5.47405e-30        00000 
-1.48912e-30  2.63498e-29        00000 
 6.54885e-30 -1.22621e-28        00000 
-2.76608e-29  5.46939e-28        00000 
 1.12182e-28 -2.31166e-27        00000 
-4.41104e-28  9.11715e-27        00000 
 1.72734e-27 -3.28879e-26        00000 
-6.97028e-27  1.06156e-25        00000 
 2.84321e-26 -3.02535e-25        00000 
-1.06300e-25  7.85227e-25        00000 
 3.31918e-25 -1.95122e-24        00000 
-8.55451e-25  4.29844e-24        00000 
 1.84109e-24 -7.77445e-24        00000 
-3.27163e-24  1.17392e-23        00000 
 4.67936e-24 -1.52494e-23        00000 
-5.28367e-24  1.67485e-23        00000 
-3.73727e-41  4.36795e-40        00000 
 1.04908e-40 -1.24722e-39        00000 
-5.48521e-40  6.65603e-39        00000 
 2.93834e-39 -3.64066e-38        00000 
-1.56385e-38  1.98133e-37        00000 
 8.25261e-38 -1.07096e-36        00000 
-4.31294e-37  5.74370e-36        00000 
 2.22919e-36 -3.05293e-35        00000 
-1.13766e-35  1.60602e-34        00000 
 5.72202e-35 -8.34780e-34        00000 
-2.83000e-34  4.27866e-33        00000 
 1.37275e-33 -2.15718e-32        00000 
-6.51108e-33  1.06656e-31        00000 
 3.00951e-32 -5.15181e-31        00000 
-1.35071e-31  2.41958e-30        00000 
 5.86693e-31 -1.09826e-29        00000 
-2.46155e-30  4.78099e-29        00000 
 9.99143e-30 -1.97659e-28        00000 
-3.95515e-29  7.66515e-28        00000 
 1.55092e-28 -2.74687e-27        00000 
-6.10581e-28  8.95840e-27        00000 
 2.37570e-27 -2.63486e-26        00000 
-8.63534e-27  7.06407e-26        00000 
 2.75500e-26 -1.76497e-25        00000 
-7.49901e-26  4.03077e-25        00000 
 1.73519e-25 -8.02166e-25        00000 
-3.40112e-25  1.36114e-24        00000 
 5.58213e-25 -1.98343e-24        00000 
-7.56487e-25  2.49838e-24        00000 
 8.38108e-25 -2.70323e-24        00000 
 2.23452e-41 -2.74837e-40        00000 
-6.16558e-41  7.72331e-40        00000 
 3.15731e-40 -4.04293e-39        00000 
-1.65571e-39  2.16797e-38        00000 
 8.61305e-39 -1.15492e-37        00000 
-4.43462e-38  6.09973e-37        00000 
 2.25675e-37 -3.19003e-36        00000 
-1.13335e-36  1.64964e-35        00000 
 5.60691e-36 -8.42104e-35        00000 
-2.72689e-35  4.23491e-34        00000 
 1.30072e-34 -2.09299e-33        00000 
-6.06942e-34  1.01356e-32        00000 
 2.76286e-33 -4.79201e-32        00000 
-1.22361e-32  2.20210e-31        00000 
 5.26078e-32 -9.78172e-31        00000 
-2.19397e-31  4.17156e-30        00000 
 8.89165e-31 -1.69374e-29        00000 
-3.52181e-30  6.48147e-29        00000 
 1.37483e-29 -2.31088e-28        00000 
-5.31252e-29  7.58983e-28        00000 
 2.00591e-28 -2.27962e-27        00000 
-7.14306e-28  6.27678e-27        00000 
 2.29841e-27 -1.59921e-26        00000 
-6.49284e-27  3.75344e-26        00000 
 1.59143e-26 -7.92054e-26        00000 
-3.36767e-26  1.46778e-25        00000 
 6.11436e-26 -2.36899e-25        00000 
-9.44325e-26  3.33640e-25        00000 
 1.23035e-25 -4.10517e-25        00000 
-1.34466e-25  4.40171e-25        00000 
-1.27385e-41  1.64585e-40        00000 
 3.45026e-41 -4.54464e-40        00000 
-1.72755e-40  2.32896e-39        00000 
 8.85451e-40 -1.22198e-38        00000 
-4.49498e-39  6.35900e-38        00000 
 2.25447e-38 -3.27444e-37        00000 
-1.11547e-37  1.66598e-36        00000 
 5.43559e-37 -8.36096e-36        00000 
-2.60374e-36  4.13075e-35        00000 
 1.22354e-35 -2.00427e-34        00000 
-5.62794e-35  9.52367e-34        00000 
 2.52827e-34 -4.41657e-33        00000 
-1.10700e-33  1.99070e-32        00000 
 4.71713e-33 -8.67764e-32        00000 
-1.95558e-32  3.63630e-31        00000 
 7.89938e-32 -1.45434e-30        00000 
-3.12008e-31  5.50556e-30        00000 