<?xml version="1.0" encoding="utf-8"?>
<VTKFile byte_order="LittleEndian" type="UnstructuredGrid" version="0.1">
   <UnstructuredGrid>
      <Piece NumberOfCells="3364" NumberOfPoints="1741">
         <Points>
            <DataArray Name="Points" NumberOfComponents="3" format="ascii" type="Float32">
0.0000 1.0000 0.0000
0.0000 1.0345 0.0000
0.0000 1.0690 0.0000
0.0000 1.1034 0.0000
0.0000 1.1379 0.0000
0.0000 1.1724 0.0000
0.0000 1.2069 0.0000
0.0000 1.2414 0.0000
0.0000 1.2759 0.0000
0.0000 1.3103 0.0000
0.0000 1.3448 0.0000
0.0000 1.3793 0.0000
0.0000 1.4138 0.0000
0.0000 1.4483 0.0000
0.0000 1.4828 0.0000
0.0000 1.5172 0.0000
0.0000 1.5517 0.0000
0.0000 1.5862 0.0000
0.0000 1.6207 0.0000
0.0000 1.6552 0.0000
0.0000 1.6897 0.0000
0.0000 1.7241 0.0000
0.0000 1.7586 0.0000
0.0000 1.7931 0.0000
0.0000 1.8276 0.0000
0.0000 1.8621 0.0000
0.0000 1.8966 0.0000
0.0000 1.9310 0.0000
0.0000 1.9655 0.0000
0.0000 2.0000 0.0000
0.0690 1.0000 0.0000
0.0690 1.0345 0.0000
0.0690 1.0690 0.0000
0.0690 1.1034 0.0000
0.0690 1.1379 0.0000
0.0690 1.1724 0.0000
0.0690 1.2069 0.0000
0.0690 1.2414 0.0000
0.0690 1.2759 0.0000
0.0690 1.3103 0.0000
0.0690 1.3448 0.0000
0.0690 1.3793 0.0000
0.0690 1.4138 0.0000
0.0690 1.4483 0.0000
0.0690 1.4828 0.0000
0.0690 1.5172 0.0000
0.0690 1.5517 0.0000
0.0690 1.5862 0.0000
0.0690 1.6207 0.0000
0.0690 1.6552 0.0000
0.0690 1.6897 0.0000
0.0690 1.7241 0.0000
0.0690 1.7586 0.0000
0.0690 1.7931 0.0000
0.0690 1.8276 0.0000
0.0690 1.8621 0.0000
0.0690 1.8966 0.0000
0.0690 1.9310 0.0000
0.0690 1.9655 0.0000
0.0690 2.0000 0.0000
0.1379 1.0000 0.0000
0.1379 1.0345 0.0000
0.1379 1.0690 0.0000
0.1379 1.1034 0.0000
0.1379 1.1379 0.0000
0.1379 1.1724 0.0000
0.1379 1.2069 0.0000
0.1379 1.2414 0.0000
0.1379 1.2759 0.0000
0.1379 1.3103 0.0000
0.1379 1.3448 0.0000
0.1379 1.3793 0.0000
0.1379 1.4138 0.0000
0.1379 1.4483 0.0000
0.1379 1.4828 0.0000
0.1379 1.5172 0.0000
0.1379 1.5517 0.0000
0.1379 1.5862 0.0000
0.1379 1.6207 0.0000
0.1379 1.6552 0.0000
0.1379 1.6897 0.0000
0.1379 1.7241 0.0000
0.1379 1.7586 0.0000
0.1379 1.7931 0.0000
0.1379 1.8276 0.0000
0.1379 1.8621 0.0000
0.1379 1.8966 0.0000
0.1379 1.9310 0.0000
0.1379 1.9655 0.0000
0.1379 2.0000 0.0000
0.2069 1.0000 0.0000
0.2069 1.0345 0.0000
0.2069 1.0690 0.0000
0.2069 1.1034 0.0000
0.2069 1.1379 0.0000
0.2069 1.1724 0.0000
0.2069 1.2069 0.0000
0.2069 1.2414 0.0000
0.2069 1.2759 0.0000
0.2069 1.3103 0.0000
0.2069 1.3448 0.0000
0.2069 1.3793 0.0000
0.2069 1.4138 0.0000
0.2069 1.4483 0.0000
0.2069 1.4828 0.0000
0.2069 1.5172 0.0000
0.2069 1.5517 0.0000
0.2069 1.5862 0.0000
0.2069 1.6207 0.0000
0.2069 1.6552 0.0000
0.2069 1.6897 0.0000
0.2069 1.7241 0.0000
0.2069 1.7586 0.0000
0.2069 1.7931 0.0000
0.2069 1.8276 0.0000
0.2069 1.8621 0.0000
0.2069 1.8966 0.0000
0.2069 1.9310 0.0000
0.2069 1.9655 0.0000
0.2069 2.0000 0.0000
0.2759 1.0000 0.0000
0.2759 1.0345 0.0000
0.2759 1.0690 0.0000
0.2759 1.1034 0.0000
0.2759 1.1379 0.0000
0.2759 1.1724 0.0000
0.2759 1.2069 0.0000
0.2759 1.2414 0.0000
0.2759 1.2759 0.0000
0.2759 1.3103 0.0000
0.2759 1.3448 0.0000
0.2759 1.3793 0.0000
0.2759 1.4138 0.0000
0.2759 1.4483 0.0000
0.2759 1.4828 0.0000
0.2759 1.5172 0.0000
0.2759 1.5517 0.0000
0.2759 1.5862 0.0000
0.2759 1.6207 0.0000
0.2759 1.6552 0.0000
0.2759 1.6897 0.0000
0.2759 1.7241 0.0000
0.2759 1.7586 0.0000
0.2759 1.7931 0.0000
0.2759 1.8276 0.0000
0.2759 1.8621 0.0000
0.2759 1.8966 0.0000
0.2759 1.9310 0.0000
0.2759 1.9655 0.0000
0.2759 2.0000 0.0000
0.3448 1.0000 0.0000
0.3448 1.0345 0.0000
0.3448 1.0690 0.0000
0.3448 1.1034 0.0000
0.3448 1.1379 0.0000
0.3448 1.1724 0.0000
0.3448 1.2069 0.0000
0.3448 1.2414 0.0000
0.3448 1.2759 0.0000
0.3448 1.3103 0.0000
0.3448 1.3448 0.0000
0.3448 1.3793 0.0000
0.3448 1.4138 0.0000
0.3448 1.4483 0.0000
0.3448 1.4828 0.0000
0.3448 1.5172 0.0000
0.3448 1.5517 0.0000
0.3448 1.5862 0.0000
0.3448 1.6207 0.0000
0.3448 1.6552 0.0000
0.3448 1.6897 0.0000
0.3448 1.7241 0.0000
0.3448 1.7586 0.0000
0.3448 1.7931 0.0000
0.3448 1.8276 0.0000
0.3448 1.8621 0.0000
0.3448 1.8966 0.0000
0.3448 1.9310 0.0000
0.3448 1.9655 0.0000
0.3448 2.0000 0.0000
0.4138 1.0000 0.0000
0.4138 1.0345 0.0000
0.4138 1.0690 0.0000
0.4138 1.1034 0.0000
0.4138 1.1379 0.0000
0.4138 1.1724 0.0000
0.4138 1.2069 0.0000
0.4138 1.2414 0.0000
0.4138 1.2759 0.0000
0.4138 1.3103 0.0000
0.4138 1.3448 0.0000
0.4138 1.3793 0.0000
0.4138 1.4138 0.0000
0.4138 1.4483 0.0000
0.4138 1.4828 0.0000
0.4138 1.5172 0.0000
0.4138 1.5517 0.0000
0.4138 1.5862 0.0000
0.4138 1.6207 0.0000
0.4138 1.6552 0.0000
0.4138 1.6897 0.0000
0.4138 1.7241 0.0000
0.4138 1.7586 0.0000
0.4138 1.7931 0.0000
0.4138 1.8276 0.0000
0.4138 1.8621 0.0000
0.4138 1.8966 0.0000
0.4138 1.9310 0.0000
0.4138 1.9655 0.0000
0.4138 2.0000 0.0000
0.4828 1.0000 0.0000
0.4828 1.0345 0.0000
0.4828 1.0690 0.0000
0.4828 1.1034 0.0000
0.4828 1.1379 0.0000
0.4828 1.1724 0.0000
0.4828 1.2069 0.0000
0.4828 1.2414 0.0000
0.4828 1.2759 0.0000
0.4828 1.3103 0.0000
0.4828 1.3448 0.0000
0.4828 1.3793 0.0000
0.4828 1.4138 0.0000
0.4828 1.4483 0.0000
0.4828 1.4828 0.0000
0.4828 1.5172 0.0000
0.4828 1.5517 0.0000
0.4828 1.5862 0.0000
0.4828 1.6207 0.0000
0.4828 1.6552 0.0000
0.4828 1.6897 0.0000
0.4828 1.7241 0.0000
0.4828 1.7586 0.0000
0.4828 1.7931 0.0000
0.4828 1.8276 0.0000
0.4828 1.8621 0.0000
0.4828 1.8966 0.0000
0.4828 1.9310 0.0000
0.4828 1.9655 0.0000
0.4828 2.0000 0.0000
0.5517 1.0000 0.0000
0.5517 1.0345 0.0000
0.5517 1.0690 0.0000
0.5517 1.1034 0.0000
0.5517 1.1379 0.0000
0.5517 1.1724 0.0000
0.5517 1.2069 0.0000
0.5517 1.2414 0.0000
0.5517 1.2759 0.0000
0.5517 1.3103 0.0000
0.5517 1.3448 0.0000
0.5517 1.3793 0.0000
0.5517 1.4138 0.0000
0.5517 1.4483 0.0000
0.5517 1.4828 0.0000
0.5517 1.5172 0.0000
0.5517 1.5517 0.0000
0.5517 1.5862 0.0000
0.5517 1.6207 0.0000
0.5517 1.6552 0.0000
0.5517 1.6897 0.0000
0.5517 1.7241 0.0000
0.5517 1.7586 0.0000
0.5517 1.7931 0.0000
0.5517 1.8276 0.0000
0.5517 1.8621 0.0000
0.5517 1.8966 0.0000
0.5517 1.9310 0.0000
0.5517 1.9655 0.0000
0.5517 2.0000 0.0000
0.6207 1.0000 0.0000
0.6207 1.0345 0.0000
0.6207 1.0690 0.0000
0.6207 1.1034 0.0000
0.6207 1.1379 0.0000
0.6207 1.1724 0.0000
0.6207 1.2069 0.0000
0.6207 1.2414 0.0000
0.6207 1.2759 0.0000
0.6207 1.3103 0.0000
0.6207 1.3448 0.0000
0.6207 1.3793 0.0000
0.6207 1.4138 0.0000
0.6207 1.4483 0.0000
0.6207 1.4828 0.0000
0.6207 1.5172 0.0000
0.6207 1.5517 0.0000
0.6207 1.5862 0.0000
0.6207 1.6207 0.0000
0.6207 1.6552 0.0000
0.6207 1.6897 0.0000
0.6207 1.7241 0.0000
0.6207 1.7586 0.0000
0.6207 1.7931 0.0000
0.6207 1.8276 0.0000
0.6207 1.8621 0.0000
0.6207 1.8966 0.0000
0.6207 1.9310 0.0000
0.6207 1.9655 0.0000
0.6207 2.0000 0.0000
0.6897 1.0000 0.0000
0.6897 1.0345 0.0000
0.6897 1.0690 0.0000
0.6897 1.1034 0.0000
0.6897 1.1379 0.0000
0.6897 1.1724 0.0000
0.6897 1.2069 0.0000
0.6897 1.2414 0.0000
0.6897 1.2759 0.0000
0.6897 1.3103 0.0000
0.6897 1.3448 0.0000
0.6897 1.3793 0.0000
0.6897 1.4138 0.0000
0.6897 1.4483 0.0000
0.6897 1.4828 0.0000
0.6897 1.5172 0.0000
0.6897 1.5517 0.0000
0.6897 1.5862 0.0000
0.6897 1.6207 0.0000
0.6897 1.6552 0.0000
0.6897 1.6897 0.0000
0.6897 1.7241 0.0000
0.6897 1.7586 0.0000
0.6897 1.7931 0.0000
0.6897 1.8276 0.0000
0.6897 1.8621 0.0000
0.6897 1.8966 0.0000
0.6897 1.9310 0.0000
0.6897 1.9655 0.0000
0.6897 2.0000 0.0000
0.7586 1.0000 0.0000
0.7586 1.0345 0.0000
0.7586 1.0690 0.0000
0.7586 1.1034 0.0000
0.7586 1.1379 0.0000
0.7586 1.1724 0.0000
0.7586 1.2069 0.0000
0.7586 1.2414 0.0000
0.7586 1.2759 0.0000
0.7586 1.3103 0.0000
0.7586 1.3448 0.0000
0.7586 1.3793 0.0000
0.7586 1.4138 0.0000
0.7586 1.4483 0.0000
0.7586 1.4828 0.0000
0.7586 1.5172 0.0000
0.7586 1.5517 0.0000
0.7586 1.5862 0.0000
0.7586 1.6207 0.0000
0.7586 1.6552 0.0000
0.7586 1.6897 0.0000
0.7586 1.7241 0.0000
0.7586 1.7586 0.0000
0.7586 1.7931 0.0000
0.7586 1.8276 0.0000
0.7586 1.8621 0.0000
0.7586 1.8966 0.0000
0.7586 1.9310 0.0000
0.7586 1.9655 0.0000
0.7586 2.0000 0.0000
0.8276 1.0000 0.0000
0.8276 1.0345 0.0000
0.8276 1.0690 0.0000
0.8276 1.1034 0.0000
0.8276 1.1379 0.0000
0.8276 1.1724 0.0000
0.8276 1.2069 0.0000
0.8276 1.2414 0.0000
0.8276 1.2759 0.0000
0.8276 1.3103 0.0000
0.8276 1.3448 0.0000
0.8276 1.3793 0.0000
0.8276 1.4138 0.0000
0.8276 1.4483 0.0000
0.8276 1.4828 0.0000
0.8276 1.5172 0.0000
0.8276 1.5517 0.0000
0.8276 1.5862 0.0000
0.8276 1.6207 0.0000
0.8276 1.6552 0.0000
0.8276 1.6897 0.0000
0.8276 1.7241 0.0000
0.8276 1.7586 0.0000
0.8276 1.7931 0.0000
0.8276 1.8276 0.0000
0.8276 1.8621 0.0000
0.8276 1.8966 0.0000
0.8276 1.9310 0.0000
0.8276 1.9655 0.0000
0.8276 2.0000 0.0000
0.8966 1.0000 0.0000
0.8966 1.0345 0.0000
0.8966 1.0690 0.0000
0.8966 1.1034 0.0000
0.8966 1.1379 0.0000
0.8966 1.1724 0.0000
0.8966 1.2069 0.0000
0.8966 1.2414 0.0000
0.8966 1.2759 0.0000
0.8966 1.3103 0.0000
0.8966 1.3448 0.0000
0.8966 1.3793 0.0000
0.8966 1.4138 0.0000
0.8966 1.4483 0.0000
0.8966 1.4828 0.0000
0.8966 1.5172 0.0000
0.8966 1.5517 0.0000
0.8966 1.5862 0.0000
0.8966 1.6207 0.0000
0.8966 1.6552 0.0000
0.8966 1.6897 0.0000
0.8966 1.7241 0.0000
0.8966 1.7586 0.0000
0.8966 1.7931 0.0000
0.8966 1.8276 0.0000
0.8966 1.8621 0.0000
0.8966 1.8966 0.0000
0.8966 1.9310 0.0000
0.8966 1.9655 0.0000
0.8966 2.0000 0.0000
0.9655 1.0000 0.0000
0.9655 1.0345 0.0000
0.9655 1.0690 0.0000
0.9655 1.1034 0.0000
0.9655 1.1379 0.0000
0.9655 1.1724 0.0000
0.9655 1.2069 0.0000
0.9655 1.2414 0.0000
0.9655 1.2759 0.0000
0.9655 1.3103 0.0000
0.9655 1.3448 0.0000
0.9655 1.3793 0.0000
0.9655 1.4138 0.0000
0.9655 1.4483 0.0000
0.9655 1.4828 0.0000
0.9655 1.5172 0.0000
0.9655 1.5517 0.0000
0.9655 1.5862 0.0000
0.9655 1.6207 0.0000
0.9655 1.6552 0.0000
0.9655 1.6897 0.0000
0.9655 1.7241 0.0000
0.9655 1.7586 0.0000
0.9655 1.7931 0.0000
0.9655 1.8276 0.0000
0.9655 1.8621 0.0000
0.9655 1.8966 0.0000
0.9655 1.9310 0.0000
0.9655 1.9655 0.0000
0.9655 2.0000 0.0000
1.0345 1.0000 0.0000
1.0345 1.0345 0.0000
1.0345 1.0690 0.0000
1.0345 1.1034 0.0000
1.0345 1.1379 0.0000
1.0345 1.1724 0.0000
1.0345 1.2069 0.0000
1.0345 1.2414 0.0000
1.0345 1.2759 0.0000
1.0345 1.3103 0.0000
1.0345 1.3448 0.0000
[...]
         <PointData>
            <DataArray Name="fValues" NumberOfComponents="3" format="ascii" type="Float64">
-3.14223e-42 -1.06297e-42        00000 
 4.61937e-42  1.59132e-42        00000 
-1.01283e-41 -3.59241e-42        00000 
 2.34326e-41  8.54890e-42        00000 
-5.26803e-41 -1.97849e-41        00000 
 1.13547e-40  4.39873e-41        00000 
-2.34121e-40 -9.37784e-41        00000 
 4.61586e-40  1.91640e-40        00000 
-8.70067e-40 -3.75260e-40        00000 
 1.56783e-39  7.03753e-40        00000 
-2.70035e-39 -1.26308e-39        00000 
 4.44425e-39  2.16745e-39        00000 
-6.98630e-39 -3.55205e-39        00000 
 1.04835e-38  5.55218e-39        00000 
-1.50057e-38 -8.26649e-39        00000 
 2.04698e-38  1.17076e-38        00000 
-2.65867e-38 -1.57525e-38        00000 
 3.28457e-38  2.01114e-38        00000 
-3.85595e-38 -2.43379e-38        00000 
 4.29756e-38  2.78912e-38        00000 
-4.54357e-38 -3.02447e-38        00000 
 4.55382e-38  3.10151e-38        00000 
-4.32524e-38 -3.00680e-38        00000 
 3.89417e-38  2.75651e-38        00000 
-3.32883e-38 -2.39342e-38        00000 
 2.71474e-38  1.97757e-38        00000 
-2.13823e-38 -1.57383e-38        00000 
 1.67304e-38  1.24070e-38        00000 
-1.37289e-38 -1.02271e-38        00000 
 1.26940e-38  9.47032e-39        00000 
 6.94846e-42  2.31321e-42        00000 
-1.04278e-41 -3.53630e-42        00000 
 2.35966e-41  8.23732e-42        00000 
-5.61236e-41 -2.01426e-41        00000 
 1.29403e-40  4.77848e-41        00000 
-2.85615e-40 -1.08740e-40        00000 
 6.02222e-40  2.36994e-40        00000 
-1.21250e-39 -4.94543e-40        00000 
 2.33078e-39  9.87845e-40        00000 
-4.27746e-39 -1.88802e-39        00000 
 7.49349e-39  3.45032e-39        00000 
-1.25284e-38 -6.02327e-39        00000 
 1.99825e-38  1.00324e-38        00000 
-3.03869e-38 -1.59210e-38        00000 
 4.40213e-38  2.40375e-38        00000 
-6.06972e-38 -3.44749e-38        00000 
 7.95693e-38  4.69005e-38        00000 
-9.90627e-38 -6.04396e-38        00000 
 1.16999e-37  7.36893e-38        00000 
-1.30950e-37 -8.49103e-38        00000 
 1.38763e-37  9.23838e-38        00000 
-1.39108e-37 -9.48422e-38        00000 
 1.31867e-37  9.18309e-38        00000 
-1.18212e-37 -8.38682e-38        00000 
 1.00352e-37  7.23417e-38        00000 
-8.10308e-38 -5.91871e-38        00000 
 6.29796e-38  4.64711e-38        00000 
-4.84839e-38 -3.60244e-38        00000 
 3.91671e-38  2.92126e-38        00000 
-3.59618e-38 -2.68525e-38        00000 
-2.70165e-41 -8.81153e-42        00000 
 4.16447e-41  1.38465e-41        00000 
-9.80734e-41 -3.35728e-41        00000 
 2.41501e-40  8.49701e-41        00000 
-5.74711e-40 -2.07961e-40        00000 
 1.30656e-39  4.87210e-40        00000 
-2.83225e-39 -1.09124e-39        00000 
 5.85156e-39  2.33637e-39        00000 
-1.15213e-38 -4.78124e-39        00000 
 2.16183e-38  9.34979e-39        00000 
-3.86562e-38 -1.74615e-38        00000 
 6.58623e-38  3.11161e-38        00000 
-1.06888e-37 -5.28423e-38        00000 
 1.65141e-37  8.53932e-38        00000 
-2.42696e-37 -1.31098e-37        00000 
 3.38930e-37  1.90878e-37        00000 
-4.49253e-37 -2.63134e-37        00000 
 5.64495e-37  3.42913e-37        00000 
-6.71539e-37 -4.21854e-37        00000 
 7.55437e-37  4.89300e-37        00000 
-8.02728e-37 -5.34523e-37        00000 
 8.04977e-37  5.49500e-37        00000 
-7.61325e-37 -5.31286e-37        00000 
 6.79019e-37  4.83057e-37        00000 
-5.71719e-37 -4.13430e-37        00000 
 4.56245e-37  3.34331e-37        00000 
-3.49026e-37 -2.58296e-37        00000 
 2.63459e-37  1.96184e-37        00000 
-2.08740e-37 -1.55872e-37        00000 
 1.89968e-37  1.41941e-37        00000 
 1.07436e-40  3.43355e-41        00000 
-1.70129e-40 -5.54836e-41        00000 
 4.16776e-40  1.40006e-40        00000 
-1.06234e-39 -3.66755e-40        00000 
 2.60977e-39  9.26271e-40        00000 
-6.11339e-39 -2.23480e-39        00000 
 1.36302e-38  5.14536e-39        00000 
-2.89103e-38 -1.13049e-38        00000 
 5.83276e-38  2.37043e-38        00000 
-1.11940e-37 -4.74306e-38        00000 
 2.04370e-37  9.05291e-38        00000 
-3.54940e-37 -1.64689e-37        00000 
 5.86271e-37  2.85208e-37        00000 
-9.20503e-37 -4.69452e-37        00000 
 1.37273e-36  7.33107e-37        00000 
-1.94225e-36 -1.08406e-36        00000 
 2.60392e-36  1.51500e-36        00000 
-3.30322e-36 -1.99741e-36        00000 
 3.95922e-36  2.48031e-36        00000 
-4.47754e-36 -2.89674e-36        00000 
 4.77175e-36  3.17796e-36        00000 
-4.78693e-36 -3.27185e-36        00000 
 4.51681e-36  3.15883e-36        00000 
-4.00750e-36 -2.85900e-36        00000 
 3.34598e-36  2.42743e-36        00000 
-2.63819e-36 -1.93968e-36        00000 
 1.98560e-36  1.47383e-36        00000 
-1.46846e-36 -1.09577e-36        00000 
 1.13968e-36  8.51719e-37        00000 
-1.02726e-36 -7.67642e-37        00000 
-4.16470e-40 -1.30213e-40        00000 
 6.78721e-40  2.16858e-40        00000 
-1.73291e-39 -5.70849e-40        00000 
 4.58097e-39  1.55118e-39        00000 
-1.16417e-38 -4.05188e-39        00000 
 2.81601e-38  1.00894e-38        00000 
-6.47127e-38 -2.39267e-38        00000 
 1.41191e-37  5.40418e-38        00000 
-2.92420e-37 -1.16283e-37        00000 
 5.74928e-37  2.38393e-37        00000 
-1.07324e-36 -4.65579e-37        00000 
 1.90240e-36  8.65634e-37        00000 
-3.20174e-36 -1.53044e-36        00000 
 5.11405e-36  2.56881e-36        00000 
-7.74639e-36 -4.08524e-36        00000 
 1.11146e-35  6.14223e-36        00000 
-1.50844e-35 -8.71167e-36        00000 
 1.93335e-35  1.16315e-35        00000 
-2.33627e-35 -1.45915e-35        00000 
 2.65746e-35  1.71701e-35        00000 
-2.84121e-35 -1.89254e-35        00000 
 2.85155e-35  1.95170e-35        00000 
-2.68398e-35 -1.88141e-35        00000 
 2.36801e-35  1.69452e-35        00000 
-1.95935e-35 -1.42642e-35        00000 
 1.52504e-35  1.12528e-35        00000 
-1.12788e-35 -8.39834e-36        00000 
 8.15777e-36  6.09988e-36        00000 
-6.18733e-36 -4.62583e-36        00000 
 5.51627e-36  4.11991e-36        00000 
 1.56513e-39  4.77578e-40        00000 
-2.63043e-39 -8.21871e-40        00000 
 7.01497e-39  2.26328e-39        00000 
-1.92756e-38 -6.39701e-39        00000 
 5.08003e-38  1.73306e-38        00000 
-1.27214e-37 -4.46591e-38        00000 
 3.02080e-37  1.09357e-37        00000 
-6.79595e-37 -2.54480e-37        00000 
 1.44804e-36  5.62976e-37        00000 
-2.92234e-36 -1.18446e-36        00000 
 5.58737e-36  2.37029e-36        00000 
-1.01234e-35 -4.50991e-36        00000 
 1.73827e-35  8.15048e-36        00000 
-2.82790e-35 -1.39681e-35        00000 
 4.35565e-35  2.26515e-35        00000 
-6.34414e-35 -3.46737e-35        00000 
 8.72461e-35  4.99734e-35        00000 
-1.13080e-34 -6.76474e-35        00000 
 1.37869e-34  8.58161e-35        00000 
-1.57823e-34 -1.01823e-34        00000 
 1.69339e-34  1.12816e-34        00000 
-1.70049e-34 -1.16559e-34        00000 
 1.59631e-34  1.12181e-34        00000 
-1.39984e-34 -1.00502e-34        00000 
 1.14699e-34  8.38181e-35        00000 
-8.80362e-35 -6.52107e-35        00000 
 6.38878e-35  4.77322e-35        00000 
-4.50995e-35 -3.37899e-35        00000 
 3.33364e-35  2.49192e-35        00000 
-2.93497e-35 -2.18885e-35        00000 
-5.68412e-39 -1.68700e-39        00000 
 9.87169e-39  3.00828e-39        00000 
-2.75576e-38 -8.69231e-39        00000 
 7.88945e-38  2.56315e-38        00000 
-2.16204e-37 -7.22482e-38        00000 
 5.62102e-37  1.93273e-37        00000 
-1.38316e-36 -4.90129e-37        00000 
 3.21741e-36  1.17821e-36        00000 
-7.07092e-36 -2.68593e-36        00000 
 1.46811e-35  5.81036e-36        00000 
-2.88061e-35 -1.19332e-35        00000 
 5.34378e-35  2.32676e-35        00000 
-9.37525e-35 -4.30403e-35        00000 
 1.55547e-34  7.54139e-35        00000 
-2.43910e-34 -1.24881e-34        00000 
 3.61053e-34  1.94902e-34        00000 
-5.03678e-34 -2.85846e-34        00000 
 6.60821e-34  3.92821e-34        00000 
-8.13583e-34 -5.04495e-34        00000 
 9.37898e-34  6.04115e-34        00000 
-1.01034e-33 -6.73201e-34        00000 
 1.01525e-33  6.97014e-34        00000 
-9.50314e-34 -6.69669e-34        00000 
 8.27845e-34  5.96492e-34        00000 
-6.71109e-34 -4.92444e-34        00000 
 5.07339e-34  3.77375e-34        00000 
-3.60681e-34 -2.70439e-34        00000 
 2.47920e-34  1.86099e-34        00000 
-1.78033e-34 -1.32955e-34        00000 
 1.54486e-34  1.14901e-34        00000 
 1.98842e-38  5.71384e-39        00000 
-3.57545e-38 -1.05881e-38        00000 
 1.04690e-37  3.21985e-38        00000 
-3.13010e-37 -9.93746e-38        00000 
 8.94446e-37  2.92464e-37        00000 
-2.42173e-36 -8.15120e-37        00000 
 6.19494e-36  2.14817e-36        00000 
-1.49468e-35 -5.35133e-36        00000 
 3.39816e-35  1.26056e-35        00000 
-7.27809e-35 -2.81016e-35        00000 
 1.46892e-34  5.93409e-35        00000 
-2.79548e-34 -1.18754e-34        00000 
 5.01936e-34  2.25157e-34        00000 
-8.50513e-34 -4.03918e-34        00000 
 1.35954e-33  6.84016e-34        00000 
-2.04784e-33 -1.09014e-33        00000 
 2.90140e-33  1.62953e-33        00000 
-3.85758e-33 -2.27679e-33        00000 
 4.80063e-33  2.96412e-33        00000 
-5.57741e-33 -3.58585e-33        00000 
 6.03500e-33  4.02175e-33        00000 
-6.06918e-33 -4.17401e-33        00000 
 5.66326e-33  4.00277e-33        00000 
-4.89760e-33 -3.54275e-33        00000 
 3.92406e-33  2.89229e-33        00000 
-2.91754e-33 -2.18001e-33        00000 
 2.02811e-33  1.52645e-33        00000 
-1.35387e-33 -1.01797e-33        00000 
 9.41068e-34  7.01351e-34        00000 
-8.02987e-34 -5.94541e-34        00000 
-6.67775e-38 -1.84642e-38        00000 
 1.24537e-37  3.56580e-38        00000 
-3.83140e-37 -1.14467e-37        00000 
 1.19909e-36  3.71017e-37        00000 
-3.58316e-36 -1.14446e-36        00000 
 1.01362e-35  3.33668e-36        00000 
-2.70504e-35 -9.17537e-36        00000 
 6.79386e-35  2.37767e-35        00000 
-1.60340e-34 -5.80685e-35        00000 
 3.55371e-34  1.33776e-34        00000 
-7.39796e-34 -2.91091e-34        00000 
 1.44764e-33  5.98930e-34        00000 
-2.66519e-33 -1.16566e-33        00000 
 4.61958e-33  2.14405e-33        00000 
-7.53831e-33 -3.71884e-33        00000 
 1.15698e-32  6.06251e-33        00000 
-1.66701e-32 -9.25247e-33        00000 
 2.24891e-32  1.31661e-32        00000 
-2.83211e-32 -1.74021e-32        00000 
 3.31905e-32  2.12939e-32        00000 
-3.60944e-32 -2.40562e-32        00000 
 3.63337e-32  2.50354e-32        00000 
-3.37877e-32 -2.39594e-32        00000 
 2.89849e-32  2.10568e-32        00000 
-2.29237e-32 -1.69789e-32        00000 
 1.67338e-32  1.25651e-32        00000 
-1.13491e-32 -8.57597e-33        00000 
 7.33570e-33  5.52315e-33        00000 
-4.91487e-33 -3.64975e-33        00000 
 4.11230e-33  3.02327e-33        00000 
 2.14562e-37  5.66152e-38        00000 
-4.15611e-37 -1.14266e-37        00000 
 1.34533e-36  3.88328e-37        00000 
-4.41626e-36 -1.32644e-36        00000 
 1.38388e-35  4.30600e-36        00000 
-4.10403e-35 -1.31916e-35        00000 
 1.14695e-34  3.80271e-35        00000 
-3.01073e-34 -1.02975e-34        00000 
 7.40588e-34  2.61825e-34        00000 
-1.70497e-33 -6.25522e-34        00000 
 3.67313e-33  1.40640e-33        00000 
-7.41091e-33 -2.98127e-33        00000 
 1.40209e-32  5.96558e-33        00000 
-2.49041e-32 -1.12670e-32        00000 
 4.15498e-32  2.00478e-32        00000 
-6.50727e-32 -3.34899e-32        00000 
 9.54862e-32  5.22864e-32        00000 
-1.30893e-31 -7.59233e-32        00000 
 1.67023e-31  1.02061e-31        00000 
-1.97656e-31 -1.26501e-31        00000 
 2.16178e-31  1.44090e-31        00000 
-2.17864e-31 -1.50429e-31        00000 
 2.01835e-31  1.43641e-31        00000 
-1.71591e-31 -1.25246e-31        00000 
 1.33754e-31  9.95991e-32        00000 
-9.56630e-32 -7.22149e-32        00000 
 6.31344e-32  4.79065e-32        00000 
-3.93771e-32 -2.96720e-32        00000 
 2.53060e-32  1.86825e-32        00000 
-2.06924e-32 -1.50478e-32        00000 
-6.57388e-37 -1.63713e-37        00000 
 1.32394e-36  3.46247e-37        00000 
-4.51307e-36 -1.24909e-36        00000 
 1.55655e-35  4.51172e-36        00000 
-5.12785e-35 -1.54783e-35        00000 
 1.59949e-34  5.00669e-35        00000 
-4.69977e-34 -1.52094e-34        00000 
 1.29515e-33  4.32708e-34        00000 
-3.33593e-33 -1.15129e-33        00000 
 8.01336e-33  2.86514e-33        00000 
-1.79383e-32 -6.67988e-33        00000 
 3.74434e-32  1.46259e-32        00000 
-7.29921e-32 -3.01454e-32        00000 
 1.33131e-31  5.85485e-32        00000 
-2.27475e-31 -1.07035e-31        00000 
 3.64093e-31  1.83560e-31        00000 
-5.44956e-31 -2.93797e-31        00000 
 7.60278e-31  4.36306e-31        00000 
-9.84495e-31 -5.97762e-31        00000 
 1.17795e-30  7.51777e-31        00000 
-1.29678e-30 -8.64376e-31        00000 
 1.30874e-30  9.05697e-31        00000 
-1.20737e-30 -8.62685e-31        00000 
 1.01609e-30  7.45523e-31        00000 
-7.79161e-31 -5.83623e-31        00000 
 5.44616e-31  4.13503e-31        00000 
-3.48654e-31 -2.65692e-31        00000 
 2.08991e-31  1.57479e-31        00000 
-1.28105e-31 -9.37140e-32        00000 
 1.01949e-31  7.29177e-32        00000 
 1.91448e-36  4.43392e-37        00000 
-4.01089e-36 -9.85211e-37        00000 
 1.44020e-35  3.78202e-36        00000 
-5.22494e-35 -1.44921e-35        00000 
 1.81334e-34  5.27599e-35        00000 
-5.96717e-34 -1.81093e-34        00000 
 1.85069e-33  5.83066e-34        00000 
-5.37956e-33 -1.75363e-33        00000 
 1.45851e-32  4.91292e-33        00000 
-3.67520e-32 -1.28088e-32        00000 
 8.59128e-32  3.11117e-32        00000 
-1.86319e-31 -7.06026e-32        00000 
 3.75488e-31  1.50223e-31        00000 
-7.04977e-31 -3.00494e-31        00000 
 1.23592e-30  5.65239e-31        00000 
-2.02497e-30 -9.96949e-31        00000 
 3.09670e-30  1.63956e-30        00000 
-4.40473e-30 -2.49653e-30        00000 
 5.79843e-30  3.49463e-30        00000 
-7.02524e-30 -4.46883e-30        00000 
 7.79259e-30  5.19403e-30        00000 
-7.87813e-30 -5.46559e-30        00000 
 7.23381e-30  5.19159e-30        00000 
-6.01781e-30 -4.44102e-30        00000 
 4.52918e-30  3.41467e-30        00000 
-3.08419e-30 -2.35637e-30        00000 
 1.90786e-30  1.46010e-30        00000 
-1.09390e-30 -8.23145e-31        00000 
 6.35387e-31  4.58278e-31        00000 
-4.89697e-31 -3.41411e-31        00000 
-5.28398e-36 -1.11575e-36        00000 
 1.15157e-35  2.61136e-36        00000 
-4.35384e-35 -1.06913e-35        00000 
 1.66227e-34  4.35917e-35        00000 
-6.08597e-34 -1.69070e-34        00000 
 2.11794e-33  6.18839e-34        00000 
-6.95840e-33 -2.12450e-33        00000 
 2.14369e-32  6.80161e-33        00000 
-6.15277e-32 -2.02132e-32        00000 
 1.63648e-31  5.56087e-32        00000 
-4.01934e-31 -1.41605e-31        00000 
 9.10567e-31  3.34636e-31        00000 
-1.90525e-30 -7.37249e-31        00000 
 3.69345e-30  1.52146e-30        00000 
-6.65767e-30 -2.94846e-30        00000 
 1.11848e-29  5.35723e-30        00000 
-1.75060e-29 -9.07408e-30        00000 
 2.54371e-29  1.42079e-29        00000 
-3.41120e-29 -2.03803e-29        00000 
 4.19277e-29  2.65670e-29        00000 
-4.69201e-29 -3.12698e-29        00000 
 4.75376e-29  3.30711e-29        00000 
-4.34179e-29 -3.13148e-29        00000 
 3.56418e-29  2.64740e-29        00000 
-2.62524e-29 -1.99360e-29        00000 
 1.73473e-29  1.33436e-29        00000 
-1.03191e-29 -7.92931e-30        00000 
 5.62740e-30  4.21932e-30        00000 
-3.07414e-30 -2.16898e-30        00000 
 2.28079e-30  1.52758e-30        00000 
 1.37850e-35  2.58284e-36        00000 
-3.12340e-35 -6.38633e-36        00000 
 1.24203e-34  2.79526e-35        00000 
-4.98884e-34 -1.21618e-34        00000 
 1.92788e-33  5.04331e-34        00000 
-7.10609e-33 -1.97771e-33        00000 
 2.48027e-32  7.28262e-33        00000 
-8.13365e-32 -2.50012e-32        00000 
 2.48590e-31  7.94817e-32        00000 
-7.02788e-31 -2.32795e-31        00000 
 1.82705e-30  6.26692e-31        00000 
-4.35394e-30 -1.55264e-30        00000 
 9.51253e-30  3.55760e-30        00000 
-1.91175e-29 -7.59140e-30        00000 
 3.55219e-29  1.51726e-29        00000 
-6.12949e-29 -2.84349e-29        00000 
 9.83535e-29  4.97163e-29        00000 
-1.46299e-28 -8.03040e-29        00000 
 2.00346e-28  1.18461e-28        00000 
-2.50388e-28 -1.57917e-28        00000 
 2.83150e-28  1.88654e-28        00000 
-2.87656e-28 -2.00731e-28        00000 
 2.61131e-28  1.89390e-28        00000 
-2.11060e-28 -1.57923e-28        00000 
 1.51581e-28  1.16047e-28        00000 
-9.67074e-29 -7.49315e-29        00000 
 5.49811e-29  4.23924e-29        00000 
-2.83212e-29 -2.10789e-29        00000 
 1.44263e-29  9.82935e-30        00000 
-1.02313e-29 -6.41907e-30        00000 
-3.39156e-35 -5.42572e-36        00000 
 7.98063e-35  1.42343e-35        00000 
-3.33194e-34 -6.68223e-35        00000 
 1.40644e-33  3.11201e-34        00000 
-5.73393e-33 -1.38456e-33        00000 
 2.23951e-32  5.84174e-33        00000 
-8.31824e-32 -2.32026e-32        00000 
 2.91359e-31  8.60390e-32        00000 
-9.53376e-31 -2.95283e-31        00000 
 2.88601e-30  9.30451e-31        00000 
-8.01063e-30 -2.67670e-30        00000 
 2.02587e-29  7.01921e-30        00000 
-4.65749e-29 -1.68420e-29        00000 
 9.75850e-29  3.72908e-29        00000 
-1.87528e-28 -7.69467e-29        00000 
 3.32955e-28  1.48821e-28        00000 
-5.48536e-28 -2.69075e-28        00000 
 8.37048e-28  4.49893e-28        00000 
-1.17385e-27 -6.85426e-28        00000 
 1.49599e-27  9.38181e-28        00000 
-1.71316e-27 -1.14089e-27        00000 
 1.74648e-27  1.22288e-27        00000 
-1.57427e-27 -1.14901e-27        00000 
 1.24921e-27  9.42545e-28        00000 
-8.70615e-28 -6.72662e-28        00000 
 5.32788e-28  4.16043e-28        00000 
-2.87227e-28 -2.21904e-28        00000 
 1.38559e-28  1.01696e-28        00000 
-6.51853e-29 -4.19336e-29        00000 
 4.38459e-29  2.45782e-29        00000 
 7.85459e-35  1.01218e-35        00000 
-1.91641e-34 -2.84004e-35        00000 
 8.38072e-34  1.43834e-34        00000 
-3.71064e-33 -7.20175e-34        00000 
 1.59368e-32  3.45114e-33        00000 
-6.59020e-32 -1.57314e-32        00000 
 2.60547e-31  6.77380e-32        00000 
-9.76553e-31 -2.73161e-31        00000 
 3.43523e-30  1.02129e-30        00000 
-1.12115e-29 -3.50244e-30        00000 
 3.35409e-29  1.09107e-29        00000 
-9.10042e-29 -3.06855e-29        00000 
 2.22475e-28  7.79290e-29        00000 
-4.89959e-28 -1.80154e-28        00000 
 9.78511e-28  3.84414e-28        00000 
-1.79126e-27 -7.66929e-28        00000 
 3.03312e-27  1.43491e-27        00000 
-4.75721e-27 -2.49174e-27        00000 
 6.85374e-27  3.94084e-27        00000 
-8.93955e-27 -5.56723e-27        00000 
 1.03965e-26  6.91820e-27        00000 
-1.06467e-26 -7.48315e-27        00000 
 9.51714e-27  6.99681e-27        00000 
-7.38618e-27 -5.62712e-27        00000 
 4.96376e-27  3.87559e-27        00000 
-2.88861e-27 -2.27410e-27        00000 
 1.46142e-27  1.12797e-27        00000 
-6.53205e-28 -4.66989e-28        00000 
 2.80954e-28  1.63468e-28        00000 
-1.77861e-28 -8.05110e-29        00000 
-1.70973e-34 -1.60818e-35        00000 
 4.31667e-34  4.91630e-35        00000 
-1.97168e-33 -2.72175e-34        00000 
 9.13379e-33  1.47761e-33        00000 
-4.12290e-32 -7.67377e-33        00000 
 1.80144e-31  3.79818e-32        00000 
-7.57064e-31 -1.78192e-31        00000 
 3.03601e-30  7.86228e-31        00000 
-1.15036e-29 -3.22922e-30        00000 
 4.06830e-29  1.21933e-29        00000 
-1.32364e-28 -4.17555e-29        00000 
 3.90138e-28  1.28117e-28        00000 
-1.02834e-27 -3.49966e-28        00000 
 2.40956e-27  8.54288e-28        00000 
-5.04016e-27 -1.89272e-27        00000 
 9.54039e-27  3.88969e-27        00000 
-1.66090e-26 -7.51960e-27        00000 