<?xml version="1.0" encoding="utf-8"?>
<VTKFile byte_order="LittleEndian" type="UnstructuredGrid" version="0.1">
   <UnstructuredGrid>
      <Piece NumberOfCells="3364" NumberOfPoints="1741">
         <Points>
            <DataArray Name="Points" NumberOfComponents="3" format="ascii" type="Float32">
0.0000 1.0000 0.0000
0.0000 1.0345 0.0000
0.0000 1.0690 0.0000
0.0000 1.1034 0.0000
0.0000 1.1379 0.0000
0.0000 1.1724 0.0000
0.0000 1.2069 0.0000
0.0000 1.2414 0.0000
0.0000 1.2759 0.0000
0.0000 1.3103 0.0000
0.0000 1.3448 0.0000
0.0000 1.3793 0.0000
0.0000 1.4138 0.0000
0.0000 1.4483 0.0000
0.0000 1.4828 0.0000
0.0000 1.5172 0.0000
0.0000 1.5517 0.0000
0.0000 1.5862 0.0000
0.0000 1.6207 0.0000
0.0000 1.6552 0.0000
0.0000 1.6897 0.0000
0.0000 1.7241 0.0000
0.0000 1.7586 0.0000
0.0000 1.7931 0.0000
0.0000 1.8276 0.0000
0.0000 1.8621 0.0000
0.0000 1.8966 0.0000
0.0000 1.9310 0.0000
0.0000 1.9655 0.0000
0.0000 2.0000 0.0000
0.0690 1.0000 0.0000
0.0690 1.0345 0.0000
0.0690 1.0690 0.0000
0.0690 1.1034 0.0000
0.0690 1.1379 0.0000
0.0690 1.1724 0.0000
0.0690 1.2069 0.0000
0.0690 1.2414 0.0000
0.0690 1.2759 0.0000
0.0690 1.3103 0.0000
0.0690 1.3448 0.0000
0.0690 1.3793 0.0000
0.0690 1.4138 0.0000
0.0690 1.4483 0.0000
0.0690 1.4828 0.0000
0.0690 1.5172 0.0000
0.0690 1.5517 0.0000
0.0690 1.5862 0.0000
0.0690 1.6207 0.0000
0.0690 1.6552 0.0000
0.0690 1.6897 0.0000
0.0690 1.7241 0.0000
0.0690 1.7586 0.0000
0.0690 1.7931 0.0000
0.0690 1.8276 0.0000
0.0690 1.8621 0.0000
0.0690 1.8966 0.0000
0.0690 1.9310 0.0000
0.0690 1.9655 0.0000
0.0690 2.0000 0.0000
0.1379 1.0000 0.0000
0.1379 1.0345 0.0000
0.1379 1.0690 0.0000
0.1379 1.1034 0.0000
0.1379 1.1379 0.0000
0.1379 1.1724 0.0000
0.1379 1.2069 0.0000
0.1379 1.2414 0.0000
0.1379 1.2759 0.0000
0.1379 1.3103 0.0000
0.1379 1.3448 0.0000
0.1379 1.3793 0.0000
0.1379 1.4138 0.0000
0.1379 1.4483 0.0000
0.1379 1.4828 0.0000
0.1379 1.5172 0.0000
0.1379 1.5517 0.0000
0.1379 1.5862 0.0000
0.1379 1.6207 0.0000
0.1379 1.6552 0.0000
0.1379 1.6897 0.0000
0.1379 1.7241 0.0000
0.1379 1.7586 0.0000
0.1379 1.7931 0.0000
0.1379 1.8276 0.0000
0.1379 1.8621 0.0000
0.1379 1.8966 0.0000
0.1379 1.9310 0.0000
0.1379 1.9655 0.0000
0.1379 2.0000 0.0000
0.2069 1.0000 0.0000
0.2069 1.0345 0.0000
0.2069 1.0690 0.0000
0.2069 1.1034 0.0000
0.2069 1.1379 0.0000
0.2069 1.1724 0.0000
0.2069 1.2069 0.0000
0.2069 1.2414 0.0000
0.2069 1.2759 0.0000
0.2069 1.3103 0.0000
0.2069 1.3448 0.0000
0.2069 1.3793 0.0000
0.2069 1.4138 0.0000
0.2069 1.4483 0.0000
0.2069 1.4828 0.0000
0.2069 1.5172 0.0000
0.2069 1.5517 0.0000
0.2069 1.5862 0.0000
0.2069 1.6207 0.0000
0.2069 1.6552 0.0000
0.2069 1.6897 0.0000
0.2069 1.7241 0.0000
0.2069 1.7586 0.0000
0.2069 1.7931 0.0000
0.2069 1.8276 0.0000
0.2069 1.8621 0.0000
0.2069 1.8966 0.0000
0.2069 1.9310 0.0000
0.2069 1.9655 0.0000
0.2069 2.0000 0.0000
0.2759 1.0000 0.0000
0.2759 1.0345 0.0000
0.2759 1.0690 0.0000
0.2759 1.1034 0.0000
0.2759 1.1379 0.0000
0.2759 1.1724 0.0000
0.2759 1.2069 0.0000
0.2759 1.2414 0.0000
0.2759 1.2759 0.0000
0.2759 1.3103 0.0000
0.2759 1.3448 0.0000
0.2759 1.3793 0.0000
0.2759 1.4138 0.0000
0.2759 1.4483 0.0000
0.2759 1.4828 0.0000
0.2759 1.5172 0.0000
0.2759 1.5517 0.0000
0.2759 1.5862 0.0000
0.2759 1.6207 0.0000
0.2759 1.6552 0.0000
0.2759 1.6897 0.0000
0.2759 1.7241 0.0000
0.2759 1.7586 0.0000
0.2759 1.7931 0.0000
0.2759 1.8276 0.0000
0.2759 1.8621 0.0000
0.2759 1.8966 0.0000
0.2759 1.9310 0.0000
0.2759 1.9655 0.0000
0.2759 2.0000 0.0000
0.3448 1.0000 0.0000
0.3448 1.0345 0.0000
0.3448 1.0690 0.0000
0.3448 1.1034 0.0000
0.3448 1.1379 0.0000
0.3448 1.1724 0.0000
0.3448 1.2069 0.0000
0.3448 1.2414 0.0000
0.3448 1.2759 0.0000
0.3448 1.3103 0.0000
0.3448 1.3448 0.0000
0.3448 1.3793 0.0000
0.3448 1.4138 0.0000
0.3448 1.4483 0.0000
0.3448 1.4828 0.0000
0.3448 1.5172 0.0000
0.3448 1.5517 0.0000
0.3448 1.5862 0.0000
0.3448 1.6207 0.0000
0.3448 1.6552 0.0000
0.3448 1.6897 0.0000
0.3448 1.7241 0.0000
0.3448 1.7586 0.0000
0.3448 1.7931 0.0000
0.3448 1.8276 0.0000
0.3448 1.8621 0.0000
0.3448 1.8966 0.0000
0.3448 1.9310 0.0000
0.3448 1.9655 0.0000
0.3448 2.0000 0.0000
0.4138 1.0000 0.0000
0.4138 1.0345 0.0000
0.4138 1.0690 0.0000
0.4138 1.1034 0.0000
0.4138 1.1379 0.0000
0.4138 1.1724 0.0000
0.4138 1.2069 0.0000
0.4138 1.2414 0.0000
0.4138 1.2759 0.0000
0.4138 1.3103 0.0000
0.4138 1.3448 0.0000
0.4138 1.3793 0.0000
0.4138 1.4138 0.0000
0.4138 1.4483 0.0000
0.4138 1.4828 0.0000
0.4138 1.5172 0.0000
0.4138 1.5517 0.0000
0.4138 1.5862 0.0000
0.4138 1.6207 0.0000
0.4138 1.6552 0.0000
0.4138 1.6897 0.0000
0.4138 1.7241 0.0000
0.4138 1.7586 0.0000
0.4138 1.7931 0.0000
0.4138 1.8276 0.0000
0.4138 1.8621 0.0000
0.4138 1.8966 0.0000
0.4138 1.9310 0.0000
0.4138 1.9655 0.0000
0.4138 2.0000 0.0000
0.4828 1.0000 0.0000
0.4828 1.0345 0.0000
0.4828 1.0690 0.0000
0.4828 1.1034 0.0000
0.4828 1.1379 0.0000
0.4828 1.1724 0.0000
0.4828 1.2069 0.0000
0.4828 1.2414 0.0000
0.4828 1.2759 0.0000
0.4828 1.3103 0.0000
0.4828 1.3448 0.0000
0.4828 1.3793 0.0000
0.4828 1.4138 0.0000
0.4828 1.4483 0.0000
0.4828 1.4828 0.0000
0.4828 1.5172 0.0000
0.4828 1.5517 0.0000
0.4828 1.5862 0.0000
0.4828 1.6207 0.0000
0.4828 1.6552 0.0000
0.4828 1.6897 0.0000
0.4828 1.7241 0.0000
0.4828 1.7586 0.0000
0.4828 1.7931 0.0000
0.4828 1.8276 0.0000
0.4828 1.8621 0.0000
0.4828 1.8966 0.0000
0.4828 1.9310 0.0000
0.4828 1.9655 0.0000
0.4828 2.0000 0.0000
0.5517 1.0000 0.0000
0.5517 1.0345 0.0000
0.5517 1.0690 0.0000
0.5517 1.1034 0.0000
0.5517 1.1379 0.0000
0.5517 1.1724 0.0000
0.5517 1.2069 0.0000
0.5517 1.2414 0.0000
0.5517 1.2759 0.0000
0.5517 1.3103 0.0000
0.5517 1.3448 0.0000
0.5517 1.3793 0.0000
0.5517 1.4138 0.0000
0.5517 1.4483 0.0000
0.5517 1.4828 0.0000
0.5517 1.5172 0.0000
0.5517 1.5517 0.0000
0.5517 1.5862 0.0000
0.5517 1.6207 0.0000
0.5517 1.6552 0.0000
0.5517 1.6897 0.0000
0.5517 1.7241 0.0000
0.5517 1.7586 0.0000
0.5517 1.7931 0.0000
0.5517 1.8276 0.0000
0.5517 1.8621 0.0000
0.5517 1.8966 0.0000
0.5517 1.9310 0.0000
0.5517 1.9655 0.0000
0.5517 2.0000 0.0000
0.6207 1.0000 0.0000
0.6207 1.0345 0.0000
0.6207 1.0690 0.0000
0.6207 1.1034 0.0000
0.6207 1.1379 0.0000
0.6207 1.1724 0.0000
0.6207 1.2069 0.0000
0.6207 1.2414 0.0000
0.6207 1.2759 0.0000
0.6207 1.3103 0.0000
0.6207 1.3448 0.0000
0.6207 1.3793 0.0000
0.6207 1.4138 0.0000
0.6207 1.4483 0.0000
0.6207 1.4828 0.0000
0.6207 1.5172 0.0000
0.6207 1.5517 0.0000
0.6207 1.5862 0.0000
0.6207 1.6207 0.0000
0.6207 1.6552 0.0000
0.6207 1.6897 0.0000
0.6207 1.7241 0.0000
0.6207 1.7586 0.0000
0.6207 1.7931 0.0000
0.6207 1.8276 0.0000
0.6207 1.8621 0.0000
0.6207 1.8966 0.0000
0.6207 1.9310 0.0000
0.6207 1.9655 0.0000
0.6207 2.0000 0.0000
0.6897 1.0000 0.0000
0.6897 1.0345 0.0000
0.6897 1.0690 0.0000
0.6897 1.1034 0.0000
0.6897 1.1379 0.0000
0.6897 1.1724 0.0000
0.6897 1.2069 0.0000
0.6897 1.2414 0.0000
0.6897 1.2759 0.0000
0.6897 1.3103 0.0000
0.6897 1.3448 0.0000
0.6897 1.3793 0.0000
0.6897 1.4138 0.0000
0.6897 1.4483 0.0000
0.6897 1.4828 0.0000
0.6897 1.5172 0.0000
0.6897 1.5517 0.0000
0.6897 1.5862 0.0000
0.6897 1.6207 0.0000
0.6897 1.6552 0.0000
0.6897 1.6897 0.0000
0.6897 1.7241 0.0000
0.6897 1.7586 0.0000
0.6897 1.7931 0.0000
0.6897 1.8276 0.0000
0.6897 1.8621 0.0000
0.6897 1.8966 0.0000
0.6897 1.9310 0.0000
0.6897 1.9655 0.0000
0.6897 2.0000 0.0000
0.7586 1.0000 0.0000
0.7586 1.0345 0.0000
0.7586 1.0690 0.0000
0.7586 1.1034 0.0000
0.7586 1.1379 0.0000
0.7586 1.1724 0.0000
0.7586 1.2069 0.0000
0.7586 1.2414 0.0000
0.7586 1.2759 0.0000
0.7586 1.3103 0.0000
0.7586 1.3448 0.0000
0.7586 1.3793 0.0000
0.7586 1.4138 0.0000
0.7586 1.4483 0.0000
0.7586 1.4828 0.0000
0.7586 1.5172 0.0000
0.7586 1.5517 0.0000
0.7586 1.5862 0.0000
0.7586 1.6207 0.0000
0.7586 1.6552 0.0000
0.7586 1.6897 0.0000
0.7586 1.7241 0.0000
0.7586 1.7586 0.0000
0.7586 1.7931 0.0000
0.7586 1.8276 0.0000
0.7586 1.8621 0.0000
0.7586 1.8966 0.0000
0.7586 1.9310 0.0000
0.7586 1.9655 0.0000
0.7586 2.0000 0.0000
0.8276 1.0000 0.0000
0.8276 1.0345 0.0000
0.8276 1.0690 0.0000
0.8276 1.1034 0.0000
0.8276 1.1379 0.0000
0.8276 1.1724 0.0000
0.8276 1.2069 0.0000
0.8276 1.2414 0.0000
0.8276 1.2759 0.0000
0.8276 1.3103 0.0000
0.8276 1.3448 0.0000
0.8276 1.3793 0.0000
0.8276 1.4138 0.0000
0.8276 1.4483 0.0000
0.8276 1.4828 0.0000
0.8276 1.5172 0.0000
0.8276 1.5517 0.0000
0.8276 1.5862 0.0000
0.8276 1.6207 0.0000
0.8276 1.6552 0.0000
0.8276 1.6897 0.0000
0.8276 1.7241 0.0000
0.8276 1.7586 0.0000
0.8276 1.7931 0.0000
0.8276 1.8276 0.0000
0.8276 1.8621 0.0000
0.8276 1.8966 0.0000
0.8276 1.9310 0.0000
0.8276 1.9655 0.0000
0.8276 2.0000 0.0000
0.8966 1.0000 0.0000
0.8966 1.0345 0.0000
0.8966 1.0690 0.0000
0.8966 1.1034 0.0000
0.8966 1.1379 0.0000
0.8966 1.1724 0.0000
0.8966 1.2069 0.0000
0.8966 1.2414 0.0000
0.8966 1.2759 0.0000
0.8966 1.3103 0.0000
0.8966 1.3448 0.0000
0.8966 1.3793 0.0000
0.8966 1.4138 0.0000
0.8966 1.4483 0.0000
0.8966 1.4828 0.0000
0.8966 1.5172 0.0000
0.8966 1.5517 0.0000
0.8966 1.5862 0.0000
0.8966 1.6207 0.0000
0.8966 1.6552 0.0000
0.8966 1.6897 0.0000
0.8966 1.7241 0.0000
0.8966 1.7586 0.0000
0.8966 1.7931 0.0000
0.8966 1.8276 0.0000
0.8966 1.8621 0.0000
0.8966 1.8966 0.0000
0.8966 1.9310 0.0000
0.8966 1.9655 0.0000
0.8966 2.0000 0.0000
0.9655 1.0000 0.0000
0.9655 1.0345 0.0000
0.9655 1.0690 0.0000
0.9655 1.1034 0.0000
0.9655 1.1379 0.0000
0.9655 1.1724 0.0000
0.9655 1.2069 0.0000
0.9655 1.2414 0.0000
0.9655 1.2759 0.0000
0.9655 1.3103 0.0000
0.9655 1.3448 0.0000
0.9655 1.3793 0.0000
0.9655 1.4138 0.0000
0.9655 1.4483 0.0000
0.9655 1.4828 0.0000
0.9655 1.5172 0.0000
0.9655 1.5517 0.0000
0.9655 1.5862 0.0000
0.9655 1.6207 0.0000
0.9655 1.6552 0.0000
0.9655 1.6897 0.0000
0.9655 1.7241 0.0000
0.9655 1.7586 0.0000
0.9655 1.7931 0.0000
0.9655 1.8276 0.0000
0.9655 1.8621 0.0000
0.9655 1.8966 0.0000
0.9655 1.9310 0.0000
0.9655 1.9655 0.0000
0.9655 2.0000 0.0000
1.0345 1.0000 0.0000
1.0345 1.0345 0.0000
1.0345 1.0690 0.0000
1.0345 1.1034 0.0000
1.0345 1.1379 0.0000
1.0345 1.1724 0.0000
1.0345 1.2069 0.0000
1.0345 1.2414 0.0000
1.0345 1.2759 0.0000
1.0345 1.3103 0.0000
1.0345 1.3448 0.0000
[...]
         <PointData>
            <DataArray Name="fValues" NumberOfComponents="3" format="ascii" type="Float64">
 3.44381e-40  1.40972e-39        00000 
-4.38532e-40 -1.84186e-39        00000 
 7.50451e-40  3.30689e-39        00000 
-1.36818e-39 -6.32851e-39        00000 
 2.43469e-39  1.18256e-38        00000 
-4.13417e-39 -2.11351e-38        00000 
 6.66005e-39  3.59566e-38        00000 
-1.01601e-38 -5.81500e-38        00000 
 1.46634e-38  8.93398e-38        00000 
-2.00059e-38 -1.30341e-37        00000 
 2.57862e-38  1.80511e-37        00000 
-3.13790e-38 -2.37241e-37        00000 
 3.60277e-38  2.95825e-37        00000 
-3.90022e-38 -3.49902e-37        00000 
 3.97820e-38  3.92513e-37        00000 
-3.82020e-38 -4.17542e-37        00000 
 3.45056e-38  4.21157e-37        00000 
-2.92838e-38 -4.02772e-37        00000 
 2.33196e-38  3.65207e-37        00000 
-1.73951e-38 -3.13973e-37        00000 
 1.21273e-38  2.55947e-37        00000 
-7.87722e-39 -1.97864e-37        00000 
 4.74531e-39  1.45086e-37        00000 
-2.63237e-39 -1.00944e-37        00000 
 1.32841e-39  6.66863e-38        00000 
-5.95396e-40 -4.19153e-38        00000 
 2.23203e-40  2.52402e-38        00000 
-5.50382e-41 -1.49343e-38        00000 
-1.01048e-41  9.44835e-39        00000 
 2.62535e-41 -7.74101e-39        00000 
-8.59534e-40 -3.44653e-39        00000 
 1.11260e-39  4.57963e-39        00000 
-1.95988e-39 -8.46359e-39        00000 
 3.66725e-39  1.66193e-38        00000 
-6.67500e-39 -3.17644e-38        00000 
 1.15661e-38  5.79464e-38        00000 
-1.89765e-38 -1.00452e-37        00000 
 2.94274e-38  1.65257e-37        00000 
-4.30873e-38 -2.57837e-37        00000 
 5.95190e-38  3.81335e-37        00000 
-7.75083e-38 -5.34409e-37        00000 
 9.50859e-38  7.09416e-37        00000 
-1.09812e-37 -8.91801e-37        00000 
 1.19296e-37  1.06138e-36        00000 
-1.21816e-37 -1.19572e-36        00000 
 1.16816e-37  1.27491e-36        00000 
-1.05093e-37 -1.28638e-36        00000 
 8.85917e-38  1.22821e-36        00000 
-6.98723e-38 -1.10964e-36        00000 
 5.14587e-38  9.48657e-37        00000 
-3.52948e-38 -7.67517e-37        00000 
 2.24618e-38  5.87734e-37        00000 
-1.31900e-38 -4.26074e-37        00000 
 7.08305e-39  2.92520e-37        00000 
-3.42334e-39 -1.90326e-37        00000 
 1.44020e-39  1.17576e-37        00000 
-4.80198e-40 -6.94086e-38        00000 
 7.38203e-41  4.01201e-38        00000 
 7.04024e-41 -2.47428e-38        00000 
-1.03268e-40  1.99959e-38        00000 
 3.88762e-39  1.52027e-38        00000 
-5.13773e-39 -2.06380e-38        00000 
 9.37907e-39  3.95303e-38        00000 
-1.81133e-38 -8.00999e-38        00000 
 3.38859e-38  1.57365e-37        00000 
-6.01764e-38 -2.94327e-37        00000 
 1.00945e-37  5.21994e-37        00000 
-1.59674e-37 -8.76729e-37        00000 
 2.37903e-37  1.39357e-36        00000 
-3.33579e-37 -2.09522e-36        00000 
 4.39818e-37  2.97836e-36        00000 
-5.44850e-37 -4.00140e-36        00000 
 6.33676e-37  5.07925e-36        00000 
-6.91332e-37 -6.09013e-36        00000 
 7.06888e-37  6.89603e-36        00000 
-6.76753e-37 -7.37302e-36        00000 
 6.05932e-37  7.44239e-36        00000 
-5.06670e-37 -7.09197e-36        00000 
 3.94974e-37  6.37968e-36        00000 
-2.86386e-37 -5.41776e-36        00000 
 1.92526e-37  4.34379e-36        00000 
-1.19449e-37 -3.28862e-36        00000 
 6.79104e-38  2.35158e-36        00000 
-3.49594e-38 -1.58880e-36        00000 
 1.59312e-38  1.01493e-36        00000 
-6.10073e-39 -6.14039e-37        00000 
 1.64338e-39  3.53905e-37        00000 
 6.68111e-41 -1.98870e-37        00000 
-5.85554e-40  1.18857e-37        00000 
 6.83029e-40 -9.44101e-38        00000 
-1.79462e-38 -6.84868e-38        00000 
 2.42329e-38  9.50486e-38        00000 
-4.58664e-38 -1.88744e-37        00000 
 9.14466e-38  3.94710e-37        00000 
-1.75914e-37 -7.97373e-37        00000 
 3.20368e-37  1.52982e-36        00000 
-5.49842e-37 -2.77732e-36        00000 
 8.87767e-37  4.76515e-36        00000 
-1.34687e-36 -7.72086e-36        00000 
 1.91815e-36  1.18070e-35        00000 
-2.56197e-36 -1.70326e-35        00000 
 3.20633e-36  2.31692e-35        00000 
-3.75669e-36 -2.97082e-35        00000 
 4.11684e-36  3.58962e-35        00000 
-4.21556e-36 -4.08622e-35        00000 
 4.02899e-36  4.38142e-35        00000 
-3.58936e-36 -4.42452e-35        00000 
 2.97594e-36  4.20764e-35        00000 
-2.29155e-36 -3.76807e-35        00000 
 1.63435e-36  3.17776e-35        00000 
-1.07548e-36 -2.52400e-35        00000 
 6.49256e-37  1.88843e-35        00000 
-3.56298e-37 -1.33130e-35        00000 
 1.74897e-37  8.84681e-36        00000 
-7.43084e-38 -5.54541e-36        00000 
 2.50706e-38  3.28398e-36        00000 
-4.43754e-39 -1.84716e-36        00000 
-2.47337e-39  1.00872e-36        00000 
 4.03459e-39 -5.83841e-37        00000 
-4.18303e-39  4.55447e-37        00000 
 8.13269e-38  3.02637e-37        00000 
-1.12429e-37 -4.30240e-37        00000 
 2.21168e-37  8.87775e-37        00000 
-4.56127e-37 -1.91972e-36        00000 
 9.04031e-37  3.99534e-36        00000 
-1.69171e-36 -7.87784e-36        00000 
 2.97617e-36  1.46666e-35        00000 
-4.91351e-36 -2.57491e-35        00000 
 7.60266e-36  4.25941e-35        00000 
-1.10126e-35 -6.63435e-35        00000 
 1.49179e-35  9.72445e-35        00000 
-1.88795e-35 -1.34074e-34        00000 
 2.22999e-35  1.73803e-34        00000 
-2.45582e-35 -2.11768e-34        00000 
 2.51877e-35  2.42457e-34        00000 
-2.40288e-35 -2.60785e-34        00000 
 2.12902e-35  2.63472e-34        00000 
-1.74877e-35 -2.50006e-34        00000 
 1.32846e-35  2.22798e-34        00000 
-9.30281e-36 -1.86481e-34        00000 
 5.97710e-36  1.46613e-34        00000 
-3.49823e-36 -1.08296e-34        00000 
 1.84272e-36  7.51778e-35        00000 
-8.54131e-37 -4.90687e-35        00000 
 3.31148e-37  3.01346e-35        00000 
-9.13508e-38 -1.74392e-35        00000 
 8.59170e-40  9.55646e-36        00000 
 2.33333e-38 -5.06224e-36        00000 
-2.51770e-38  2.83067e-36        00000 
 2.40476e-38 -2.16464e-36        00000 
-3.60348e-37 -1.30627e-36        00000 
 5.11192e-37  1.90663e-36        00000 
-1.04802e-36 -4.09902e-36        00000 
 2.24092e-36  9.18587e-36        00000 
-4.58662e-36 -1.97398e-35        00000 
 8.83941e-36  4.00897e-35        00000 
-1.59755e-35 -7.67023e-35        00000 
 2.70241e-35  1.38066e-34        00000 
-4.27247e-35 -2.33592e-34        00000 
 6.30491e-35  3.71185e-34        00000 
-8.67429e-35 -5.53610e-34        00000 
 1.11135e-34  7.74566e-34        00000 
-1.32447e-34 -1.01614e-33        00000 
 1.46656e-34  1.24947e-33        00000 
-1.50689e-34 -1.43956e-33        00000 
 1.43470e-34  1.55367e-33        00000 
-1.26358e-34 -1.57048e-33        00000 
 1.02724e-34  1.48663e-33        00000 
-7.68674e-35 -1.31780e-33        00000 
 5.27362e-35  1.09393e-33        00000 
-3.29797e-35 -8.50518e-34        00000 
 1.86266e-35  6.19493e-34        00000 
-9.34759e-36 -4.22870e-34        00000 
 4.03294e-36  2.70658e-34        00000 
-1.37407e-36 -1.62560e-34        00000 
 2.51527e-37  9.17537e-35        00000 
 1.12201e-37 -4.88860e-35        00000 
-1.70574e-37  2.50653e-35        00000 
 1.46802e-37 -1.35034e-35        00000 
-1.31293e-37  1.01010e-35        00000 
 1.55677e-36  5.49152e-36        00000 
-2.27196e-36 -8.25017e-36        00000 
 4.86858e-36  1.85324e-35        00000 
-1.08204e-35 -4.31471e-35        00000 
 2.29297e-35  9.59778e-35        00000 
-4.56289e-35 -2.01271e-34        00000 
 8.49282e-35  3.96689e-34        00000 
-1.47545e-34 -7.33744e-34        00000 
 2.38852e-34  1.27232e-33        00000 
-3.59767e-34 -2.06641e-33        00000 
 5.03509e-34  3.14112e-33        00000 
-6.53920e-34 -4.46602e-33        00000 
 7.87075e-34  5.93601e-33        00000 
-8.76818e-34 -7.37246e-33        00000 
 9.02783e-34  8.55291e-33        00000 
-8.57685e-34 -9.26556e-33        00000 
 7.50389e-34  9.37112e-33        00000 
-6.03074e-34 -8.84738e-33        00000 
 4.43730e-34  7.79687e-33        00000 
-2.97473e-34 -6.41399e-33        00000 
 1.80375e-34  4.92616e-33        00000 
-9.77272e-35 -3.53334e-33        00000 
 4.62444e-35  2.36781e-33        00000 
-1.81595e-35 -1.48339e-33        00000 
 5.03355e-36  8.69535e-34        00000 
-7.06437e-38 -4.77626e-34        00000 
-1.17054e-36  2.46856e-34        00000 
 1.10285e-36 -1.22218e-34        00000 
-8.10854e-37  6.32453e-35        00000 
 6.84414e-37 -4.61661e-35        00000 
-6.53744e-36 -2.24138e-35        00000 
 9.84192e-36  3.47542e-35        00000 
-2.21120e-35 -8.18161e-35        00000 
 5.12214e-35  1.98435e-34        00000 
-1.12704e-34 -4.58201e-34        00000 
 2.32249e-34  9.94952e-34        00000 
-4.46449e-34 -2.02553e-33        00000 
 7.98681e-34  3.85970e-33        00000 
-1.32713e-33 -6.87547e-33        00000 
 2.04476e-33  1.14375e-32        00000 
-2.91653e-33 -1.77526e-32        00000 
 3.84540e-33  2.56906e-32        00000 
-4.67980e-33 -3.46415e-32        00000 
 5.24894e-33  4.35014e-32        00000 
-5.41706e-33 -5.08521e-32        00000 
 5.13436e-33  5.53176e-32        00000 
-4.45907e-33 -5.59830e-32        00000 
 3.53796e-33  5.27008e-32        00000 
-2.55417e-33 -4.61447e-32        00000 
 1.66785e-33  3.75832e-32        00000 
-9.75853e-34 -2.84784e-32        00000 
 5.03237e-34  2.00834e-32        00000 
-2.21216e-34 -1.31881e-32        00000 
 7.60484e-35  8.06977e-33        00000 
-1.38090e-35 -4.60587e-33        00000 
-6.21978e-36  2.45590e-33        00000 
 8.88233e-36 -1.22811e-33        00000 
-6.58268e-36  5.85571e-34        00000 
 4.26925e-36 -2.90126e-34        00000 
-3.41274e-36  2.06104e-34        00000 
 2.65929e-35  8.84987e-35        00000 
-4.14187e-35 -1.42044e-34        00000 
 9.78752e-35  3.51549e-34        00000 
-2.37012e-34 -8.90870e-34        00000 
 5.43228e-34  2.14205e-33        00000 
-1.16301e-33 -4.83150e-33        00000 
 2.31631e-33  1.01909e-32        00000 
-4.28006e-33 -2.00637e-32        00000 
 7.32061e-33  3.68148e-32        00000 
-1.15665e-32 -6.28806e-32        00000 
 1.68503e-32  9.98723e-32        00000 
-2.25948e-32 -1.47378e-31        00000 
 2.78401e-32  2.01912e-31        00000 
-3.14659e-32 -2.56666e-31        00000 
 3.25612e-32  3.02575e-31        00000 
-3.07826e-32 -3.30659e-31        00000 
 2.65148e-32  3.34872e-31        00000 
-2.07356e-32 -3.14227e-31        00000 
 1.46501e-32  2.73178e-31        00000 
-9.28137e-33 -2.20045e-31        00000 
 5.20777e-33  1.64264e-31        00000 
-2.52884e-33 -1.13689e-31        00000 
 1.00896e-33  7.29982e-32        00000 
-2.80339e-34 -4.35212e-32        00000 
 2.07263e-36  2.41211e-32        00000 
 6.57874e-35 -1.24494e-32        00000 
-5.85093e-35  6.00579e-33        00000 
 3.69208e-35 -2.74968e-33        00000 
-2.14738e-35  1.29983e-33        00000 
 1.62707e-35 -8.95963e-34        00000 
-1.04380e-34 -3.36666e-34        00000 
 1.68704e-34  5.61061e-34        00000 
-4.20665e-34 -1.46460e-33        00000 
 1.06832e-33  3.89045e-33        00000 
-2.55956e-33 -9.77475e-33        00000 
 5.71402e-33  2.29829e-32        00000 
-1.18339e-32 -5.04018e-32        00000 
 2.26648e-32  1.02864e-31        00000 
-4.00333e-32 -1.95021e-31        00000 
 6.50548e-32  3.42973e-31        00000 
-9.70443e-32 -5.58813e-31        00000 
 1.32619e-31  8.42674e-31        00000 
-1.65704e-31 -1.17507e-30        00000 
 1.88919e-31  1.51415e-30        00000 
-1.96105e-31 -1.80181e-30        00000 
 1.84870e-31  1.97916e-30        00000 
-1.57771e-31 -2.00596e-30        00000 
 1.21375e-31  1.87558e-30        00000 
-8.36574e-32 -1.61762e-30        00000 
 5.11659e-32  1.28703e-30        00000 
-2.73074e-32 -9.44906e-31        00000 
 1.22936e-32  6.40468e-31        00000 
-4.27597e-33 -4.01099e-31        00000 
 7.65165e-34  2.32335e-31        00000 
 3.65988e-34 -1.24654e-31        00000 
-5.01705e-34  6.20698e-32        00000 
 3.52264e-34 -2.87904e-32        00000 
-1.96045e-34  1.26156e-32        00000 
 1.03145e-34 -5.66874e-33        00000 
-7.40160e-35  3.77886e-33        00000 
 3.93644e-34  1.22840e-33        00000 
-6.62260e-34 -2.13226e-33        00000 
 1.74815e-33  5.89011e-33        00000 
-4.67184e-33 -1.64574e-32        00000 
 1.17456e-32  4.33737e-32        00000 
-2.74535e-32 -1.06735e-31        00000 
 5.93674e-32  2.44330e-31        00000 
-1.18328e-31 -5.18885e-31        00000 
 2.16659e-31  1.02011e-30        00000 
-3.63359e-31 -1.85323e-30        00000 
 5.56699e-31  3.10655e-30        00000 
-7.77275e-31 -4.79916e-30        00000 
 9.86715e-31  6.82569e-30        00000 
-1.13619e-30 -8.92995e-30        00000 
 1.18370e-30  1.07389e-29        00000 
-1.11241e-30 -1.18639e-29        00000 
 9.39444e-31  1.20354e-29        00000 
-7.09263e-31 -1.12081e-29        00000 
 4.75029e-31  9.58075e-30        00000 
-2.78688e-31 -7.51802e-30        00000 
 1.39892e-31  5.41746e-30        00000 
-5.69914e-32 -3.58716e-30        00000 
 1.59050e-32  2.18468e-30        00000 
 1.88079e-35 -1.22542e-30        00000 
-3.83440e-33  6.34176e-31        00000 
 3.30568e-33 -3.03508e-31        00000 
-1.97746e-33  1.34847e-31        00000 
 9.87571e-34 -5.63477e-32        00000 
-4.72025e-34  2.39720e-32        00000 
 3.20165e-34 -1.53987e-32        00000 
-1.41967e-33 -4.27764e-33        00000 
 2.49373e-33  7.75771e-33        00000 
-6.99011e-33 -2.27498e-32        00000 
 1.97276e-32  6.71057e-32        00000 
-5.22620e-32 -1.86298e-31        00000 
 1.28473e-31  4.81955e-31        00000 
-2.91442e-31 -1.15682e-30        00000 
 6.07322e-31  2.56774e-30        00000 
-1.15785e-30 -5.25645e-30        00000 
 2.01227e-30  9.90235e-30        00000 
-3.17778e-30 -1.71361e-29        00000 
 4.54671e-30  2.72007e-29        00000 
-5.87768e-30 -3.95553e-29        00000 
 6.84607e-30  5.26429e-29        00000 
-7.16298e-30 -6.40631e-29        00000 
 6.70836e-30  7.12360e-29        00000 
-5.59782e-30 -7.23401e-29        00000 
 4.13531e-30  6.70644e-29        00000 
-2.67780e-30 -5.67518e-29        00000 
 1.49415e-30  4.38428e-29        00000 
-6.94021e-31 -3.09341e-29        00000 
 2.45353e-31  1.99502e-29        00000 
-4.32677e-32 -1.17749e-29        00000 
-2.21053e-32  6.37093e-30        00000 
 2.91651e-32 -3.16698e-30        00000 
-1.98102e-32  1.45048e-30        00000 
 1.04281e-32 -6.14655e-31        00000 
-4.71361e-33  2.43949e-31        00000 
 2.05018e-33 -9.78534e-32        00000 
-1.31091e-33  6.03363e-32        00000 
 4.87188e-33  1.41408e-32        00000 
-8.96019e-33 -2.68701e-32        00000 
 2.67463e-32  8.38969e-32        00000 
-7.99973e-32 -2.62233e-31        00000 
 2.24290e-31  7.70322e-31        00000 
-5.82740e-31 -2.10541e-30        00000 
 1.39405e-30  5.32619e-30        00000 
-3.05342e-30 -1.24195e-29        00000 
 6.09286e-30  2.66028e-29        00000 
-1.10265e-29 -5.22030e-29        00000 
 1.80263e-29  9.36386e-29        00000 
-2.65267e-29 -1.53260e-28        00000 
 3.50194e-29  2.28546e-28        00000 
-4.13371e-29 -3.10129e-28        00000 
 4.34723e-29  3.82537e-28        00000 
-4.05570e-29 -4.28534e-28        00000 
 3.33783e-29  4.35695e-28        00000 
-2.40375e-29 -4.01855e-28        00000 
 1.49512e-29  3.36181e-28        00000 
-7.84148e-30 -2.55132e-28        00000 
 3.28605e-30  1.75748e-28        00000 
-9.24536e-31 -1.10002e-28        00000 
-9.59191e-33  6.26590e-29        00000 
 2.29136e-31 -3.25527e-29        00000 
-1.91323e-31  1.54681e-29        00000 
 1.10017e-31 -6.74629e-30        00000 
-5.17191e-32  2.71358e-30        00000 
 2.12366e-32 -1.01846e-30        00000 
-8.40750e-33  3.83543e-31        00000 
 5.05273e-33 -2.26089e-31        00000 
-1.58251e-32 -4.41287e-32        00000 
 3.05474e-32  8.80674e-32        00000 
-9.73318e-32 -2.93481e-31        00000 
 3.09570e-31  9.75516e-31        00000 
-9.22673e-31 -3.04631e-30        00000 
 2.54701e-30  8.84392e-30        00000 
-6.46273e-30 -2.37173e-29        00000 
 1.49698e-29  5.84415e-29        00000 
-3.14558e-29 -1.31740e-28        00000 
 5.96237e-29  2.70730e-28        00000 
-1.01439e-28 -5.05805e-28        00000 
 1.54215e-28  8.57239e-28        00000 
-2.08637e-28 -1.31554e-27        00000 
 2.50178e-28  1.82524e-27        00000 
-2.64730e-28 -2.28653e-27        00000 
 2.45918e-28  2.58342e-27        00000 
-1.99152e-28 -2.63026e-27        00000 
 1.39143e-28  2.41177e-27        00000 
-8.24061e-29 -1.99119e-27        00000 
 3.99354e-29  1.48055e-27        00000 
-1.44499e-29 -9.92183e-28        00000 
 2.51473e-30  6.00095e-28        00000 
 1.37325e-30 -3.28258e-28        00000 
-1.73738e-30  1.62862e-28        00000 
 1.13585e-30 -7.35568e-29        00000 
-5.69402e-31  3.03783e-29        00000 
 2.40522e-31 -1.15367e-29        00000 
-8.97990e-32  4.07539e-30        00000 
 3.23452e-32 -1.43475e-30        00000 
-1.82170e-32  8.05222e-31        00000 
 4.83971e-32  1.29265e-31        00000 
-9.82271e-32 -2.71391e-31        00000 
 3.34624e-31  9.66843e-31        00000 
-1.13513e-30 -3.42832e-30        00000 
 3.61203e-30  1.14327e-29        00000 
-1.06512e-29 -3.54559e-29        00000 
 2.88472e-29  1.01451e-28        00000 
-7.11529e-29 -2.65978e-28        00000 
 1.58571e-28  6.35274e-28        00000 
-3.17013e-28 -1.37601e-27        00000 
 5.64905e-28  2.69339e-27        00000 
-8.92192e-28 -4.75108e-27        00000 
 1.24247e-27  7.53577e-27        00000 
-1.51803e-27 -1.07270e-26        00000 
 1.61854e-27  1.36813e-26        00000 
-1.49629e-27 -1.56120e-26        00000 
 1.18885e-27  1.59215e-26        00000 
-8.00780e-28 -1.45001e-26        00000 
 4.46081e-28  1.17895e-26        00000 
-1.94491e-28 -8.56025e-27        00000 
 5.54946e-29  5.55639e-27        00000 
 1.12203e-30 -3.23018e-27        00000 
-1.41168e-29  1.68662e-27        00000 
 1.13264e-29 -7.94006e-28        00000 
-6.19979e-30  3.38638e-28        00000 
 2.74252e-30 -1.31592e-28        00000 
-1.04263e-30  4.69085e-29        00000 
 3.53763e-31 -1.55193e-29        00000 
-1.15881e-31  5.08671e-30        00000 
 6.10058e-32 -2.70728e-30        00000 
-1.38626e-31 -3.53474e-31        00000 
 2.96107e-31  7.81257e-31        00000 
-1.07923e-30 -2.97700e-30        00000 
 3.91341e-30  1.12864e-29        00000 
-1.33451e-29 -4.03534e-29        00000 
 4.22587e-29  1.34442e-28        00000 
-1.22972e-28 -4.13311e-28        00000 
 3.25467e-28  1.16197e-27        00000 
-7.75679e-28 -2.96434e-27        00000 
 1.64933e-27  6.82039e-27        00000 
-3.10292e-27 -1.40869e-26        00000 
 5.12703e-27  2.60268e-26        00000 
-7.39115e-27 -4.28953e-26        00000 
 9.23764e-27  6.29144e-26        00000 
-9.94278e-27 -8.19460e-26        00000 
 9.14182e-27  9.46108e-26        00000 
-7.09908e-27 -9.66798e-26        00000 
 4.57040e-27  8.73508e-26        00000 
-2.35225e-27 -6.97534e-26        00000 
 8.80951e-28  4.92518e-26        00000 
-1.51723e-28 -3.07939e-26        00000 
-8.86345e-29  1.70936e-26        00000 
 1.06732e-28 -8.45736e-27        00000 
-6.63057e-29  3.74910e-27        00000 
 3.11773e-29 -1.49857e-27        00000 
-1.22176e-29  5.44079e-28        00000 
 4.17800e-30 -1.80916e-28        00000 
-1.28722e-30  5.57771e-29        00000 
 3.83439e-31 -1.69588e-29        00000 
-1.88317e-31  8.52969e-30        00000 
 3.70069e-31  8.97673e-31        00000 
-8.31854e-31 -2.08779e-30        00000 
 3.24205e-30  8.50213e-30        00000 
-1.25807e-29 -3.44951e-29        00000 
 4.61065e-29  1.32609e-28        00000 
-1.57516e-28 -4.76976e-28        00000 
 4.95710e-28  1.58668e-27        00000 
-1.41934e-27 -4.82521e-27        00000 
 3.65166e-27  1.32740e-26        00000 
-8.34142e-27 -3.27510e-26        00000 
 1.67321e-26  7.20117e-26        00000 
-2.91844e-26 -1.40452e-25        00000 
 4.38760e-26  2.42141e-25        00000 
-5.63911e-26 -3.67904e-25        00000 
 6.14307e-26  4.91302e-25        00000 
-5.61349e-26 -5.75228e-25        00000 
 4.23868e-26  5.89265e-25        00000 