<?xml version="1.0" encoding="utf-8"?>
<VTKFile byte_order="LittleEndian" type="UnstructuredGrid" version="0.1">
   <UnstructuredGrid>
      <Piece NumberOfCells="3364" NumberOfPoints="1741">
         <Points>
            <DataArray Name="Points" NumberOfComponents="3" format="ascii" type="Float32">
0.0000 1.0000 0.0000
0.0000 1.0345 0.0000
0.0000 1.0690 0.0000
0.0000 1.1034 0.0000
0.0000 1.1379 0.0000
0.0000 1.1724 0.0000
0.0000 1.2069 0.0000
0.0000 1.2414 0.0000
0.0000 1.2759 0.0000
0.0000 1.3103 0.0000
0.0000 1.3448 0.0000
0.0000 1.3793 0.0000
0.0000 1.4138 0.0000
0.0000 1.4483 0.0000
0.0000 1.4828 0.0000
0.0000 1.5172 0.0000
0.0000 1.5517 0.0000
0.0000 1.5862 0.0000
0.0000 1.6207 0.0000
0.0000 1.6552 0.0000
0.0000 1.6897 0.0000
0.0000 1.7241 0.0000
0.0000 1.7586 0.0000
0.0000 1.7931 0.0000
0.0000 1.8276 0.0000
0.0000 1.8621 0.0000
0.0000 1.8966 0.0000
0.0000 1.9310 0.0000
0.0000 1.9655 0.0000
0.0000 2.0000 0.0000
0.0690 1.0000 0.0000
0.0690 1.0345 0.0000
0.0690 1.0690 0.0000
0.0690 1.1034 0.0000
0.0690 1.1379 0.0000
0.0690 1.1724 0.0000
0.0690 1.2069 0.0000
0.0690 1.2414 0.0000
0.0690 1.2759 0.0000
0.0690 1.3103 0.0000
0.0690 1.3448 0.0000
0.0690 1.3793 0.0000
0.0690 1.4138 0.0000
0.0690 1.4483 0.0000
0.0690 1.4828 0.0000
0.0690 1.5172 0.0000
0.0690 1.5517 0.0000
0.0690 1.5862 0.0000
0.0690 1.6207 0.0000
0.0690 1.6552 0.0000
0.0690 1.6897 0.0000
0.0690 1.7241 0.0000
0.0690 1.7586 0.0000
0.0690 1.7931 0.0000
0.0690 1.8276 0.0000
0.0690 1.8621 0.0000
0.0690 1.8966 0.0000
0.0690 1.9310 0.0000
0.0690 1.9655 0.0000
0.0690 2.0000 0.0000
0.1379 1.0000 0.0000
0.1379 1.0345 0.0000
0.1379 1.0690 0.0000
0.1379 1.1034 0.0000
0.1379 1.1379 0.0000
0.1379 1.1724 0.0000
0.1379 1.2069 0.0000
0.1379 1.2414 0.0000
0.1379 1.2759 0.0000
0.1379 1.3103 0.0000
0.1379 1.3448 0.0000
0.1379 1.3793 0.0000
0.1379 1.4138 0.0000
0.1379 1.4483 0.0000
0.1379 1.4828 0.0000
0.1379 1.5172 0.0000
0.1379 1.5517 0.0000
0.1379 1.5862 0.0000
0.1379 1.6207 0.0000
0.1379 1.6552 0.0000
0.1379 1.6897 0.0000
0.1379 1.7241 0.0000
0.1379 1.7586 0.0000
0.1379 1.7931 0.0000
0.1379 1.8276 0.0000
0.1379 1.8621 0.0000
0.1379 1.8966 0.0000
0.1379 1.9310 0.0000
0.1379 1.9655 0.0000
0.1379 2.0000 0.0000
0.2069 1.0000 0.0000
0.2069 1.0345 0.0000
0.2069 1.0690 0.0000
0.2069 1.1034 0.0000
0.2069 1.1379 0.0000
0.2069 1.1724 0.0000
0.2069 1.2069 0.0000
0.2069 1.2414 0.0000
0.2069 1.2759 0.0000
0.2069 1.3103 0.0000
0.2069 1.3448 0.0000
0.2069 1.3793 0.0000
0.2069 1.4138 0.0000
0.2069 1.4483 0.0000
0.2069 1.4828 0.0000
0.2069 1.5172 0.0000
0.2069 1.5517 0.0000
0.2069 1.5862 0.0000
0.2069 1.6207 0.0000
0.2069 1.6552 0.0000
0.2069 1.6897 0.0000
0.2069 1.7241 0.0000
0.2069 1.7586 0.0000
0.2069 1.7931 0.0000
0.2069 1.8276 0.0000
0.2069 1.8621 0.0000
0.2069 1.8966 0.0000
0.2069 1.9310 0.0000
0.2069 1.9655 0.0000
0.2069 2.0000 0.0000
0.2759 1.0000 0.0000
0.2759 1.0345 0.0000
0.2759 1.0690 0.0000
0.2759 1.1034 0.0000
0.2759 1.1379 0.0000
0.2759 1.1724 0.0000
0.2759 1.2069 0.0000
0.2759 1.2414 0.0000
0.2759 1.2759 0.0000
0.2759 1.3103 0.0000
0.2759 1.3448 0.0000
0.2759 1.3793 0.0000
0.2759 1.4138 0.0000
0.2759 1.4483 0.0000
0.2759 1.4828 0.0000
0.2759 1.5172 0.0000
0.2759 1.5517 0.0000
0.2759 1.5862 0.0000
0.2759 1.6207 0.0000
0.2759 1.6552 0.0000
0.2759 1.6897 0.0000
0.2759 1.7241 0.0000
0.2759 1.7586 0.0000
0.2759 1.7931 0.0000
0.2759 1.8276 0.0000
0.2759 1.8621 0.0000
0.2759 1.8966 0.0000
0.2759 1.9310 0.0000
0.2759 1.9655 0.0000
0.2759 2.0000 0.0000
0.3448 1.0000 0.0000
0.3448 1.0345 0.0000
0.3448 1.0690 0.0000
0.3448 1.1034 0.0000
0.3448 1.1379 0.0000
0.3448 1.1724 0.0000
0.3448 1.2069 0.0000
0.3448 1.2414 0.0000
0.3448 1.2759 0.0000
0.3448 1.3103 0.0000
0.3448 1.3448 0.0000
0.3448 1.3793 0.0000
0.3448 1.4138 0.0000
0.3448 1.4483 0.0000
0.3448 1.4828 0.0000
0.3448 1.5172 0.0000
0.3448 1.5517 0.0000
0.3448 1.5862 0.0000
0.3448 1.6207 0.0000
0.3448 1.6552 0.0000
0.3448 1.6897 0.0000
0.3448 1.7241 0.0000
0.3448 1.7586 0.0000
0.3448 1.7931 0.0000
0.3448 1.8276 0.0000
0.3448 1.8621 0.0000
0.3448 1.8966 0.0000
0.3448 1.9310 0.0000
0.3448 1.9655 0.0000
0.3448 2.0000 0.0000
0.4138 1.0000 0.0000
0.4138 1.0345 0.0000
0.4138 1.0690 0.0000
0.4138 1.1034 0.0000
0.4138 1.1379 0.0000
0.4138 1.1724 0.0000
0.4138 1.2069 0.0000
0.4138 1.2414 0.0000
0.4138 1.2759 0.0000
0.4138 1.3103 0.0000
0.4138 1.3448 0.0000
0.4138 1.3793 0.0000
0.4138 1.4138 0.0000
0.4138 1.4483 0.0000
0.4138 1.4828 0.0000
0.4138 1.5172 0.0000
0.4138 1.5517 0.0000
0.4138 1.5862 0.0000
0.4138 1.6207 0.0000
0.4138 1.6552 0.0000
0.4138 1.6897 0.0000
0.4138 1.7241 0.0000
0.4138 1.7586 0.0000
0.4138 1.7931 0.0000
0.4138 1.8276 0.0000
0.4138 1.8621 0.0000
0.4138 1.8966 0.0000
0.4138 1.9310 0.0000
0.4138 1.9655 0.0000
0.4138 2.0000 0.0000
0.4828 1.0000 0.0000
0.4828 1.0345 0.0000
0.4828 1.0690 0.0000
0.4828 1.1034 0.0000
0.4828 1.1379 0.0000
0.4828 1.1724 0.0000
0.4828 1.2069 0.0000
0.4828 1.2414 0.0000
0.4828 1.2759 0.0000
0.4828 1.3103 0.0000
0.4828 1.3448 0.0000
0.4828 1.3793 0.0000
0.4828 1.4138 0.0000
0.4828 1.4483 0.0000
0.4828 1.4828 0.0000
0.4828 1.5172 0.0000
0.4828 1.5517 0.0000
0.4828 1.5862 0.0000
0.4828 1.6207 0.0000
0.4828 1.6552 0.0000
0.4828 1.6897 0.0000
0.4828 1.7241 0.0000
0.4828 1.7586 0.0000
0.4828 1.7931 0.0000
0.4828 1.8276 0.0000
0.4828 1.8621 0.0000
0.4828 1.8966 0.0000
0.4828 1.9310 0.0000
0.4828 1.9655 0.0000
0.4828 2.0000 0.0000
0.5517 1.0000 0.0000
0.5517 1.0345 0.0000
0.5517 1.0690 0.0000
0.5517 1.1034 0.0000
0.5517 1.1379 0.0000
0.5517 1.1724 0.0000
0.5517 1.2069 0.0000
0.5517 1.2414 0.0000
0.5517 1.2759 0.0000
0.5517 1.3103 0.0000
0.5517 1.3448 0.0000
0.5517 1.3793 0.0000
0.5517 1.4138 0.0000
0.5517 1.4483 0.0000
0.5517 1.4828 0.0000
0.5517 1.5172 0.0000
0.5517 1.5517 0.0000
0.5517 1.5862 0.0000
0.5517 1.6207 0.0000
0.5517 1.6552 0.0000
0.5517 1.6897 0.0000
0.5517 1.7241 0.0000
0.5517 1.7586 0.0000
0.5517 1.7931 0.0000
0.5517 1.8276 0.0000
0.5517 1.8621 0.0000
0.5517 1.8966 0.0000
0.5517 1.9310 0.0000
0.5517 1.9655 0.0000
0.5517 2.0000 0.0000
0.6207 1.0000 0.0000
0.6207 1.0345 0.0000
0.6207 1.0690 0.0000
0.6207 1.1034 0.0000
0.6207 1.1379 0.0000
0.6207 1.1724 0.0000
0.6207 1.2069 0.0000
0.6207 1.2414 0.0000
0.6207 1.2759 0.0000
0.6207 1.3103 0.0000
0.6207 1.3448 0.0000
0.6207 1.3793 0.0000
0.6207 1.4138 0.0000
0.6207 1.4483 0.0000
0.6207 1.4828 0.0000
0.6207 1.5172 0.0000
0.6207 1.5517 0.0000
0.6207 1.5862 0.0000
0.6207 1.6207 0.0000
0.6207 1.6552 0.0000
0.6207 1.6897 0.0000
0.6207 1.7241 0.0000
0.6207 1.7586 0.0000
0.6207 1.7931 0.0000
0.6207 1.8276 0.0000
0.6207 1.8621 0.0000
0.6207 1.8966 0.0000
0.6207 1.9310 0.0000
0.6207 1.9655 0.0000
0.6207 2.0000 0.0000
0.6897 1.0000 0.0000
0.6897 1.0345 0.0000
0.6897 1.0690 0.0000
0.6897 1.1034 0.0000
0.6897 1.1379 0.0000
0.6897 1.1724 0.0000
0.6897 1.2069 0.0000
0.6897 1.2414 0.0000
0.6897 1.2759 0.0000
0.6897 1.3103 0.0000
0.6897 1.3448 0.0000
0.6897 1.3793 0.0000
0.6897 1.4138 0.0000
0.6897 1.4483 0.0000
0.6897 1.4828 0.0000
0.6897 1.5172 0.0000
0.6897 1.5517 0.0000
0.6897 1.5862 0.0000
0.6897 1.6207 0.0000
0.6897 1.6552 0.0000
0.6897 1.6897 0.0000
0.6897 1.7241 0.0000
0.6897 1.7586 0.0000
0.6897 1.7931 0.0000
0.6897 1.8276 0.0000
0.6897 1.8621 0.0000
0.6897 1.8966 0.0000
0.6897 1.9310 0.0000
0.6897 1.9655 0.0000
0.6897 2.0000 0.0000
0.7586 1.0000 0.0000
0.7586 1.0345 0.0000
0.7586 1.0690 0.0000
0.7586 1.1034 0.0000
0.7586 1.1379 0.0000
0.7586 1.1724 0.0000
0.7586 1.2069 0.0000
0.7586 1.2414 0.0000
0.7586 1.2759 0.0000
0.7586 1.3103 0.0000
0.7586 1.3448 0.0000
0.7586 1.3793 0.0000
0.7586 1.4138 0.0000
0.7586 1.4483 0.0000
0.7586 1.4828 0.0000
0.7586 1.5172 0.0000
0.7586 1.5517 0.0000
0.7586 1.5862 0.0000
0.7586 1.6207 0.0000
0.7586 1.6552 0.0000
0.7586 1.6897 0.0000
0.7586 1.7241 0.0000
0.7586 1.7586 0.0000
0.7586 1.7931 0.0000
0.7586 1.8276 0.0000
0.7586 1.8621 0.0000
0.7586 1.8966 0.0000
0.7586 1.9310 0.0000
0.7586 1.9655 0.0000
0.7586 2.0000 0.0000
0.8276 1.0000 0.0000
0.8276 1.0345 0.0000
0.8276 1.0690 0.0000
0.8276 1.1034 0.0000
0.8276 1.1379 0.0000
0.8276 1.1724 0.0000
0.8276 1.2069 0.0000
0.8276 1.2414 0.0000
0.8276 1.2759 0.0000
0.8276 1.3103 0.0000
0.8276 1.3448 0.0000
0.8276 1.3793 0.0000
0.8276 1.4138 0.0000
0.8276 1.4483 0.0000
0.8276 1.4828 0.0000
0.8276 1.5172 0.0000
0.8276 1.5517 0.0000
0.8276 1.5862 0.0000
0.8276 1.6207 0.0000
0.8276 1.6552 0.0000
0.8276 1.6897 0.0000
0.8276 1.7241 0.0000
0.8276 1.7586 0.0000
0.8276 1.7931 0.0000
0.8276 1.8276 0.0000
0.8276 1.8621 0.0000
0.8276 1.8966 0.0000
0.8276 1.9310 0.0000
0.8276 1.9655 0.0000
0.8276 2.0000 0.0000
0.8966 1.0000 0.0000
0.8966 1.0345 0.0000
0.8966 1.0690 0.0000
0.8966 1.1034 0.0000
0.8966 1.1379 0.0000
0.8966 1.1724 0.0000
0.8966 1.2069 0.0000
0.8966 1.2414 0.0000
0.8966 1.2759 0.0000
0.8966 1.3103 0.0000
0.8966 1.3448 0.0000
0.8966 1.3793 0.0000
0.8966 1.4138 0.0000
0.8966 1.4483 0.0000
0.8966 1.4828 0.0000
0.8966 1.5172 0.0000
0.8966 1.5517 0.0000
0.8966 1.5862 0.0000
0.8966 1.6207 0.0000
0.8966 1.6552 0.0000
0.8966 1.6897 0.0000
0.8966 1.7241 0.0000
0.8966 1.7586 0.0000
0.8966 1.7931 0.0000
0.8966 1.8276 0.0000
0.8966 1.8621 0.0000
0.8966 1.8966 0.0000
0.8966 1.9310 0.0000
0.8966 1.9655 0.0000
0.8966 2.0000 0.0000
0.9655 1.0000 0.0000
0.9655 1.0345 0.0000
0.9655 1.0690 0.0000
0.9655 1.1034 0.0000
0.9655 1.1379 0.0000
0.9655 1.1724 0.0000
0.9655 1.2069 0.0000
0.9655 1.2414 0.0000
0.9655 1.2759 0.0000
0.9655 1.3103 0.0000
0.9655 1.3448 0.0000
0.9655 1.3793 0.0000
0.9655 1.4138 0.0000
0.9655 1.4483 0.0000
0.9655 1.4828 0.0000
0.9655 1.5172 0.0000
0.9655 1.5517 0.0000
0.9655 1.5862 0.0000
0.9655 1.6207 0.0000
0.9655 1.6552 0.0000
0.9655 1.6897 0.0000
0.9655 1.7241 0.0000
0.9655 1.7586 0.0000
0.9655 1.7931 0.0000
0.9655 1.8276 0.0000
0.9655 1.8621 0.0000
0.9655 1.8966 0.0000
0.9655 1.9310 0.0000
0.9655 1.9655 0.0000
0.9655 2.0000 0.0000
1.0345 1.0000 0.0000
1.0345 1.0345 0.0000
1.0345 1.0690 0.0000
1.0345 1.1034 0.0000
1.0345 1.1379 0.0000
1.0345 1.1724 0.0000
1.0345 1.2069 0.0000
1.0345 1.2414 0.0000
1.0345 1.2759 0.0000
1.0345 1.3103 0.0000
1.0345 1.3448 0.0000
[...]
         <PointData>
            <DataArray Name="fValues" NumberOfComponents="3" format="ascii" type="Float64">
-2.34920e-41 -3.09373e-41        00000 
 3.29707e-41  4.33250e-41        00000 
-6.68607e-41 -8.77854e-41        00000 
 1.43130e-40  1.88695e-40        00000 
-2.96801e-40 -3.94902e-40        00000 
 5.86358e-40  7.91551e-40        00000 
-1.09956e-39 -1.51454e-39        00000 
 1.95440e-39  2.76338e-39        00000 
-3.28944e-39 -4.80510e-39        00000 
 5.23822e-39  7.95890e-39        00000 
-7.88625e-39 -1.25516e-38        00000 
 1.12172e-38  1.88387e-38        00000 
-1.50642e-38 -2.68977e-38        00000 
 1.90897e-38  3.65171e-38        00000 
-2.28137e-38 -4.71178e-38        00000 
 2.56984e-38  5.77511e-38        00000 
-2.72716e-38 -6.72037e-38        00000 
 2.72526e-38  7.42069e-38        00000 
-2.56345e-38 -7.77087e-38        00000 
 2.26897e-38  7.71300e-38        00000 
-1.88953e-38 -7.25210e-38        00000 
 1.48065e-38  6.45595e-38        00000 
-1.09237e-38 -5.43893e-38        00000 
 7.59780e-39  4.33523e-38        00000 
-4.99598e-39 -3.27049e-38        00000 
 3.12400e-39  2.34060e-38        00000 
-1.88273e-39 -1.60292e-38        00000 
 1.13165e-39  1.07995e-38        00000 
-7.40225e-40 -7.71651e-39        00000 
 6.20049e-40  6.70228e-39        00000 
 5.40383e-41  7.13758e-41        00000 
-7.74352e-41 -1.01861e-40        00000 
 1.62329e-40  2.12730e-40        00000 
-3.57856e-40 -4.69655e-40        00000 
 7.62113e-40  1.00700e-39        00000 
-1.54365e-39 -2.06474e-39        00000 
 2.96324e-39  4.03581e-39        00000 
-5.38295e-39 -7.51223e-39        00000 
 9.24345e-39  1.33074e-38        00000 
-1.49897e-38 -2.24220e-38        00000 
 2.29364e-38  3.59165e-38        00000 
-3.30895e-38 -5.46697e-38        00000 
 4.49749e-38  7.90360e-38        00000 
-5.75533e-38 -1.08471e-37        00000 
 6.92968e-38  1.41247e-37        00000 
-7.84575e-38 -1.74416e-37        00000 
 8.34805e-38  2.04115e-37        00000 
-8.34323e-38 -2.26247e-37        00000 
 7.82850e-38  2.37374e-37        00000 
-6.89383e-38 -2.35588e-37        00000 
 5.69639e-38  2.21039e-37        00000 
-4.41719e-38 -1.95938e-37        00000 
 3.21644e-38  1.64008e-37        00000 
-2.20268e-38 -1.29584e-37        00000 
 1.42316e-38  9.66610e-38        00000 
-8.73196e-39 -6.82033e-38        00000 
 5.16188e-39  4.58826e-38        00000 
-3.04689e-39 -3.02347e-38        00000 
 1.96444e-39  2.10951e-38        00000 
-1.63567e-39 -1.81044e-38        00000 
-2.20577e-40 -2.92964e-40        00000 
 3.24627e-40  4.28314e-40        00000 
-7.09326e-40 -9.28919e-40        00000 
 1.62152e-39  2.11967e-39        00000 
-3.56879e-39 -4.68255e-39        00000 
 7.45396e-39  9.87232e-39        00000 
-1.47257e-38 -1.98073e-38        00000 
 2.74723e-38  3.77779e-38        00000 
-4.83412e-38 -6.84464e-38        00000 
 8.01449e-38  1.17737e-37        00000 
-1.25069e-37 -1.92174e-37        00000 
 1.83551e-37  2.97494e-37        00000 
-2.53127e-37 -4.36559e-37        00000 
 3.27769e-37  6.06963e-37        00000 
-3.98226e-37 -7.99074e-37        00000 
 4.53652e-37  9.95531e-37        00000 
-4.84243e-37 -1.17296e-36        00000 
 4.84042e-37  1.30609e-36        00000 
-4.52835e-37 -1.37347e-36        00000 
 3.96316e-37  1.36303e-36        00000 
-3.24399e-37 -1.27562e-36        00000 
 2.48368e-37  1.12503e-36        00000 
-1.77990e-37 -9.34443e-37        00000 
 1.19605e-37  7.30579e-37        00000 
-7.56422e-38 -5.37625e-37        00000 
 4.53627e-38  3.72935e-37        00000 
-2.62139e-38 -2.45563e-37        00000 
 1.51633e-38  1.57512e-37        00000 
-9.63362e-39 -1.06685e-37        00000 
 7.97662e-39  9.01668e-38        00000 
 9.18494e-40  1.22955e-39        00000 
-1.38886e-39 -1.84209e-39        00000 
 3.16230e-39  4.14747e-39        00000 
-7.49542e-39 -9.77976e-39        00000 
 1.70531e-38  2.22618e-38        00000 
-3.67478e-38 -4.82757e-38        00000 
 7.47606e-38  9.94598e-38        00000 
-1.43344e-37 -1.94460e-37        00000 
 2.58670e-37  3.60525e-37        00000 
-4.38776e-37 -6.33411e-37        00000 
 6.98856e-37  1.05398e-36        00000 
-1.04410e-36 -1.66012e-36        00000 
 1.46187e-36  2.47385e-36        00000 
-1.91649e-36 -3.48572e-36        00000 
 2.35060e-36  4.64117e-36        00000 
-2.69517e-36 -5.83566e-36        00000 
 2.88668e-36  6.92414e-36        00000 
-2.88604e-36 -7.74679e-36        00000 
 2.69162e-36  8.16600e-36        00000 
-2.34044e-36 -8.10351e-36        00000 
 1.89675e-36  7.56408e-36        00000 
-1.43281e-36 -6.63604e-36        00000 
 1.00967e-36  5.46768e-36        00000 
-6.65099e-37 -4.22825e-36        00000 
 4.11360e-37  3.06804e-36        00000 
-2.41004e-37 -2.09103e-36        00000 
 1.36217e-37  1.34676e-36        00000 
-7.73954e-38 -8.40103e-37        00000 
 4.86493e-38  5.51431e-37        00000 
-4.01561e-38 -4.58334e-37        00000 
-3.72980e-39 -5.04672e-39        00000 
 5.80620e-39  7.76156e-39        00000 
-1.38051e-38 -1.81760e-38        00000 
 3.39947e-38  4.43660e-38        00000 
-8.01254e-38 -1.04256e-37        00000 
 1.78542e-37  2.32983e-37        00000 
-3.74900e-37 -4.93819e-37        00000 
 7.40395e-37  9.91518e-37        00000 
-1.37306e-36 -1.88424e-36        00000 
 2.38771e-36  3.38656e-36        00000 
-3.88850e-36 -5.75304e-36        00000 
 5.92367e-36  9.23206e-36        00000 
-8.43234e-36 -1.39867e-35        00000 
 1.12053e-35  1.99932e-35        00000 
-1.38870e-35 -2.69474e-35        00000 
 1.60365e-35  3.42214e-35        00000 
-1.72405e-35 -4.09145e-35        00000 
 1.72409e-35  4.60130e-35        00000 
-1.60251e-35 -4.86307e-35        00000 
 1.38352e-35  4.82571e-35        00000 
-1.10900e-35 -4.49181e-35        00000 
 8.25389e-36  3.91824e-35        00000 
-5.70905e-36 -3.20025e-35        00000 
 3.67904e-36  2.44546e-35        00000 
-2.22074e-36 -1.74746e-35        00000 
 1.26910e-36  1.16841e-35        00000 
-7.01445e-37 -7.34746e-36        00000 
 3.92326e-37  4.44657e-36        00000 
-2.45068e-37 -2.81863e-36        00000 
 2.02208e-37  2.29833e-36        00000 
 1.46943e-38  2.01628e-38        00000 
-2.36031e-38 -3.18966e-38        00000 
 5.87448e-38  7.78611e-38        00000 
-1.50638e-37 -1.97137e-37        00000 
 3.68763e-37  4.79278e-37        00000 
-8.51924e-37 -1.10620e-36        00000 
 1.85120e-36  2.41743e-36        00000 
-3.77539e-36 -4.99522e-36        00000 
 7.21304e-36  9.74959e-36        00000 
-1.28886e-35 -1.79592e-35        00000 
 2.15073e-35  3.11999e-35        00000 
-3.34714e-35 -5.10873e-35        00000 
 4.85222e-35  7.87957e-35        00000 
-6.54474e-35 -1.14404e-34        00000 
 8.20467e-35  1.56252e-34        00000 
-9.54978e-35 -2.00586e-34        00000 
 1.03097e-34  2.41815e-34        00000 
-1.03132e-34 -2.73492e-34        00000 
 9.55033e-35  2.89891e-34        00000 
-8.18037e-35 -2.87664e-34        00000 
 6.47764e-35  2.66945e-34        00000 
-4.74188e-35 -2.31408e-34        00000 
 3.21246e-35  1.87201e-34        00000 
-2.02024e-35 -1.41188e-34        00000 
 1.18728e-35  9.92062e-35        00000 
-6.60769e-36 -6.49560e-35        00000 
 3.57266e-36  3.97945e-35        00000 
-1.97376e-36 -2.32980e-35        00000 
 1.23227e-36  1.42028e-35        00000 
-1.01970e-36 -1.13269e-35        00000 
-5.59781e-38 -7.81844e-38        00000 
 9.29995e-38  1.27493e-37        00000 
-2.42885e-37 -3.25140e-37        00000 
 6.50189e-37  8.55792e-37        00000 
-1.65767e-36 -2.15768e-36        00000 
 3.98191e-36  5.15610e-36        00000 
-8.98034e-36 -1.16462e-35        00000 
 1.89677e-35  2.48247e-35        00000 
-3.74379e-35 -4.98756e-35        00000 
 6.89193e-35  9.43573e-35        00000 
-1.18128e-34 -1.67958e-34        00000 
 1.88221e-34  2.81106e-34        00000 
-2.78402e-34 -4.42080e-34        00000 
 3.81765e-34  6.52831e-34        00000 
-4.84727e-34 -9.04564e-34        00000 
 5.69181e-34  1.17500e-33        00000 
-6.17361e-34 -1.42942e-33        00000 
 6.17805e-34  1.62676e-33        00000 
-5.69765e-34 -1.72986e-33        00000 
 4.83761e-34  1.71663e-33        00000 
-3.77871e-34 -1.58772e-33        00000 
 2.71522e-34  1.36696e-33        00000 
-1.79704e-34 -1.09421e-33        00000 
 1.09965e-34  8.13412e-34        00000 
-6.27506e-35 -5.61025e-34        00000 
 3.39623e-35  3.58936e-34        00000 
-1.79888e-35 -2.13678e-34        00000 
 9.86744e-36  1.20621e-34        00000 
-6.20050e-36 -7.03705e-35        00000 
 5.16349e-36  5.46832e-35        00000 
 2.05479e-37  2.93358e-37        00000 
-3.53919e-37 -4.94177e-37        00000 
 9.72298e-37  1.31963e-36        00000 
-2.72417e-36 -3.61914e-36        00000 
 7.25474e-36  9.48721e-36        00000 
-1.81769e-35 -2.35359e-35        00000 
 4.26851e-35  5.50951e-35        00000 
-9.36735e-35 -1.21470e-34        00000 
 1.91612e-34  2.51855e-34        00000 
-3.64499e-34 -4.90519e-34        00000 
 6.43502e-34  8.96575e-34        00000 
-1.05242e-33 -1.53679e-33        00000 
 1.59181e-33  2.46856e-33        00000 
-2.22329e-33 -3.71337e-33        00000 
 2.86332e-33  5.22682e-33        00000 
-3.39550e-33 -6.87763e-33        00000 
 3.70244e-33  8.45061e-33        00000 
-3.70692e-33 -9.68357e-33        00000 
 3.40315e-33  1.03343e-32        00000 
-2.86113e-33 -1.02562e-32        00000 
 2.20074e-33  9.45174e-33        00000 
-1.54845e-33 -8.07636e-33        00000 
 9.98085e-34  6.38968e-33        00000 
-5.92237e-34 -4.67431e-33        00000 
 3.27163e-34  3.15800e-33        00000 
-1.72043e-34 -1.96916e-33        00000 
 8.95574e-35  1.13558e-33        00000 
-4.91418e-35 -6.15688e-34        00000 
 3.13164e-35  3.41752e-34        00000 
-2.63195e-35 -2.57543e-34        00000 
-7.24017e-37 -1.06159e-36        00000 
 1.29588e-36  1.85140e-36        00000 
-3.75353e-36 -5.18827e-36        00000 
 1.10363e-35  1.48616e-35        00000 
-3.07957e-35 -4.06162e-35        00000 
 8.07555e-35  1.04910e-34        00000 
-1.98166e-34 -2.55286e-34        00000 
 4.53483e-34  5.83896e-34        00000 
-9.64778e-34 -1.25300e-33        00000 
 1.90299e-33  2.51914e-33        00000 
-3.47159e-33 -4.73987e-33        00000 
 5.84466e-33  8.33923e-33        00000 
-9.06318e-33 -1.37093e-32        00000 
 1.29215e-32  2.10435e-32        00000 
-1.69090e-32 -3.01350e-32        00000 
 2.02757e-32  4.02186e-32        00000 
-2.22417e-32 -4.99628e-32        00000 
 2.22826e-32  5.76901e-32        00000 
-2.03530e-32 -6.18145e-32        00000 
 1.69223e-32  6.13576e-32        00000 
-1.27910e-32 -5.63211e-32        00000 
 8.78629e-33  4.77246e-32        00000 
-5.49472e-33 -3.72689e-32        00000 
 3.14839e-33  2.67785e-32        00000 
-1.67825e-33 -1.76773e-32        00000 
 8.57673e-34  1.07095e-32        00000 
-4.41489e-34 -5.96044e-33        00000 
 2.44781e-34  3.08936e-33        00000 
-1.59248e-34 -1.62014e-33        00000 
 1.35228e-34  1.17690e-33        00000 
 2.43900e-36  3.69193e-36        00000 
-4.54609e-36 -6.67995e-36        00000 
 1.39126e-35  1.96862e-35        00000 
-4.30407e-35 -5.90406e-35        00000 
 1.26248e-34  1.68704e-34        00000 
-3.47749e-34 -4.55132e-34        00000 
 8.95193e-34  1.15507e-33        00000 
-2.14482e-33 -2.74995e-33        00000 
 4.76515e-33  6.12768e-33        00000 
-9.78434e-33 -1.27569e-32        00000 
 1.85131e-32  2.47792e-32        00000 
-3.21948e-32 -4.48638e-32        00000 
 5.13382e-32  7.56544e-32        00000 
-7.49064e-32 -1.18735e-31        00000 
 9.98046e-32  1.73284e-31        00000 
-1.21195e-31 -2.34908e-31        00000 
 1.33865e-31  2.95392e-31        00000 
-1.34219e-31 -3.43985e-31        00000 
 1.21901e-31  3.70253e-31        00000 
-1.00081e-31 -3.67611e-31        00000 
 7.41479e-32  3.35968e-31        00000 
-4.95419e-32 -2.82045e-31        00000 
 2.99173e-32  2.17057e-31        00000 
-1.64693e-32 -1.52835e-31        00000 
 8.44347e-33  9.82821e-32        00000 
-4.20410e-33 -5.76310e-32        00000 
 2.16291e-33  3.08135e-32        00000 
-1.22657e-33 -1.51808e-32        00000 
 8.17196e-34  7.45698e-33        00000 
-6.99871e-34 -5.18000e-33        00000 
-7.82229e-36 -1.22932e-35        00000 
 1.52117e-35  2.31210e-35        00000 
-4.92724e-35 -7.17943e-35        00000 
 1.60784e-34  2.25974e-34        00000 
-4.97356e-34 -6.77087e-34        00000 
 1.44448e-33  1.91421e-33        00000 
-3.91728e-33 -5.08491e-33        00000 
 9.87064e-33  1.26483e-32        00000 
-2.30058e-32 -2.93754e-32        00000 
 4.93975e-32  6.35532e-32        00000 
-9.73618e-32 -1.27866e-31        00000 
 1.75596e-31  2.38953e-31        00000 
-2.88974e-31 -4.14421e-31        00000 
 4.32830e-31  6.66529e-31        00000 
-5.88644e-31 -9.93292e-31        00000 
 7.25192e-31  1.37001e-30        00000 
-8.07401e-31 -1.74622e-30        00000 
 8.10368e-31  2.05291e-30        00000 
-7.31290e-31 -2.22110e-30        00000 
 5.91762e-31  2.20610e-30        00000 
-4.28370e-31 -2.00651e-30        00000 
 2.77102e-31  1.66693e-30        00000 
-1.60611e-31 -1.26180e-30        00000 
 8.44145e-32  8.68250e-31        00000 
-4.15083e-32 -5.41885e-31        00000 
 2.02766e-32  3.06106e-31        00000 
-1.06055e-32 -1.56323e-31        00000 
 6.22711e-33  7.26820e-32        00000 
-4.23367e-33 -3.30762e-32        00000 
 3.63565e-33  2.17327e-32        00000 
 2.37827e-35  3.90380e-35        00000 
-4.83210e-35 -7.64525e-35        00000 
 1.65869e-34  2.50532e-34        00000 
-5.72165e-34 -8.29441e-34        00000 
 1.87225e-33  2.61362e-33        00000 
-5.75547e-33 -7.76980e-33        00000 
 1.65161e-32  2.16867e-32        00000 
-4.39830e-32 -5.65938e-32        00000 
 1.08100e-31  1.37575e-31        00000 
-2.43985e-31 -3.10602e-31        00000 
 5.03478e-31  6.49809e-31        00000 
-9.46197e-31 -1.25783e-30        00000 
 1.61389e-30  2.25049e-30        00000 
-2.49067e-30 -3.71910e-30        00000 
 3.46783e-30  5.67228e-30        00000 
-4.34395e-30 -7.97524e-30        00000 
 4.88149e-30  1.03200e-29        00000 
-4.90603e-30 -1.22634e-29        00000 
 4.39516e-30  1.33466e-29        00000 
-3.49743e-30 -1.32640e-29        00000 
 2.46379e-30  1.19996e-29        00000 
-1.53372e-30 -9.85150e-30        00000 
 8.46508e-31  7.31779e-30        00000 
-4.21487e-31 -4.90403e-30        00000 
 1.98586e-31  2.95677e-30        00000 
-9.66320e-32 -1.59949e-30        00000 
 5.26519e-32  7.74440e-31        00000 
-3.22538e-32 -3.36664e-31        00000 
 2.20881e-32  1.39897e-31        00000 
-1.88266e-32 -8.55716e-32        00000 
-6.82603e-35 -1.17758e-34        00000 
 1.45022e-34  2.40454e-34        00000 
-5.27862e-34 -8.32534e-34        00000 
 1.92807e-33  2.90492e-33        00000 
-6.69218e-33 -9.65284e-33        00000 
 2.18554e-32  3.02780e-32        00000 
-6.66696e-32 -8.91546e-32        00000 
 1.88631e-31  2.45182e-31        00000 
-4.91697e-31 -6.26828e-31        00000 
 1.17355e-30  1.48392e-30        00000 
-2.55048e-30 -3.24306e-30        00000 
 5.02279e-30  6.52953e-30        00000 
-8.92519e-30 -1.20963e-29        00000 
 1.42557e-29  2.06036e-29        00000 
-2.03954e-29 -3.22450e-29        00000 
 2.60482e-29  4.63183e-29        00000 
-2.95938e-29 -6.09611e-29        00000 
 2.97955e-29  7.33273e-29        00000 
-2.64713e-29 -8.03518e-29        00000 
 2.06546e-29  7.99188e-29        00000 
-1.40863e-29 -7.18700e-29        00000 
 8.37085e-30  5.82127e-29        00000 
-4.35249e-30 -4.23098e-29        00000 
 2.03323e-30  2.74960e-29        00000 
-9.21560e-31 -1.59216e-29        00000 
 4.60111e-31  8.18512e-30        00000 
-2.68771e-31 -3.72099e-30        00000 
 1.71114e-31  1.49349e-30        00000 
-1.15332e-31 -5.55192e-31        00000 
 9.61953e-32  3.08208e-31        00000 
 1.84211e-34  3.36090e-34        00000 
-4.09286e-34 -7.16125e-34        00000 
 1.57930e-33  2.62131e-33        00000 
-6.11384e-33 -9.65452e-33        00000 
 2.25563e-32  3.39135e-32        00000 
-7.85156e-32 -1.12606e-31        00000 
 2.55741e-31  3.51204e-31        00000 
-7.73009e-31 -1.02266e-30        00000 
 2.15058e-30  2.76417e-30        00000 
-5.46480e-30 -6.89963e-30        00000 
 1.25953e-29  1.58379e-29        00000 
-2.61682e-29 -3.33352e-29        00000 
 4.87454e-29  6.42237e-29        00000 
-8.10248e-29 -1.13168e-28        00000 
 1.19659e-28  1.82296e-28        00000 
-1.56351e-28 -2.68217e-28        00000 
 1.79973e-28  3.59825e-28        00000 
-1.81630e-28 -4.38874e-28        00000 
 1.59822e-28  4.84773e-28        00000 
-1.21828e-28 -4.82717e-28        00000 
 7.98825e-29  4.31202e-28        00000 
-4.48137e-29 -3.43862e-28        00000 
 2.16186e-29  2.43649e-28        00000 
-9.36240e-30 -1.52707e-28        00000 
 4.15083e-30  8.42794e-29        00000 
-2.23766e-30 -4.07601e-29        00000 
 1.43180e-30  1.71684e-29        00000 
-9.27673e-31 -6.24844e-30        00000 
 5.96603e-31  2.01243e-30        00000 
-4.78552e-31 -9.66625e-31        00000 
-4.65713e-34 -9.04130e-34        00000 
 1.08139e-33  2.01067e-33        00000 
-4.41832e-33 -7.78003e-33        00000 
 1.81273e-32  3.02743e-32        00000 
-7.11672e-32 -1.12633e-31        00000 
 2.64688e-31  3.97028e-31        00000 
-9.24225e-31 -1.31667e-30        00000 
 3.00074e-30  4.07904e-30        00000 
-8.97027e-30 -1.17225e-29        00000 
 2.44539e-29  3.10453e-29        00000 
-6.02555e-29 -7.53346e-29        00000 
 1.33139e-28  1.66779e-28        00000 
-2.61975e-28 -3.35973e-28        00000 
 4.56268e-28  6.15208e-28        00000 
-6.99544e-28 -1.02374e-27        00000 
 9.39251e-28  1.54744e-27        00000 
-1.09843e-27 -2.12139e-27        00000 
 1.11212e-27  2.62913e-27        00000 
-9.67710e-28 -2.93166e-27        00000 
 7.17177e-28  2.92405e-27        00000 
-4.47846e-28 -2.59230e-27        00000 
 2.33357e-28  2.02996e-27        00000 
-1.02042e-28 -1.39562e-27        00000 
 4.04187e-29  8.37508e-28        00000 
-1.83883e-29 -4.36088e-28        00000 
 1.14914e-29  1.95679e-28        00000 
-8.00746e-30 -7.49289e-29        00000 
 5.08476e-30  2.40411e-29        00000 
-3.01471e-30 -6.32040e-30        00000 
 2.28028e-30  2.32407e-30        00000 
 1.09949e-33  2.28453e-33        00000 
-2.66421e-33 -5.29974e-33        00000 
 1.15009e-32  2.16567e-32        00000 
-4.99478e-32 -8.90444e-32        00000 
 2.08634e-31  3.51265e-31        00000 
-8.30093e-31 -1.31746e-30        00000 
 3.11634e-30  4.66168e-30        00000 
-1.09217e-29 -1.54362e-29        00000 
 3.53197e-29  4.74400e-29        00000 
-1.04158e-28 -1.34215e-28        00000 
 2.76945e-28  3.46883e-28        00000 
-6.57097e-28 -8.13828e-28        00000 
 1.37862e-27  1.72592e-27        00000 
-2.53745e-27 -3.30266e-27        00000 
 4.06848e-27  5.70231e-27        00000 
-5.64510e-27 -8.88603e-27        00000 
 6.73205e-27  1.24852e-26        00000 
-6.84629e-27 -1.57626e-26        00000 
 5.87947e-27  1.77768e-26        00000 
-4.20893e-27 -1.77729e-26        00000 
 2.46915e-27  1.56215e-26        00000 
-1.16499e-27 -1.19715e-26        00000 
 4.43949e-28  7.93580e-27        00000 
-1.59333e-28 -4.51529e-27        00000 
 8.37528e-29  2.18709e-27        00000 
-6.43118e-29 -8.92584e-28        00000 
 4.65334e-29  3.01749e-28        00000 
-2.76490e-29 -8.11405e-29        00000 
 1.46140e-29  1.49435e-29        00000 
-1.02053e-29 -1.97369e-30        00000 
-2.41769e-33 -5.40531e-33        00000 
 6.09970e-33  1.30638e-32        00000 
-2.77331e-32 -5.62719e-32        00000 
 1.27190e-31  2.44246e-31        00000 
-5.64317e-31 -1.02167e-30        00000 
 2.40069e-30  4.08226e-30        00000 
-9.70219e-30 -1.54533e-29        00000 
 3.68350e-29  5.49214e-29        00000 
-1.29667e-28 -1.81517e-28        00000 
 4.17229e-28  5.52492e-28        00000 
-1.20964e-27 -1.53373e-27        00000 
 3.11734e-27  3.84821e-27        00000 
-7.05475e-27 -8.66657e-27        00000 
 1.38721e-26  1.74574e-26        00000 
-2.34814e-26 -3.14465e-26        00000 
 3.39227e-26  5.07266e-26        00000 
-4.14585e-26 -7.32942e-26        00000 