<?xml version="1.0" encoding="utf-8"?>
<VTKFile byte_order="LittleEndian" type="UnstructuredGrid" version="0.1">
   <UnstructuredGrid>
      <Piece NumberOfCells="3364" NumberOfPoints="1741">
         <Points>
            <DataArray Name="Points" NumberOfComponents="3" format="ascii" type="Float32">
0.0000 1.0000 0.0000
0.0000 1.0345 0.0000
0.0000 1.0690 0.0000
0.0000 1.1034 0.0000
0.0000 1.1379 0.0000
0.0000 1.1724 0.0000
0.0000 1.2069 0.0000
0.0000 1.2414 0.0000
0.0000 1.2759 0.0000
0.0000 1.3103 0.0000
0.0000 1.3448 0.0000
0.0000 1.3793 0.0000
0.0000 1.4138 0.0000
0.0000 1.4483 0.0000
0.0000 1.4828 0.0000
0.0000 1.5172 0.0000
0.0000 1.5517 0.0000
0.0000 1.5862 0.0000
0.0000 1.6207 0.0000
0.0000 1.6552 0.0000
0.0000 1.6897 0.0000
0.0000 1.7241 0.0000
0.0000 1.7586 0.0000
0.0000 1.7931 0.0000
0.0000 1.8276 0.0000
0.0000 1.8621 0.0000
0.0000 1.8966 0.0000
0.0000 1.9310 0.0000
0.0000 1.9655 0.0000
0.0000 2.0000 0.0000
0.0690 1.0000 0.0000
0.0690 1.0345 0.0000
0.0690 1.0690 0.0000
0.0690 1.1034 0.0000
0.0690 1.1379 0.0000
0.0690 1.1724 0.0000
0.0690 1.2069 0.0000
0.0690 1.2414 0.0000
0.0690 1.2759 0.0000
0.0690 1.3103 0.0000
0.0690 1.3448 0.0000
0.0690 1.3793 0.0000
0.0690 1.4138 0.0000
0.0690 1.4483 0.0000
0.0690 1.4828 0.0000
0.0690 1.5172 0.0000
0.0690 1.5517 0.0000
0.0690 1.5862 0.0000
0.0690 1.6207 0.0000
0.0690 1.6552 0.0000
0.0690 1.6897 0.0000
0.0690 1.7241 0.0000
0.0690 1.7586 0.0000
0.0690 1.7931 0.0000
0.0690 1.8276 0.0000
0.0690 1.8621 0.0000
0.0690 1.8966 0.0000
0.0690 1.9310 0.0000
0.0690 1.9655 0.0000
0.0690 2.0000 0.0000
0.1379 1.0000 0.0000
0.1379 1.0345 0.0000
0.1379 1.0690 0.0000
0.1379 1.1034 0.0000
0.1379 1.1379 0.0000
0.1379 1.1724 0.0000
0.1379 1.2069 0.0000
0.1379 1.2414 0.0000
0.1379 1.2759 0.0000
0.1379 1.3103 0.0000
0.1379 1.3448 0.0000
0.1379 1.3793 0.0000
0.1379 1.4138 0.0000
0.1379 1.4483 0.0000
0.1379 1.4828 0.0000
0.1379 1.5172 0.0000
0.1379 1.5517 0.0000
0.1379 1.5862 0.0000
0.1379 1.6207 0.0000
0.1379 1.6552 0.0000
0.1379 1.6897 0.0000
0.1379 1.7241 0.0000
0.1379 1.7586 0.0000
0.1379 1.7931 0.0000
0.1379 1.8276 0.0000
0.1379 1.8621 0.0000
0.1379 1.8966 0.0000
0.1379 1.9310 0.0000
0.1379 1.9655 0.0000
0.1379 2.0000 0.0000
0.2069 1.0000 0.0000
0.2069 1.0345 0.0000
0.2069 1.0690 0.0000
0.2069 1.1034 0.0000
0.2069 1.1379 0.0000
0.2069 1.1724 0.0000
0.2069 1.2069 0.0000
0.2069 1.2414 0.0000
0.2069 1.2759 0.0000
0.2069 1.3103 0.0000
0.2069 1.3448 0.0000
0.2069 1.3793 0.0000
0.2069 1.4138 0.0000
0.2069 1.4483 0.0000
0.2069 1.4828 0.0000
0.2069 1.5172 0.0000
0.2069 1.5517 0.0000
0.2069 1.5862 0.0000
0.2069 1.6207 0.0000
0.2069 1.6552 0.0000
0.2069 1.6897 0.0000
0.2069 1.7241 0.0000
0.2069 1.7586 0.0000
0.2069 1.7931 0.0000
0.2069 1.8276 0.0000
0.2069 1.8621 0.0000
0.2069 1.8966 0.0000
0.2069 1.9310 0.0000
0.2069 1.9655 0.0000
0.2069 2.0000 0.0000
0.2759 1.0000 0.0000
0.2759 1.0345 0.0000
0.2759 1.0690 0.0000
0.2759 1.1034 0.0000
0.2759 1.1379 0.0000
0.2759 1.1724 0.0000
0.2759 1.2069 0.0000
0.2759 1.2414 0.0000
0.2759 1.2759 0.0000
0.2759 1.3103 0.0000
0.2759 1.3448 0.0000
0.2759 1.3793 0.0000
0.2759 1.4138 0.0000
0.2759 1.4483 0.0000
0.2759 1.4828 0.0000
0.2759 1.5172 0.0000
0.2759 1.5517 0.0000
0.2759 1.5862 0.0000
0.2759 1.6207 0.0000
0.2759 1.6552 0.0000
0.2759 1.6897 0.0000
0.2759 1.7241 0.0000
0.2759 1.7586 0.0000
0.2759 1.7931 0.0000
0.2759 1.8276 0.0000
0.2759 1.8621 0.0000
0.2759 1.8966 0.0000
0.2759 1.9310 0.0000
0.2759 1.9655 0.0000
0.2759 2.0000 0.0000
0.3448 1.0000 0.0000
0.3448 1.0345 0.0000
0.3448 1.0690 0.0000
0.3448 1.1034 0.0000
0.3448 1.1379 0.0000
0.3448 1.1724 0.0000
0.3448 1.2069 0.0000
0.3448 1.2414 0.0000
0.3448 1.2759 0.0000
0.3448 1.3103 0.0000
0.3448 1.3448 0.0000
0.3448 1.3793 0.0000
0.3448 1.4138 0.0000
0.3448 1.4483 0.0000
0.3448 1.4828 0.0000
0.3448 1.5172 0.0000
0.3448 1.5517 0.0000
0.3448 1.5862 0.0000
0.3448 1.6207 0.0000
0.3448 1.6552 0.0000
0.3448 1.6897 0.0000
0.3448 1.7241 0.0000
0.3448 1.7586 0.0000
0.3448 1.7931 0.0000
0.3448 1.8276 0.0000
0.3448 1.8621 0.0000
0.3448 1.8966 0.0000
0.3448 1.9310 0.0000
0.3448 1.9655 0.0000
0.3448 2.0000 0.0000
0.4138 1.0000 0.0000
0.4138 1.0345 0.0000
0.4138 1.0690 0.0000
0.4138 1.1034 0.0000
0.4138 1.1379 0.0000
0.4138 1.1724 0.0000
0.4138 1.2069 0.0000
0.4138 1.2414 0.0000
0.4138 1.2759 0.0000
0.4138 1.3103 0.0000
0.4138 1.3448 0.0000
0.4138 1.3793 0.0000
0.4138 1.4138 0.0000
0.4138 1.4483 0.0000
0.4138 1.4828 0.0000
0.4138 1.5172 0.0000
0.4138 1.5517 0.0000
0.4138 1.5862 0.0000
0.4138 1.6207 0.0000
0.4138 1.6552 0.0000
0.4138 1.6897 0.0000
0.4138 1.7241 0.0000
0.4138 1.7586 0.0000
0.4138 1.7931 0.0000
0.4138 1.8276 0.0000
0.4138 1.8621 0.0000
0.4138 1.8966 0.0000
0.4138 1.9310 0.0000
0.4138 1.9655 0.0000
0.4138 2.0000 0.0000
0.4828 1.0000 0.0000
0.4828 1.0345 0.0000
0.4828 1.0690 0.0000
0.4828 1.1034 0.0000
0.4828 1.1379 0.0000
0.4828 1.1724 0.0000
0.4828 1.2069 0.0000
0.4828 1.2414 0.0000
0.4828 1.2759 0.0000
0.4828 1.3103 0.0000
0.4828 1.3448 0.0000
0.4828 1.3793 0.0000
0.4828 1.4138 0.0000
0.4828 1.4483 0.0000
0.4828 1.4828 0.0000
0.4828 1.5172 0.0000
0.4828 1.5517 0.0000
0.4828 1.5862 0.0000
0.4828 1.6207 0.0000
0.4828 1.6552 0.0000
0.4828 1.6897 0.0000
0.4828 1.7241 0.0000
0.4828 1.7586 0.0000
0.4828 1.7931 0.0000
0.4828 1.8276 0.0000
0.4828 1.8621 0.0000
0.4828 1.8966 0.0000
0.4828 1.9310 0.0000
0.4828 1.9655 0.0000
0.4828 2.0000 0.0000
0.5517 1.0000 0.0000
0.5517 1.0345 0.0000
0.5517 1.0690 0.0000
0.5517 1.1034 0.0000
0.5517 1.1379 0.0000
0.5517 1.1724 0.0000
0.5517 1.2069 0.0000
0.5517 1.2414 0.0000
0.5517 1.2759 0.0000
0.5517 1.3103 0.0000
0.5517 1.3448 0.0000
0.5517 1.3793 0.0000
0.5517 1.4138 0.0000
0.5517 1.4483 0.0000
0.5517 1.4828 0.0000
0.5517 1.5172 0.0000
0.5517 1.5517 0.0000
0.5517 1.5862 0.0000
0.5517 1.6207 0.0000
0.5517 1.6552 0.0000
0.5517 1.6897 0.0000
0.5517 1.7241 0.0000
0.5517 1.7586 0.0000
0.5517 1.7931 0.0000
0.5517 1.8276 0.0000
0.5517 1.8621 0.0000
0.5517 1.8966 0.0000
0.5517 1.9310 0.0000
0.5517 1.9655 0.0000
0.5517 2.0000 0.0000
0.6207 1.0000 0.0000
0.6207 1.0345 0.0000
0.6207 1.0690 0.0000
0.6207 1.1034 0.0000
0.6207 1.1379 0.0000
0.6207 1.1724 0.0000
0.6207 1.2069 0.0000
0.6207 1.2414 0.0000
0.6207 1.2759 0.0000
0.6207 1.3103 0.0000
0.6207 1.3448 0.0000
0.6207 1.3793 0.0000
0.6207 1.4138 0.0000
0.6207 1.4483 0.0000
0.6207 1.4828 0.0000
0.6207 1.5172 0.0000
0.6207 1.5517 0.0000
0.6207 1.5862 0.0000
0.6207 1.6207 0.0000
0.6207 1.6552 0.0000
0.6207 1.6897 0.0000
0.6207 1.7241 0.0000
0.6207 1.7586 0.0000
0.6207 1.7931 0.0000
0.6207 1.8276 0.0000
0.6207 1.8621 0.0000
0.6207 1.8966 0.0000
0.6207 1.9310 0.0000
0.6207 1.9655 0.0000
0.6207 2.0000 0.0000
0.6897 1.0000 0.0000
0.6897 1.0345 0.0000
0.6897 1.0690 0.0000
0.6897 1.1034 0.0000
0.6897 1.1379 0.0000
0.6897 1.1724 0.0000
0.6897 1.2069 0.0000
0.6897 1.2414 0.0000
0.6897 1.2759 0.0000
0.6897 1.3103 0.0000
0.6897 1.3448 0.0000
0.6897 1.3793 0.0000
0.6897 1.4138 0.0000
0.6897 1.4483 0.0000
0.6897 1.4828 0.0000
0.6897 1.5172 0.0000
0.6897 1.5517 0.0000
0.6897 1.5862 0.0000
0.6897 1.6207 0.0000
0.6897 1.6552 0.0000
0.6897 1.6897 0.0000
0.6897 1.7241 0.0000
0.6897 1.7586 0.0000
0.6897 1.7931 0.0000
0.6897 1.8276 0.0000
0.6897 1.8621 0.0000
0.6897 1.8966 0.0000
0.6897 1.9310 0.0000
0.6897 1.9655 0.0000
0.6897 2.0000 0.0000
0.7586 1.0000 0.0000
0.7586 1.0345 0.0000
0.7586 1.0690 0.0000
0.7586 1.1034 0.0000
0.7586 1.1379 0.0000
0.7586 1.1724 0.0000
0.7586 1.2069 0.0000
0.7586 1.2414 0.0000
0.7586 1.2759 0.0000
0.7586 1.3103 0.0000
0.7586 1.3448 0.0000
0.7586 1.3793 0.0000
0.7586 1.4138 0.0000
0.7586 1.4483 0.0000
0.7586 1.4828 0.0000
0.7586 1.5172 0.0000
0.7586 1.5517 0.0000
0.7586 1.5862 0.0000
0.7586 1.6207 0.0000
0.7586 1.6552 0.0000
0.7586 1.6897 0.0000
0.7586 1.7241 0.0000
0.7586 1.7586 0.0000
0.7586 1.7931 0.0000
0.7586 1.8276 0.0000
0.7586 1.8621 0.0000
0.7586 1.8966 0.0000
0.7586 1.9310 0.0000
0.7586 1.9655 0.0000
0.7586 2.0000 0.0000
0.8276 1.0000 0.0000
0.8276 1.0345 0.0000
0.8276 1.0690 0.0000
0.8276 1.1034 0.0000
0.8276 1.1379 0.0000
0.8276 1.1724 0.0000
0.8276 1.2069 0.0000
0.8276 1.2414 0.0000
0.8276 1.2759 0.0000
0.8276 1.3103 0.0000
0.8276 1.3448 0.0000
0.8276 1.3793 0.0000
0.8276 1.4138 0.0000
0.8276 1.4483 0.0000
0.8276 1.4828 0.0000
0.8276 1.5172 0.0000
0.8276 1.5517 0.0000
0.8276 1.5862 0.0000
0.8276 1.6207 0.0000
0.8276 1.6552 0.0000
0.8276 1.6897 0.0000
0.8276 1.7241 0.0000
0.8276 1.7586 0.0000
0.8276 1.7931 0.0000
0.8276 1.8276 0.0000
0.8276 1.8621 0.0000
0.8276 1.8966 0.0000
0.8276 1.9310 0.0000
0.8276 1.9655 0.0000
0.8276 2.0000 0.0000
0.8966 1.0000 0.0000
0.8966 1.0345 0.0000
0.8966 1.0690 0.0000
0.8966 1.1034 0.0000
0.8966 1.1379 0.0000
0.8966 1.1724 0.0000
0.8966 1.2069 0.0000
0.8966 1.2414 0.0000
0.8966 1.2759 0.0000
0.8966 1.3103 0.0000
0.8966 1.3448 0.0000
0.8966 1.3793 0.0000
0.8966 1.4138 0.0000
0.8966 1.4483 0.0000
0.8966 1.4828 0.0000
0.8966 1.5172 0.0000
0.8966 1.5517 0.0000
0.8966 1.5862 0.0000
0.8966 1.6207 0.0000
0.8966 1.6552 0.0000
0.8966 1.6897 0.0000
0.8966 1.7241 0.0000
0.8966 1.7586 0.0000
0.8966 1.7931 0.0000
0.8966 1.8276 0.0000
0.8966 1.8621 0.0000
0.8966 1.8966 0.0000
0.8966 1.9310 0.0000
0.8966 1.9655 0.0000
0.8966 2.0000 0.0000
0.9655 1.0000 0.0000
0.9655 1.0345 0.0000
0.9655 1.0690 0.0000
0.9655 1.1034 0.0000
0.9655 1.1379 0.0000
0.9655 1.1724 0.0000
0.9655 1.2069 0.0000
0.9655 1.2414 0.0000
0.9655 1.2759 0.0000
0.9655 1.3103 0.0000
0.9655 1.3448 0.0000
0.9655 1.3793 0.0000
0.9655 1.4138 0.0000
0.9655 1.4483 0.0000
0.9655 1.4828 0.0000
0.9655 1.5172 0.0000
0.9655 1.5517 0.0000
0.9655 1.5862 0.0000
0.9655 1.6207 0.0000
0.9655 1.6552 0.0000
0.9655 1.6897 0.0000
0.9655 1.7241 0.0000
0.9655 1.7586 0.0000
0.9655 1.7931 0.0000
0.9655 1.8276 0.0000
0.9655 1.8621 0.0000
0.9655 1.8966 0.0000
0.9655 1.9310 0.0000
0.9655 1.9655 0.0000
0.9655 2.0000 0.0000
1.0345 1.0000 0.0000
1.0345 1.0345 0.0000
1.0345 1.0690 0.0000
1.0345 1.1034 0.0000
1.0345 1.1379 0.0000
1.0345 1.1724 0.0000
1.0345 1.2069 0.0000
1.0345 1.2414 0.0000
1.0345 1.2759 0.0000
1.0345 1.3103 0.0000
1.0345 1.3448 0.0000
[...]
         <PointData>
            <DataArray Name="fValues" NumberOfComponents="3" format="ascii" type="Float64">
 3.30698e-44  9.81072e-43        00000 
-1.94257e-44 -1.53960e-42        00000 
-6.62249e-44  3.72632e-42        00000 
 4.12943e-43 -9.40865e-42        00000 
-1.55197e-42  2.29167e-41        00000 
 4.79554e-42 -5.31935e-41        00000 
-1.30632e-41  1.17265e-40        00000 
 3.22226e-41 -2.44939e-40        00000 
-7.28878e-41  4.83643e-40        00000 
 1.52158e-40 -9.00491e-40        00000 
-2.94018e-40  1.57645e-39        00000 
 5.26317e-40 -2.58596e-39        00000 
-8.71959e-40  3.95690e-39        00000 
 1.33320e-39 -5.61245e-39        00000 
-1.87126e-39  7.30880e-39        00000 
 2.38851e-39 -8.59730e-39        00000 
-2.72466e-39  8.84722e-39        00000 
 2.67841e-39 -7.35686e-39        00000 
-2.05851e-39  3.54960e-39        00000 
 7.53917e-40  2.79378e-39        00000 
 1.20190e-39 -1.13546e-38        00000 
-3.60425e-39  2.12417e-38        00000 
 6.11028e-39 -3.11557e-38        00000 
-8.33036e-39  3.97255e-38        00000 
 9.94820e-39 -4.59086e-38        00000 
-1.08227e-38  4.93043e-38        00000 
 1.10287e-38 -5.02537e-38        00000 
-1.08174e-38  4.96781e-38        00000 
 1.05117e-38 -4.87137e-38        00000 
-1.03759e-38  4.82760e-38        00000 
-1.09982e-43 -2.04346e-42        00000 
 1.02081e-43  3.28444e-42        00000 
 9.02908e-45 -8.23471e-42        00000 
-6.17653e-43  2.14664e-41        00000 
 2.91868e-42 -5.39106e-41        00000 
-1.00641e-41  1.28945e-40        00000 
 2.94756e-41 -2.92727e-40        00000 
-7.68514e-41  6.29172e-40        00000 
 1.81987e-40 -1.27717e-39        00000 
-3.95224e-40  2.44206e-39        00000 
 7.90865e-40 -4.38548e-39        00000 
-1.46083e-39  7.37078e-39        00000 
 2.48995e-39 -1.15430e-38        00000 
-3.90719e-39  1.67414e-38        00000 
 5.61722e-39 -2.22827e-38        00000 
-7.33431e-39  2.68066e-38        00000 
 8.55742e-39 -2.83102e-38        00000 
-8.62920e-39  2.44799e-38        00000 
 6.89882e-39 -1.33292e-38        00000 
-2.95995e-39 -6.00698e-39        00000 
-3.12048e-39  3.26232e-38        00000 
 1.06953e-38 -6.36756e-38        00000 
-1.86363e-38  9.48993e-38        00000 
 2.56414e-38 -1.21739e-37        00000 
-3.06475e-38  1.40716e-37        00000 
 3.31854e-38 -1.50519e-37        00000 
-3.35229e-38  1.52344e-37        00000 
 3.25303e-38 -1.49362e-37        00000 
-3.13198e-38  1.45458e-37        00000 
 3.08002e-38 -1.43760e-37        00000 
 5.98244e-43  7.34284e-42        00000 
-6.84853e-43 -1.21761e-41        00000 
 6.82704e-43  3.19264e-41        00000 
 7.45964e-43 -8.66404e-41        00000 
-8.18555e-42  2.26101e-40        00000 
 3.49302e-41 -5.61398e-40        00000 
-1.14753e-40  1.32171e-39        00000 
 3.23905e-40 -2.94265e-39        00000 
-8.15955e-40  6.17922e-39        00000 
 1.86553e-39 -1.22044e-38        00000 
-3.90233e-39  2.26033e-38        00000 
 7.49542e-39 -3.91174e-38        00000 
-1.32297e-38  6.29814e-38        00000 
 2.14242e-38 -9.37877e-38        00000 
-3.16992e-38  1.28061e-37        00000 
 4.25124e-38 -1.58084e-37        00000 
-5.09143e-38  1.71821e-37        00000 
 5.28234e-38 -1.54740e-37        00000 
-4.40041e-38  9.37469e-38        00000 
 2.16078e-38  1.76232e-38        00000 
 1.42622e-38 -1.74715e-37        00000 
-5.97321e-38  3.60287e-37        00000 
 1.07707e-37 -5.47587e-37        00000 
-1.49842e-37  7.07613e-37        00000 
 1.79280e-37 -8.18122e-37        00000 
-1.93023e-37  8.70840e-37        00000 
 1.92901e-37 -8.73824e-37        00000 
-1.84687e-37  8.47909e-37        00000 
 1.75714e-37 -8.18554e-37        00000 
-1.71961e-37  8.06181e-37        00000 
-2.97947e-42 -2.69859e-41        00000 
 3.81418e-42  4.61339e-41        00000 
-5.70106e-42 -1.26291e-40        00000 
 4.55527e-42  3.56371e-40        00000 
 1.65299e-41 -9.65767e-40        00000 
-1.12819e-40  2.48860e-39        00000 
 4.37478e-40 -6.07602e-39        00000 
-1.36177e-39  1.40156e-38        00000 
 3.68173e-39 -3.04571e-38        00000 
-8.90661e-39  6.21687e-38        00000 
 1.95399e-38 -1.18818e-37        00000 
-3.91191e-38  2.11862e-37        00000 
 7.16272e-38 -3.50907e-37        00000 
-1.19871e-37  5.36795e-37        00000 
 1.82729e-37 -7.52166e-37        00000 
-2.51898e-37  9.52716e-37        00000 
 3.09752e-37 -1.06477e-36        00000 
-3.30448e-37  9.95164e-37        00000 
 2.85854e-37 -6.55872e-37        00000 
-1.55710e-37 -1.36000e-39        00000 
-6.14381e-38  9.53356e-37        00000 
 3.41950e-37 -2.09321e-36        00000 
-6.40075e-37  3.24879e-36        00000 
 9.00935e-37 -4.23063e-36        00000 
-1.07910e-36  4.89260e-36        00000 
 1.15487e-36 -5.18101e-36        00000 
-1.14092e-36  5.15091e-36        00000 
 1.07634e-36 -4.94217e-36        00000 
-1.01048e-36  4.72492e-36        00000 
 9.83425e-37 -4.63528e-36        00000 
 1.37347e-41  9.62221e-41        00000 
-1.90664e-41 -1.69794e-40        00000 
 3.49177e-41  4.85763e-40        00000 
-5.26847e-41 -1.42715e-39        00000 
 1.79131e-41  4.02289e-39        00000 
 2.82773e-40 -1.07784e-38        00000 
-1.51050e-39  2.73471e-38        00000 
 5.40809e-39 -6.55002e-38        00000 
-1.59860e-38  1.47635e-37        00000 
 4.13503e-38 -3.12154e-37        00000 
-9.58059e-38  6.17040e-37        00000 
 2.00939e-37 -1.13607e-36        00000 
-3.83193e-37  1.93968e-36        00000 
 6.64876e-37 -3.05379e-36        00000 
-1.04697e-36  4.39824e-36        00000 
 1.48673e-36 -5.72335e-36        00000 
-1.88013e-36  6.58119e-36        00000 
 2.06421e-36 -6.37570e-36        00000 
-1.85222e-36  4.51567e-36        00000 
 1.10050e-36 -6.45173e-37        00000 
 2.15140e-37 -5.13291e-36        00000 
-1.95136e-36  1.21569e-35        00000 
 3.81230e-36 -1.93160e-35        00000 
-5.43538e-36  2.53667e-35        00000 
 6.51809e-36 -2.93445e-35        00000 
-6.93018e-36  3.08989e-35        00000 
 6.75951e-36 -3.04053e-35        00000 
-6.27071e-36  2.88031e-35        00000 
 5.79585e-36 -2.72293e-35        00000 
-5.60346e-36  2.65901e-35        00000 
-5.93263e-41 -3.30875e-40        00000 
 8.80333e-41  6.03526e-40        00000 
-1.84853e-40 -1.80679e-39        00000 
 3.56681e-40  5.53529e-39        00000 
-4.73011e-40 -1.62607e-38        00000 
-1.99636e-40  4.53969e-38        00000 
 4.32657e-39 -1.19981e-37        00000 
-1.97099e-38  2.99146e-37        00000 
 6.58445e-38 -7.01203e-37        00000 
-1.85059e-37  1.53984e-36        00000 
 4.57225e-37 -3.15647e-36        00000 
-1.01137e-36  6.01622e-36        00000 
 2.01891e-36 -1.06141e-35        00000 
-3.64635e-36  1.72364e-35        00000 
 5.95052e-36 -2.55665e-35        00000 
-8.72720e-36  3.42333e-35        00000 
 1.13730e-35 -4.05395e-35        00000 
-1.28666e-35  4.06854e-35        00000 
 1.19703e-35 -3.07047e-35        00000 
-7.66770e-36  7.99645e-36        00000 
-3.01734e-37  2.70981e-35        00000 
 1.10773e-35 -7.04970e-35        00000 
-2.27414e-35  1.15014e-34        00000 
 3.28877e-35 -1.52454e-34        00000 
-3.94920e-35  1.76422e-34        00000 
 4.16895e-35 -1.84619e-34        00000 
-4.00890e-35  1.79604e-34        00000 
 3.64841e-35 -1.67691e-34        00000 
-3.31078e-35  1.56471e-34        00000 
 3.17551e-35 -1.51972e-34        00000 
 2.41534e-40  1.09391e-39        00000 
-3.80167e-40 -2.06528e-39        00000 
 8.87919e-40  6.47738e-39        00000 
-1.98887e-39 -2.07239e-38        00000 
 3.64748e-39  6.35652e-38        00000 
-3.84065e-39 -1.85328e-37        00000 
-7.15337e-39  5.11482e-37        00000 
 6.21469e-38 -1.33111e-36        00000 
-2.51774e-37  3.25405e-36        00000 
 7.89682e-37 -7.44359e-36        00000 
-2.10990e-36  1.58698e-35        00000 
 4.96608e-36 -3.14035e-35        00000 
-1.04432e-35  5.74074e-35        00000 
 1.97294e-35 -9.64031e-35        00000 
-3.34970e-35  1.47599e-34        00000 
 5.08986e-35 -2.03747e-34        00000 
-6.85196e-35  2.48802e-34        00000 
 8.00087e-35 -2.58656e-34        00000 
-7.71812e-35  2.06741e-34        00000 
 5.28601e-35 -7.41783e-35        00000 
-4.61884e-36 -1.39083e-34        00000 
-6.24460e-35  4.07981e-34        00000 
 1.35875e-34 -6.85886e-34        00000 
-1.99621e-34  9.18571e-34        00000 
 2.40071e-34 -1.06342e-33        00000 
-2.51458e-34  1.10531e-33        00000 
 2.38019e-34 -1.06170e-33        00000 
-2.11928e-34  9.75079e-34        00000 
 1.88189e-34 -8.96097e-34        00000 
-1.78767e-34  8.64746e-34        00000 
-9.29277e-40 -3.46693e-39        00000 
 1.54450e-39  6.78287e-39        00000 
-3.94725e-39 -2.23078e-38        00000 
 9.87023e-39  7.46375e-38        00000 
-2.15587e-38 -2.39463e-37        00000 
 3.63797e-38  7.30704e-37        00000 
-2.44847e-38 -2.11119e-36        00000 
-1.40468e-37  5.75103e-36        00000 
 8.56215e-37 -1.47073e-35        00000 
-3.15667e-36  3.51570e-35        00000 
 9.32500e-36 -7.82142e-35        00000 
-2.36480e-35  1.61207e-34        00000 
 5.28241e-35 -3.06311e-34        00000 
-1.05027e-34  5.33483e-34        00000 
 1.86402e-34 -8.45343e-34        00000 
-2.94556e-34  1.20571e-33        00000 
 4.10835e-34 -1.52076e-33        00000 
-4.96169e-34  1.63842e-33        00000 
 4.96593e-34 -1.38107e-33        00000 
-3.61507e-34  6.12415e-34        00000 
 6.98726e-35  6.83827e-34        00000 
 3.48739e-34 -2.35478e-33        00000 
-8.13172e-34  4.09702e-33        00000 
 1.21583e-33 -5.54990e-33        00000 
-1.46466e-33  6.42820e-33        00000 
 1.52111e-33 -6.63191e-33        00000 
-1.41482e-33  6.28101e-33        00000 
 1.22865e-33 -5.66149e-33        00000 
-1.06329e-33  5.11117e-33        00000 
 9.98213e-34 -4.89464e-33        00000 
 3.38144e-39  1.05013e-38        00000 
-5.91774e-39 -2.13108e-38        00000 
 1.63862e-38  7.35463e-38        00000 
-4.48587e-38 -2.57629e-37        00000 
 1.10738e-37  8.66012e-37        00000 
-2.31684e-37 -2.77145e-36        00000 
 3.48263e-37  8.40378e-36        00000 
-3.81521e-38 -2.40315e-35        00000 
-2.31100e-36  6.44974e-35        00000 
 1.14405e-35 -1.61678e-34        00000 
-3.88912e-35  3.76688e-34        00000 
 1.08292e-34 -8.11630e-34        00000 
-2.59885e-34  1.60871e-33        00000 
 5.48082e-34 -2.91567e-33        00000 
-1.02285e-33  4.79635e-33        00000 
 1.68868e-33 -7.08748e-33        00000 
-2.44906e-33  9.25256e-33        00000 
 3.06718e-33 -1.03403e-32        00000 
-3.18873e-33  9.16608e-33        00000 
 2.45739e-33 -4.74961e-33        00000 
-6.98217e-34 -3.12819e-33        00000 
-1.92258e-33  1.35437e-32        00000 
 4.87500e-33 -2.45158e-32        00000 
-7.43327e-33  3.36335e-32        00000 
 8.97098e-33 -3.89775e-32        00000 
-9.23007e-33  3.98866e-32        00000 
 8.41993e-33 -3.71886e-32        00000 
-7.10614e-33  3.28140e-32        00000 
 5.96373e-33 -2.90128e-32        00000 
-5.51771e-33  2.75289e-32        00000 
-1.16345e-38 -3.03066e-38        00000 
 2.13964e-38  6.38398e-38        00000 
-6.37685e-38 -2.31280e-37        00000 
 1.89018e-37  8.48981e-37        00000 
-5.14745e-37 -2.99421e-36        00000 
 1.23970e-36  1.00685e-35        00000 
-2.45621e-36 -3.21178e-35        00000 
 3.11469e-36  9.66917e-35        00000 
 2.57920e-36 -2.73258e-34        00000 
-3.48500e-35  7.20978e-34        00000 
 1.49156e-34 -1.76617e-33        00000 
-4.70870e-34  3.99453e-33        00000 
 1.23429e-33 -8.29268e-33        00000 
-2.79025e-33  1.57021e-32        00000 
 5.51677e-33 -2.69131e-32        00000 
-9.57012e-33  4.13334e-32        00000 
 1.44958e-32 -5.59942e-32        00000 
-1.88879e-32  6.50086e-32        00000 
 2.04340e-32 -6.05016e-32        00000 
-1.66284e-32  3.54455e-32        00000 
 6.05287e-33  1.24013e-32        00000 
 1.04062e-32 -7.75341e-32        00000 
-2.92785e-32  1.46975e-31        00000 
 4.56343e-32 -2.04506e-31        00000 
-5.51830e-32  2.37140e-31        00000 
 5.61944e-32 -2.40506e-31        00000 
-5.01668e-32  2.20366e-31        00000 
 4.09782e-32 -1.89787e-31        00000 
-3.31461e-32  1.63734e-31        00000 
 3.01130e-32 -1.53640e-31        00000 
 3.78216e-38  8.30771e-38        00000 
-7.29701e-38 -1.81724e-37        00000 
 2.32928e-37  6.91144e-37        00000 
-7.42316e-37 -2.66016e-36        00000 
 2.20106e-36  9.85419e-36        00000 
-5.91296e-36 -3.48733e-35        00000 
 1.38204e-35  1.17280e-34        00000 
-2.55450e-35 -3.72734e-34        00000 
 2.44334e-35  1.11290e-33        00000 
 6.71344e-35 -3.10264e-33        00000 
-4.98410e-34  8.02580e-33        00000 
 1.90347e-33 -1.91408e-32        00000 
-5.59674e-33  4.18132e-32        00000 
 1.37648e-32 -8.30899e-32        00000 
-2.91194e-32  1.49018e-31        00000 
 5.34628e-32 -2.38775e-31        00000 
-8.50437e-32  3.36729e-31        00000 
 1.15763e-31 -4.06989e-31        00000 
-1.30659e-31  3.97444e-31        00000 
 1.12136e-31 -2.57837e-31        00000 
-4.88883e-32 -3.23817e-32        00000 
-5.48082e-32  4.41083e-31        00000 
 1.76173e-31 -8.82925e-31        00000 
-2.81457e-31  1.24807e-30        00000 
 3.41039e-31 -1.44810e-30        00000 
-3.43325e-31  1.45416e-30        00000 
 2.99203e-31 -1.30680e-30        00000 
-2.35418e-31  1.09482e-30        00000 
 1.82131e-31 -9.17552e-31        00000 
-1.61677e-31  8.49397e-31        00000 
-1.16039e-37 -2.15630e-37        00000 
 2.34491e-37  4.89855e-37        00000 
-7.98446e-37 -1.95523e-36        00000 
 2.72208e-36  7.89256e-36        00000 
-8.71773e-36 -3.07301e-35        00000 
 2.57035e-35  1.14592e-34        00000 
-6.79449e-35 -4.07022e-34        00000 
 1.53195e-34  1.36900e-33        00000 
-2.58311e-34 -4.33241e-33        00000 
 1.34390e-34  1.28125e-32        00000 
 1.23747e-33 -3.51576e-32        00000 
-6.86968e-33  8.88602e-32        00000 
 2.38049e-32 -2.05338e-31        00000 
-6.51629e-32  4.30489e-31        00000 
 1.49521e-31 -8.11930e-31        00000 
-2.93290e-31  1.36356e-30        00000 
 4.93378e-31 -2.00959e-30        00000 
-7.05274e-31  2.53581e-30        00000 
 8.33339e-31 -2.59960e-30        00000 
-7.54316e-31  1.84232e-30        00000 
 3.79006e-31 -8.60772e-32        00000 
 2.76439e-31 -2.48778e-30        00000 
-1.06215e-30  5.31579e-30        00000 
 1.74497e-30 -7.64823e-30        00000 
-2.11855e-30  8.87863e-30        00000 
 2.10528e-30 -8.81756e-30        00000 
-1.78577e-30  7.75434e-30        00000 
 1.34586e-30 -6.29524e-30        00000 
-9.86273e-31  5.09781e-30        00000 
 8.49684e-31 -4.64127e-30        00000 
 3.35624e-37  5.28251e-37        00000 
-7.09152e-37 -1.24605e-36        00000 
 2.56617e-36  5.21619e-36        00000 
-9.32074e-36 -2.20791e-35        00000 
 3.20595e-35  9.03809e-35        00000 
-1.02748e-34 -3.55391e-34        00000 
 3.00968e-34  1.33502e-33        00000 
-7.80876e-34 -4.76185e-33        00000 
 1.68488e-33  1.60187e-32        00000 
-2.49963e-33 -5.04441e-32        00000 
-3.54667e-34  1.47520e-31        00000 
 2.00014e-32 -3.97288e-31        00000 
-9.20066e-32  9.76878e-31        00000 
 2.91597e-31 -2.17387e-30        00000 
-7.40465e-31  4.33753e-30        00000 
 1.57168e-30 -7.67712e-30        00000 
-2.82141e-30  1.18814e-29        00000 
 4.26365e-30 -1.57107e-29        00000 
-5.29829e-30  1.69333e-29        00000 
 5.06487e-30 -1.29956e-29        00000 
-2.86430e-30  2.40830e-30        00000 
-1.29218e-30  1.38631e-29        00000 
 6.41707e-30 -3.20829e-29        00000 
-1.08824e-29  4.70862e-29        00000 
 1.32356e-29 -5.46791e-29        00000 
-1.29584e-29  5.36274e-29        00000 
 1.06600e-29 -4.60287e-29        00000 
-7.64383e-30  3.60484e-29        00000 
 5.24016e-30 -2.80228e-29        00000 
-4.33906e-30  2.49924e-29        00000 
-9.14172e-37 -1.21751e-36        00000 
 2.01573e-36  2.98041e-36        00000 
-7.72358e-36 -1.30717e-35        00000 
 2.97765e-35  5.79862e-35        00000 
-1.09493e-34 -2.49506e-34        00000 
 3.78905e-34  1.03478e-33        00000 
-1.21552e-33 -4.11415e-33        00000 
 3.53512e-33  1.55853e-32        00000 
-8.97443e-33 -5.58621e-32        00000 
 1.83275e-32  1.87956e-31        00000 
-2.24102e-32 -5.88469e-31        00000 
-2.88648e-32  1.69821e-30        00000 
 3.01215e-31 -4.47217e-30        00000 
-1.20205e-30  1.06377e-29        00000 
 3.49079e-30 -2.26137e-29        00000 
-8.16533e-30  4.24658e-29        00000 
 1.58325e-29 -6.94277e-29        00000 
-2.55132e-29  9.66644e-29        00000 
 3.35467e-29 -1.09834e-28        00000 
-3.39620e-29  9.08098e-29        00000 
 2.12996e-29 -2.73710e-29        00000 
 5.14204e-30 -7.59110e-29        00000 
-3.88549e-29  1.94162e-28        00000 
 6.83311e-29 -2.91419e-28        00000 
-8.32154e-29  3.38396e-28        00000 
 8.00653e-29 -3.27153e-28        00000 
-6.35831e-29  2.73181e-28        00000 
 4.30202e-29 -2.05315e-28        00000 
-2.71397e-29  1.52000e-28        00000 
 2.12909e-29 -1.32109e-28        00000 
 2.34292e-36  2.63115e-36        00000 
-5.37925e-36 -6.67880e-36        00000 
 2.17435e-35  3.06478e-35        00000 
-8.86473e-35 -1.42343e-34        00000 
 3.47005e-34  6.43368e-34        00000 
-1.28958e-33 -2.81333e-33        00000 
 4.49462e-33  1.18404e-32        00000 
-1.44423e-32 -4.76747e-32        00000 
 4.16766e-32  1.82369e-31        00000 
-1.03113e-31 -6.57401e-31        00000 
 1.96169e-31  2.21252e-30        00000 
-1.71319e-31 -6.87960e-30        00000 
-6.57047e-31  1.95378e-29        00000 
 4.33380e-30 -5.00688e-29        00000 
-1.53331e-29  1.14346e-28        00000 
 4.06630e-29 -2.29690e-28        00000 
-8.66183e-29  3.99660e-28        00000 
 1.50574e-28 -5.89555e-28        00000 
-2.11198e-28  7.09075e-28        00000 
 2.27463e-28 -6.30114e-28        00000 
-1.56826e-28  2.53627e-28        00000 
-1.18677e-29  4.04728e-28        00000 
 2.35820e-28 -1.17869e-27        00000 
-4.32473e-28  1.81466e-27        00000 
 5.26948e-28 -2.10569e-27        00000 
-4.96557e-28  2.00184e-27        00000 
 3.78359e-28 -1.61981e-27        00000 
-2.38959e-28  1.16096e-27        00000 
 1.35654e-28 -8.10588e-28        00000 
-9.85591e-29  6.81929e-28        00000 
-5.64653e-36 -5.31271e-36        00000 
 1.34659e-35  1.39679e-35        00000 
-5.71987e-35 -6.69499e-35        00000 
 2.45662e-34  3.25119e-34        00000 
-1.01934e-33 -1.54183e-33        00000 
 4.04767e-33  7.10241e-33        00000 
-1.52275e-32 -3.16259e-32        00000 
 5.35379e-32  1.35352e-31        00000 
-1.72477e-31 -5.52997e-31        00000 
 4.93531e-31  2.13956e-30        00000 
-1.18389e-30 -7.76510e-30        00000 
 2.04828e-30  2.61436e-29        00000 
-7.74770e-31 -8.06187e-29        00000 
-1.18368e-29  2.24501e-28        00000 
 6.02712e-29 -5.56177e-28        00000 
-1.90606e-28  1.20699e-27        00000 
 4.57525e-28 -2.25617e-27        00000 
-8.71837e-28  3.55467e-27        00000 
 1.31884e-27 -4.55198e-27        00000 
-1.52138e-27  4.34901e-27        00000 
 1.14857e-27 -2.14898e-27        00000 
-7.00097e-29 -2.06582e-27        00000 
-1.43505e-27  7.18100e-27        00000 
 2.76301e-27 -1.13812e-26        00000 
-3.36391e-27  1.31828e-26        00000 
 3.09083e-27 -1.22841e-26        00000 
-2.24047e-27  9.58343e-27        00000 
 1.30099e-27 -6.49916e-27        00000 
-6.43618e-28  4.22839e-27        00000 
 4.16469e-28 -3.41332e-27        00000 
 1.27931e-35  9.98295e-36        00000 
-3.16044e-35 -2.71491e-35        00000 
 1.40508e-34  1.35659e-34        00000 
-6.33174e-34 -6.87639e-34        00000 
 2.77258e-33  3.41613e-33        00000 
-1.17042e-32 -1.65538e-32        00000 
 4.72392e-32  7.78979e-32        00000 
-1.80296e-31 -3.54098e-31        00000 
 6.40765e-31  1.54495e-30        00000 
-2.07249e-30 -6.42026e-30        00000 
 5.87632e-30  2.51764e-29        00000 
-1.35735e-29 -9.21216e-29        00000 
 2.05293e-29  3.10323e-28        00000 
 7.88492e-30 -9.47244e-28        00000 
-1.92540e-28  2.57360e-27        00000 
 8.14080e-28 -6.10707e-27        00000 
-2.29740e-27  1.24099e-26        00000 