<?xml version="1.0" encoding="utf-8"?>
<VTKFile byte_order="LittleEndian" type="UnstructuredGrid" version="0.1">
   <UnstructuredGrid>
      <Piece NumberOfCells="3364" NumberOfPoints="1741">
         <Points>
            <DataArray Name="Points" NumberOfComponents="3" format="ascii" type="Float32">
0.0000 1.0000 0.0000
0.0000 1.0345 0.0000
0.0000 1.0690 0.0000
0.0000 1.1034 0.0000
0.0000 1.1379 0.0000
0.0000 1.1724 0.0000
0.0000 1.2069 0.0000
0.0000 1.2414 0.0000
0.0000 1.2759 0.0000
0.0000 1.3103 0.0000
0.0000 1.3448 0.0000
0.0000 1.3793 0.0000
0.0000 1.4138 0.0000
0.0000 1.4483 0.0000
0.0000 1.4828 0.0000
0.0000 1.5172 0.0000
0.0000 1.5517 0.0000
0.0000 1.5862 0.0000
0.0000 1.6207 0.0000
0.0000 1.6552 0.0000
0.0000 1.6897 0.0000
0.0000 1.7241 0.0000
0.0000 1.7586 0.0000
0.0000 1.7931 0.0000
0.0000 1.8276 0.0000
0.0000 1.8621 0.0000
0.0000 1.8966 0.0000
0.0000 1.9310 0.0000
0.0000 1.9655 0.0000
0.0000 2.0000 0.0000
0.0690 1.0000 0.0000
0.0690 1.0345 0.0000
0.0690 1.0690 0.0000
0.0690 1.1034 0.0000
0.0690 1.1379 0.0000
0.0690 1.1724 0.0000
0.0690 1.2069 0.0000
0.0690 1.2414 0.0000
0.0690 1.2759 0.0000
0.0690 1.3103 0.0000
0.0690 1.3448 0.0000
0.0690 1.3793 0.0000
0.0690 1.4138 0.0000
0.0690 1.4483 0.0000
0.0690 1.4828 0.0000
0.0690 1.5172 0.0000
0.0690 1.5517 0.0000
0.0690 1.5862 0.0000
0.0690 1.6207 0.0000
0.0690 1.6552 0.0000
0.0690 1.6897 0.0000
0.0690 1.7241 0.0000
0.0690 1.7586 0.0000
0.0690 1.7931 0.0000
0.0690 1.8276 0.0000
0.0690 1.8621 0.0000
0.0690 1.8966 0.0000
0.0690 1.9310 0.0000
0.0690 1.9655 0.0000
0.0690 2.0000 0.0000
0.1379 1.0000 0.0000
0.1379 1.0345 0.0000
0.1379 1.0690 0.0000
0.1379 1.1034 0.0000
0.1379 1.1379 0.0000
0.1379 1.1724 0.0000
0.1379 1.2069 0.0000
0.1379 1.2414 0.0000
0.1379 1.2759 0.0000
0.1379 1.3103 0.0000
0.1379 1.3448 0.0000
0.1379 1.3793 0.0000
0.1379 1.4138 0.0000
0.1379 1.4483 0.0000
0.1379 1.4828 0.0000
0.1379 1.5172 0.0000
0.1379 1.5517 0.0000
0.1379 1.5862 0.0000
0.1379 1.6207 0.0000
0.1379 1.6552 0.0000
0.1379 1.6897 0.0000
0.1379 1.7241 0.0000
0.1379 1.7586 0.0000
0.1379 1.7931 0.0000
0.1379 1.8276 0.0000
0.1379 1.8621 0.0000
0.1379 1.8966 0.0000
0.1379 1.9310 0.0000
0.1379 1.9655 0.0000
0.1379 2.0000 0.0000
0.2069 1.0000 0.0000
0.2069 1.0345 0.0000
0.2069 1.0690 0.0000
0.2069 1.1034 0.0000
0.2069 1.1379 0.0000
0.2069 1.1724 0.0000
0.2069 1.2069 0.0000
0.2069 1.2414 0.0000
0.2069 1.2759 0.0000
0.2069 1.3103 0.0000
0.2069 1.3448 0.0000
0.2069 1.3793 0.0000
0.2069 1.4138 0.0000
0.2069 1.4483 0.0000
0.2069 1.4828 0.0000
0.2069 1.5172 0.0000
0.2069 1.5517 0.0000
0.2069 1.5862 0.0000
0.2069 1.6207 0.0000
0.2069 1.6552 0.0000
0.2069 1.6897 0.0000
0.2069 1.7241 0.0000
0.2069 1.7586 0.0000
0.2069 1.7931 0.0000
0.2069 1.8276 0.0000
0.2069 1.8621 0.0000
0.2069 1.8966 0.0000
0.2069 1.9310 0.0000
0.2069 1.9655 0.0000
0.2069 2.0000 0.0000
0.2759 1.0000 0.0000
0.2759 1.0345 0.0000
0.2759 1.0690 0.0000
0.2759 1.1034 0.0000
0.2759 1.1379 0.0000
0.2759 1.1724 0.0000
0.2759 1.2069 0.0000
0.2759 1.2414 0.0000
0.2759 1.2759 0.0000
0.2759 1.3103 0.0000
0.2759 1.3448 0.0000
0.2759 1.3793 0.0000
0.2759 1.4138 0.0000
0.2759 1.4483 0.0000
0.2759 1.4828 0.0000
0.2759 1.5172 0.0000
0.2759 1.5517 0.0000
0.2759 1.5862 0.0000
0.2759 1.6207 0.0000
0.2759 1.6552 0.0000
0.2759 1.6897 0.0000
0.2759 1.7241 0.0000
0.2759 1.7586 0.0000
0.2759 1.7931 0.0000
0.2759 1.8276 0.0000
0.2759 1.8621 0.0000
0.2759 1.8966 0.0000
0.2759 1.9310 0.0000
0.2759 1.9655 0.0000
0.2759 2.0000 0.0000
0.3448 1.0000 0.0000
0.3448 1.0345 0.0000
0.3448 1.0690 0.0000
0.3448 1.1034 0.0000
0.3448 1.1379 0.0000
0.3448 1.1724 0.0000
0.3448 1.2069 0.0000
0.3448 1.2414 0.0000
0.3448 1.2759 0.0000
0.3448 1.3103 0.0000
0.3448 1.3448 0.0000
0.3448 1.3793 0.0000
0.3448 1.4138 0.0000
0.3448 1.4483 0.0000
0.3448 1.4828 0.0000
0.3448 1.5172 0.0000
0.3448 1.5517 0.0000
0.3448 1.5862 0.0000
0.3448 1.6207 0.0000
0.3448 1.6552 0.0000
0.3448 1.6897 0.0000
0.3448 1.7241 0.0000
0.3448 1.7586 0.0000
0.3448 1.7931 0.0000
0.3448 1.8276 0.0000
0.3448 1.8621 0.0000
0.3448 1.8966 0.0000
0.3448 1.9310 0.0000
0.3448 1.9655 0.0000
0.3448 2.0000 0.0000
0.4138 1.0000 0.0000
0.4138 1.0345 0.0000
0.4138 1.0690 0.0000
0.4138 1.1034 0.0000
0.4138 1.1379 0.0000
0.4138 1.1724 0.0000
0.4138 1.2069 0.0000
0.4138 1.2414 0.0000
0.4138 1.2759 0.0000
0.4138 1.3103 0.0000
0.4138 1.3448 0.0000
0.4138 1.3793 0.0000
0.4138 1.4138 0.0000
0.4138 1.4483 0.0000
0.4138 1.4828 0.0000
0.4138 1.5172 0.0000
0.4138 1.5517 0.0000
0.4138 1.5862 0.0000
0.4138 1.6207 0.0000
0.4138 1.6552 0.0000
0.4138 1.6897 0.0000
0.4138 1.7241 0.0000
0.4138 1.7586 0.0000
0.4138 1.7931 0.0000
0.4138 1.8276 0.0000
0.4138 1.8621 0.0000
0.4138 1.8966 0.0000
0.4138 1.9310 0.0000
0.4138 1.9655 0.0000
0.4138 2.0000 0.0000
0.4828 1.0000 0.0000
0.4828 1.0345 0.0000
0.4828 1.0690 0.0000
0.4828 1.1034 0.0000
0.4828 1.1379 0.0000
0.4828 1.1724 0.0000
0.4828 1.2069 0.0000
0.4828 1.2414 0.0000
0.4828 1.2759 0.0000
0.4828 1.3103 0.0000
0.4828 1.3448 0.0000
0.4828 1.3793 0.0000
0.4828 1.4138 0.0000
0.4828 1.4483 0.0000
0.4828 1.4828 0.0000
0.4828 1.5172 0.0000
0.4828 1.5517 0.0000
0.4828 1.5862 0.0000
0.4828 1.6207 0.0000
0.4828 1.6552 0.0000
0.4828 1.6897 0.0000
0.4828 1.7241 0.0000
0.4828 1.7586 0.0000
0.4828 1.7931 0.0000
0.4828 1.8276 0.0000
0.4828 1.8621 0.0000
0.4828 1.8966 0.0000
0.4828 1.9310 0.0000
0.4828 1.9655 0.0000
0.4828 2.0000 0.0000
0.5517 1.0000 0.0000
0.5517 1.0345 0.0000
0.5517 1.0690 0.0000
0.5517 1.1034 0.0000
0.5517 1.1379 0.0000
0.5517 1.1724 0.0000
0.5517 1.2069 0.0000
0.5517 1.2414 0.0000
0.5517 1.2759 0.0000
0.5517 1.3103 0.0000
0.5517 1.3448 0.0000
0.5517 1.3793 0.0000
0.5517 1.4138 0.0000
0.5517 1.4483 0.0000
0.5517 1.4828 0.0000
0.5517 1.5172 0.0000
0.5517 1.5517 0.0000
0.5517 1.5862 0.0000
0.5517 1.6207 0.0000
0.5517 1.6552 0.0000
0.5517 1.6897 0.0000
0.5517 1.7241 0.0000
0.5517 1.7586 0.0000
0.5517 1.7931 0.0000
0.5517 1.8276 0.0000
0.5517 1.8621 0.0000
0.5517 1.8966 0.0000
0.5517 1.9310 0.0000
0.5517 1.9655 0.0000
0.5517 2.0000 0.0000
0.6207 1.0000 0.0000
0.6207 1.0345 0.0000
0.6207 1.0690 0.0000
0.6207 1.1034 0.0000
0.6207 1.1379 0.0000
0.6207 1.1724 0.0000
0.6207 1.2069 0.0000
0.6207 1.2414 0.0000
0.6207 1.2759 0.0000
0.6207 1.3103 0.0000
0.6207 1.3448 0.0000
0.6207 1.3793 0.0000
0.6207 1.4138 0.0000
0.6207 1.4483 0.0000
0.6207 1.4828 0.0000
0.6207 1.5172 0.0000
0.6207 1.5517 0.0000
0.6207 1.5862 0.0000
0.6207 1.6207 0.0000
0.6207 1.6552 0.0000
0.6207 1.6897 0.0000
0.6207 1.7241 0.0000
0.6207 1.7586 0.0000
0.6207 1.7931 0.0000
0.6207 1.8276 0.0000
0.6207 1.8621 0.0000
0.6207 1.8966 0.0000
0.6207 1.9310 0.0000
0.6207 1.9655 0.0000
0.6207 2.0000 0.0000
0.6897 1.0000 0.0000
0.6897 1.0345 0.0000
0.6897 1.0690 0.0000
0.6897 1.1034 0.0000
0.6897 1.1379 0.0000
0.6897 1.1724 0.0000
0.6897 1.2069 0.0000
0.6897 1.2414 0.0000
0.6897 1.2759 0.0000
0.6897 1.3103 0.0000
0.6897 1.3448 0.0000
0.6897 1.3793 0.0000
0.6897 1.4138 0.0000
0.6897 1.4483 0.0000
0.6897 1.4828 0.0000
0.6897 1.5172 0.0000
0.6897 1.5517 0.0000
0.6897 1.5862 0.0000
0.6897 1.6207 0.0000
0.6897 1.6552 0.0000
0.6897 1.6897 0.0000
0.6897 1.7241 0.0000
0.6897 1.7586 0.0000
0.6897 1.7931 0.0000
0.6897 1.8276 0.0000
0.6897 1.8621 0.0000
0.6897 1.8966 0.0000
0.6897 1.9310 0.0000
0.6897 1.9655 0.0000
0.6897 2.0000 0.0000
0.7586 1.0000 0.0000
0.7586 1.0345 0.0000
0.7586 1.0690 0.0000
0.7586 1.1034 0.0000
0.7586 1.1379 0.0000
0.7586 1.1724 0.0000
0.7586 1.2069 0.0000
0.7586 1.2414 0.0000
0.7586 1.2759 0.0000
0.7586 1.3103 0.0000
0.7586 1.3448 0.0000
0.7586 1.3793 0.0000
0.7586 1.4138 0.0000
0.7586 1.4483 0.0000
0.7586 1.4828 0.0000
0.7586 1.5172 0.0000
0.7586 1.5517 0.0000
0.7586 1.5862 0.0000
0.7586 1.6207 0.0000
0.7586 1.6552 0.0000
0.7586 1.6897 0.0000
0.7586 1.7241 0.0000
0.7586 1.7586 0.0000
0.7586 1.7931 0.0000
0.7586 1.8276 0.0000
0.7586 1.8621 0.0000
0.7586 1.8966 0.0000
0.7586 1.9310 0.0000
0.7586 1.9655 0.0000
0.7586 2.0000 0.0000
0.8276 1.0000 0.0000
0.8276 1.0345 0.0000
0.8276 1.0690 0.0000
0.8276 1.1034 0.0000
0.8276 1.1379 0.0000
0.8276 1.1724 0.0000
0.8276 1.2069 0.0000
0.8276 1.2414 0.0000
0.8276 1.2759 0.0000
0.8276 1.3103 0.0000
0.8276 1.3448 0.0000
0.8276 1.3793 0.0000
0.8276 1.4138 0.0000
0.8276 1.4483 0.0000
0.8276 1.4828 0.0000
0.8276 1.5172 0.0000
0.8276 1.5517 0.0000
0.8276 1.5862 0.0000
0.8276 1.6207 0.0000
0.8276 1.6552 0.0000
0.8276 1.6897 0.0000
0.8276 1.7241 0.0000
0.8276 1.7586 0.0000
0.8276 1.7931 0.0000
0.8276 1.8276 0.0000
0.8276 1.8621 0.0000
0.8276 1.8966 0.0000
0.8276 1.9310 0.0000
0.8276 1.9655 0.0000
0.8276 2.0000 0.0000
0.8966 1.0000 0.0000
0.8966 1.0345 0.0000
0.8966 1.0690 0.0000
0.8966 1.1034 0.0000
0.8966 1.1379 0.0000
0.8966 1.1724 0.0000
0.8966 1.2069 0.0000
0.8966 1.2414 0.0000
0.8966 1.2759 0.0000
0.8966 1.3103 0.0000
0.8966 1.3448 0.0000
0.8966 1.3793 0.0000
0.8966 1.4138 0.0000
0.8966 1.4483 0.0000
0.8966 1.4828 0.0000
0.8966 1.5172 0.0000
0.8966 1.5517 0.0000
0.8966 1.5862 0.0000
0.8966 1.6207 0.0000
0.8966 1.6552 0.0000
0.8966 1.6897 0.0000
0.8966 1.7241 0.0000
0.8966 1.7586 0.0000
0.8966 1.7931 0.0000
0.8966 1.8276 0.0000
0.8966 1.8621 0.0000
0.8966 1.8966 0.0000
0.8966 1.9310 0.0000
0.8966 1.9655 0.0000
0.8966 2.0000 0.0000
0.9655 1.0000 0.0000
0.9655 1.0345 0.0000
0.9655 1.0690 0.0000
0.9655 1.1034 0.0000
0.9655 1.1379 0.0000
0.9655 1.1724 0.0000
0.9655 1.2069 0.0000
0.9655 1.2414 0.0000
0.9655 1.2759 0.0000
0.9655 1.3103 0.0000
0.9655 1.3448 0.0000
0.9655 1.3793 0.0000
0.9655 1.4138 0.0000
0.9655 1.4483 0.0000
0.9655 1.4828 0.0000
0.9655 1.5172 0.0000
0.9655 1.5517 0.0000
0.9655 1.5862 0.0000
0.9655 1.6207 0.0000
0.9655 1.6552 0.0000
0.9655 1.6897 0.0000
0.9655 1.7241 0.0000
0.9655 1.7586 0.0000
0.9655 1.7931 0.0000
0.9655 1.8276 0.0000
0.9655 1.8621 0.0000
0.9655 1.8966 0.0000
0.9655 1.9310 0.0000
0.9655 1.9655 0.0000
0.9655 2.0000 0.0000
1.0345 1.0000 0.0000
1.0345 1.0345 0.0000
1.0345 1.0690 0.0000
1.0345 1.1034 0.0000
1.0345 1.1379 0.0000
1.0345 1.1724 0.0000
1.0345 1.2069 0.0000
1.0345 1.2414 0.0000
1.0345 1.2759 0.0000
1.0345 1.3103 0.0000
1.0345 1.3448 0.0000
[...]
         <PointData>
            <DataArray Name="fValues" NumberOfComponents="3" format="ascii" type="Float64">
-3.66937e-39  3.21852e-39        00000 
 3.88647e-39 -3.40222e-39        00000 
-4.50482e-39  3.93176e-39        00000 
 5.42859e-39 -4.74391e-39        00000 
-6.50940e-39  5.73876e-39        00000 
 7.56595e-39 -6.78924e-39        00000 
-8.41321e-39  7.75589e-39        00000 
 8.89673e-39 -8.50569e-39        00000 
-8.92379e-39  8.93213e-39        00000 
 8.48159e-39 -8.97229e-39        00000 
-7.63618e-39  8.61657e-39        00000 
 6.51237e-39 -7.90868e-39        00000 
-5.26149e-39  6.93533e-39        00000 
 4.02743e-39 -5.80842e-39        00000 
-2.92087e-39  4.64397e-39        00000 
 2.00688e-39 -3.54295e-39        00000 
-1.30593e-39  2.57807e-39        00000 
 8.04374e-40 -1.78860e-39        00000 
-4.68493e-40  1.18274e-39        00000 
 2.57627e-40 -7.45311e-40        00000 
-1.33449e-40  4.47542e-40        00000 
 6.48880e-41 -2.56102e-40        00000 
-2.94594e-41  1.39695e-40        00000 
 1.23811e-41 -7.26624e-41        00000 
-4.74512e-42  3.60630e-41        00000 
 1.60916e-42 -1.70956e-41        00000 
-4.46615e-43  7.76377e-42        00000 
 6.99663e-44 -3.42812e-42        00000 
 3.02924e-44  1.60066e-42        00000 
-4.76594e-44 -1.10523e-42        00000 
 1.05571e-38 -9.27722e-39        00000 
-1.12420e-38  9.85022e-39        00000 
 1.31953e-38 -1.15032e-38        00000 
-1.61198e-38  1.40419e-38        00000 
 1.95511e-38 -1.71572e-38        00000 
-2.29150e-38  2.04531e-38        00000 
 2.56197e-38 -2.34914e-38        00000 
-2.71679e-38  2.58518e-38        00000 
 2.72616e-38 -2.71967e-38        00000 
-2.58635e-38  2.73267e-38        00000 
 2.31936e-38 -2.62132e-38        00000 
-1.96618e-38  2.39980e-38        00000 
 1.57584e-38 -2.09605e-38        00000 
-1.19425e-38  1.74586e-38        00000 
 8.55831e-39 -1.38609e-38        00000 
-5.79882e-39  1.04838e-38        00000 
 3.71351e-39 -7.55072e-39        00000 
-2.24597e-39  5.17623e-39        00000 
 1.28135e-39 -3.37644e-39        00000 
-6.88236e-40  2.09531e-39        00000 
 3.47011e-40 -1.23700e-39        00000 
-1.63510e-40  6.94850e-40        00000 
 7.14936e-41 -3.71492e-40        00000 
-2.86650e-41  1.89132e-40        00000 
 1.03071e-41 -9.17598e-41        00000 
-3.16215e-42  4.24714e-41        00000 
 7.05062e-43 -1.88083e-41        00000 
-1.21959e-45  8.08105e-42        00000 
-1.44297e-43 -3.65889e-42        00000 
 1.59027e-43  2.47709e-42        00000 
-5.68305e-38  5.00860e-38        00000 
 6.09290e-38 -5.34739e-38        00000 
-7.26364e-38  6.32567e-38        00000 
 9.02174e-38 -7.83083e-38        00000 
-1.10920e-37  9.68205e-38        00000 
 1.31291e-37 -1.16452e-37        00000 
-1.47723e-37  1.34590e-37        00000 
 1.57159e-37 -1.48708e-37        00000 
-1.57767e-37  1.56768e-37        00000 
 1.49343e-37 -1.57565e-37        00000 
-1.33290e-37  1.50938e-37        00000 
 1.12181e-37 -1.37765e-37        00000 
-8.90501e-38  1.19760e-37        00000 
 6.66822e-38 -9.91065e-38        00000 
-4.71042e-38  7.80293e-38        00000 
 3.13836e-38 -5.84146e-38        00000 
-1.97113e-38  4.15575e-38        00000 
 1.16593e-38 -2.80826e-38        00000 
-6.48442e-39  1.80193e-38        00000 
 3.38218e-39 -1.09767e-38        00000 
-1.64792e-39  6.34817e-39        00000 
 7.45410e-40 -3.48622e-39        00000 
-3.09842e-40  1.81875e-39        00000 
 1.16192e-40 -9.01926e-40        00000 
-3.78266e-41  4.25517e-40        00000 
 9.61932e-42 -1.91224e-40        00000 
-1.04039e-42  8.20814e-41        00000 
-8.57437e-43 -3.40905e-41        00000 
 9.69151e-43  1.48519e-41        00000 
-8.90675e-43 -9.80359e-42        00000 
 3.13439e-37 -2.77304e-37        00000 
-3.38530e-37  2.97825e-37        00000 
 4.10343e-37 -3.57148e-37        00000 
-5.18558e-37  4.48605e-37        00000 
 6.46529e-37 -5.61376e-37        00000 
-7.72985e-37  6.81287e-37        00000 
 8.75355e-37 -7.92341e-37        00000 
-9.34319e-37  8.78953e-37        00000 
 9.38272e-37 -9.28479e-37        00000 
-8.86067e-37  9.33461e-37        00000 
 7.86895e-37 -8.92942e-37        00000 
-6.57315e-37  8.12499e-37        00000 
 5.16594e-37 -7.02914e-37        00000 
-3.82053e-37  5.77839e-37        00000 
 2.65892e-37 -4.51072e-37        00000 
-1.74092e-37  3.34132e-37        00000 
 1.07164e-37 -2.34720e-37        00000 
-6.19386e-38  1.56283e-37        00000 
 3.35419e-38 -9.85943e-38        00000 
-1.69614e-38  5.89252e-38        00000 
 7.96672e-39 -3.33648e-38        00000 
-3.44584e-39  1.79038e-38        00000 
 1.35205e-39 -9.10971e-39        00000 
-4.67257e-40  4.39844e-39        00000 
 1.32336e-40 -2.01729e-39        00000 
-2.31524e-41  8.80044e-40        00000 
-4.37066e-42 -3.66178e-40        00000 
 7.37747e-42  1.47080e-40        00000 
-5.58832e-42 -6.16999e-41        00000 
 4.63951e-42  3.97105e-41        00000 
-1.71999e-36  1.52942e-36        00000 
 1.87334e-36 -1.65364e-36        00000 
-2.31329e-36  2.01322e-36        00000 
 2.97907e-36 -2.56891e-36        00000 
-3.77045e-36  3.25615e-36        00000 
 4.55641e-36 -3.98914e-36        00000 
-5.19531e-36  4.66985e-36        00000 
 5.56440e-36 -5.20189e-36        00000 
-5.58975e-36  5.50663e-36        00000 
 5.26491e-36 -5.53764e-36        00000 
-4.65023e-36  5.28930e-36        00000 
 3.85281e-36 -4.79701e-36        00000 
-2.99529e-36  4.12873e-36        00000 
 2.18552e-36 -3.37005e-36        00000 
-1.49666e-36  2.60668e-36        00000 
 9.61573e-37 -1.90907e-36        00000 
-5.79082e-37  1.32289e-36        00000 
 3.26334e-37 -8.66858e-37        00000 
-1.71603e-37  5.36952e-37        00000 
 8.38228e-38 -3.14365e-37        00000 
-3.77579e-38  1.73984e-37        00000 
 1.54914e-38 -9.10638e-38        00000 
-5.65652e-39  4.51067e-38        00000 
 1.74554e-39 -2.11646e-38        00000 
-3.86763e-40  9.41847e-39        00000 
 4.06558e-42 -3.98135e-39        00000 
 6.06651e-41  1.60308e-39        00000 
-4.75064e-41 -6.21762e-40        00000 
 2.93296e-41  2.50765e-40        00000 
-2.25870e-41 -1.57127e-40        00000 
 9.37330e-36 -8.38932e-36        00000 
-1.03079e-35  9.14010e-36        00000 
 1.29970e-35 -1.13169e-35        00000 
-1.70876e-35  1.46904e-35        00000 
 2.19803e-35 -1.88772e-35        00000 
-2.68688e-35  2.33586e-35        00000 
 3.08621e-35 -2.75332e-35        00000 
-3.31761e-35  3.08038e-35        00000 
 3.33367e-35 -3.26803e-35        00000 
-3.13079e-35  3.28728e-35        00000 
 2.74876e-35 -3.13479e-35        00000 
-2.25708e-35  2.83306e-35        00000 
 1.73404e-35 -2.42500e-35        00000 
-1.24675e-35  1.96435e-35        00000 
 8.38869e-36 -1.50441e-35        00000 
-5.27936e-36  1.08831e-35        00000 
 3.10390e-36 -7.43050e-36        00000 
-1.70097e-36  4.78518e-36        00000 
 8.65565e-37 -2.90560e-36        00000 
-4.06481e-37  1.66343e-36        00000 
 1.74358e-37 -8.98089e-37        00000 
-6.70566e-38  4.57541e-37        00000 
 2.22490e-38 -2.20152e-37        00000 
-5.73684e-39  1.00164e-37        00000 
 6.47042e-40 -4.31550e-38        00000 
 4.55854e-40  1.76387e-38        00000 
-4.47964e-40 -6.85885e-39        00000 
 2.66994e-40  2.56415e-39        00000 
-1.43523e-40 -9.92460e-40        00000 
 1.03808e-40  6.04373e-40        00000 
-5.06708e-35  4.57292e-35        00000 
 5.63463e-35 -5.02581e-35        00000 
-7.27366e-35  6.34150e-35        00000 
 9.78275e-35 -8.38748e-35        00000 
-1.28066e-34  1.09372e-34        00000 
 1.58499e-34 -1.36775e-34        00000 
-1.83501e-34  1.62393e-34        00000 
 1.98037e-34 -1.82515e-34        00000 
-1.99045e-34  1.94078e-34        00000 
 1.86325e-34 -1.95271e-34        00000 
-1.62510e-34  1.85891e-34        00000 
 1.32133e-34 -1.67370e-34        00000 
-1.00201e-34  1.42419e-34        00000 
 7.08906e-35 -1.14420e-34        00000 
-4.67869e-35  8.66940e-35        00000 
 2.87849e-35 -6.18812e-35        00000 
-1.64812e-35  4.15727e-35        00000 
 8.75526e-36 -2.62694e-35        00000 
-4.29302e-36  1.56077e-35        00000 
 1.92627e-36 -8.71950e-36        00000 
-7.79058e-37  4.58230e-36        00000 
 2.75716e-37 -2.26703e-36        00000 
-7.94845e-38  1.05707e-36        00000 
 1.41507e-38 -4.65224e-37        00000 
 2.48093e-39  1.93596e-37        00000 
-4.15677e-39 -7.63345e-38        00000 
 2.70184e-39  2.86050e-38        00000 
-1.37207e-39 -1.02883e-38        00000 
 6.61864e-40  3.81470e-39        00000 
-4.52488e-40 -2.25370e-39        00000 
 2.71352e-34 -2.47453e-34        00000 
-3.05666e-34  2.74710e-34        00000 
 4.05211e-34 -3.54081e-34        00000 
-5.58798e-34  4.78018e-34        00000 
 7.45606e-34 -6.33229e-34        00000 
-9.35263e-34  8.00838e-34        00000 
 1.09213e-33 -9.58144e-34        00000 
-1.18366e-33  1.08206e-33        00000 
 1.18994e-33 -1.15339e-33        00000 
-1.10984e-33  1.16076e-33        00000 
 9.60917e-34 -1.10296e-33        00000 
-7.72836e-34  9.89091e-34        00000 
 5.77731e-34 -8.36322e-34        00000 
-4.01555e-34  6.65951e-34        00000 
 2.59458e-34 -4.98725e-34        00000 
-1.55687e-34  3.50814e-34        00000 
 8.65579e-35 -2.31546e-34        00000 
-4.44023e-35  1.43299e-34        00000 
 2.08651e-35 -8.31321e-35        00000 
-8.87030e-36  4.52159e-35        00000 
 3.33295e-36 -2.30715e-35        00000 
-1.05119e-36  1.10555e-35        00000 
 2.36919e-37 -4.98227e-36        00000 
-3.51240e-39  2.11547e-36        00000 
-3.61013e-38 -8.48092e-37        00000 
 2.73389e-38  3.21812e-37        00000 
-1.45324e-38 -1.15957e-37        00000 
 6.57139e-39  4.00482e-38        00000 
-2.89005e-39 -1.42004e-38        00000 
 1.87373e-39  8.12516e-39        00000 
-1.43714e-33  1.32768e-33        00000 
 1.64345e-33 -1.49125e-33        00000 
-2.24538e-33  1.96896e-33        00000 
 3.18313e-33 -2.71866e-33        00000 
-4.33661e-33  3.66306e-33        00000 
 5.52003e-33 -4.68853e-33        00000 
-6.50667e-33  5.65527e-33        00000 
 7.08478e-33 -6.41911e-33        00000 
-7.12354e-33  6.85954e-33        00000 
 6.61690e-33 -6.90505e-33        00000 
-5.68235e-33  6.54833e-33        00000 
 4.51525e-33 -5.84713e-33        00000 
-3.32229e-33  4.91035e-33        00000 
 2.26442e-33 -3.87247e-33        00000 
-1.42925e-33  2.86330e-33        00000 
 8.34177e-34 -1.98200e-33        00000 
-4.48767e-34  1.28291e-33        00000 
 2.21228e-34 -7.75953e-34        00000 
-9.89101e-35  4.38473e-34        00000 
 3.93618e-35 -2.31567e-34        00000 
-1.34141e-35  1.14400e-34        00000 
 3.52960e-36 -5.29408e-35        00000 
-4.10348e-37  2.29916e-35        00000 
-2.74799e-37 -9.39129e-36        00000 
 2.69344e-37  3.61721e-36        00000 
-1.54728e-37 -1.31755e-36        00000 
 7.19236e-38  4.55460e-37        00000 
-2.95776e-38 -1.50767e-37        00000 
 1.19675e-38  5.10435e-38        00000 
-7.37021e-39 -2.82394e-38        00000 
 7.51205e-33 -7.05239e-33        00000 
-8.74392e-33  8.03047e-33        00000 
 1.23637e-32 -1.08975e-32        00000 
-1.80713e-32  1.54248e-32        00000 
 2.51890e-32 -2.11681e-32        00000 
-3.25842e-32  2.74448e-32        00000 
 3.88084e-32 -3.33914e-32        00000 
-4.24727e-32  3.81053e-32        00000 
 4.27103e-32 -4.08278e-32        00000 
-3.94891e-32  4.11085e-32        00000 
 3.36023e-32 -3.89030e-32        00000 
-2.63432e-32  3.45783e-32        00000 
 1.90448e-32 -2.88251e-32        00000 
-1.27021e-32  2.24944e-32        00000 
 7.81158e-33 -1.64009e-32        00000 
-4.42038e-33  1.11530e-32        00000 
 2.29120e-33 -7.06479e-33        00000 
-1.07867e-33  4.16571e-33        00000 
 4.54266e-34 -2.28641e-33        00000 
-1.66092e-34  1.16889e-33        00000 
 4.90930e-35 -5.57307e-34        00000 
-8.94572e-36  2.48261e-34        00000 
-1.47685e-36 -1.03566e-34        00000 
 2.54043e-36  4.05705e-35        00000 
-1.62651e-36 -1.49699e-35        00000 
 7.93099e-37  5.22049e-36        00000 
-3.31835e-37 -1.72745e-36        00000 
 1.25505e-37  5.47086e-37        00000 
-4.69798e-38 -1.76606e-37        00000 
 2.75044e-38  9.43330e-38        00000 
-3.86548e-32  3.70158e-32        00000 
 4.59455e-32 -4.28378e-32        00000 
-6.75631e-32  5.99830e-32        00000 
 1.02165e-31 -8.72671e-32        00000 
-1.46049e-31  1.22177e-31        00000 
 1.92343e-31 -1.60615e-31        00000 
-2.31746e-31  1.97234e-31        00000 
 2.55070e-31 -2.26359e-31        00000 
-2.56513e-31  2.43205e-31        00000 
 2.35918e-31 -2.44937e-31        00000 
-1.98681e-31  2.31281e-31        00000 
 1.53422e-31 -2.04565e-31        00000 
-1.08756e-31  1.69174e-31        00000 
 7.08045e-32 -1.30506e-31        00000 
-4.22998e-32  9.36890e-32        00000 
 2.31181e-32 -6.24647e-32        00000 
-1.14826e-32  3.86251e-32        00000 
 5.11927e-33 -2.21379e-32        00000 
-2.00070e-33  1.17635e-32        00000 
 6.50845e-34 -5.80116e-33        00000 
-1.50423e-34  2.65972e-33        00000 
 3.11961e-36 -1.13639e-33        00000 
 2.22978e-35  4.53785e-34        00000 
-1.67618e-35 -1.69921e-34        00000 
 8.69524e-36  5.98844e-35        00000 
-3.75481e-36 -1.99420e-35        00000 
 1.43450e-36  6.30276e-36        00000 
-5.02202e-37 -1.90664e-36        00000 
 1.74567e-37  5.86223e-37        00000 
-9.71966e-38 -3.01944e-37        00000 
 1.95178e-31 -1.91505e-31        00000 
-2.37842e-31  2.25958e-31        00000 
 3.65812e-31 -3.28029e-31        00000 
-5.74538e-31  4.92050e-31        00000 
 8.44804e-31 -7.04117e-31        00000 
-1.13518e-30  9.39688e-31        00000 
 1.38567e-30 -1.16547e-30        00000 
-1.53487e-30  1.34564e-30        00000 
 1.54356e-30 -1.44999e-30        00000 
-1.41103e-30  1.46066e-30        00000 
 1.17440e-30 -1.37600e-30        00000 
-8.91516e-31  1.21071e-30        00000 
 6.18171e-31 -9.92614e-31        00000 
-3.91723e-31  7.56064e-31        00000 
 2.26536e-31 -5.33476e-31        00000 
-1.19010e-31  3.47886e-31        00000 
 5.62426e-32 -2.09364e-31        00000 
-2.34606e-32  1.16234e-31        00000 
 8.30636e-33 -5.95670e-32        00000 
-2.25266e-33  2.82227e-32        00000 
 2.74204e-34 -1.23922e-32        00000 
 1.70391e-34  5.05811e-33        00000 
-1.67831e-34 -1.92611e-33        00000 
 9.44524e-35  6.87044e-34        00000 
-4.24249e-35 -2.30566e-34        00000 
 1.65447e-35  7.31328e-35        00000 
-5.81636e-36 -2.20333e-35        00000 
 1.89237e-36  6.35801e-36        00000 
-6.12605e-37 -1.86058e-36        00000 
 3.24529e-37  9.23254e-37        00000 
-9.63076e-31  9.73485e-31        00000 
 1.20913e-30 -1.17581e-30        00000 
-1.95816e-30  1.77996e-30        00000 
 3.20927e-30 -2.76298e-30        00000 
-4.87118e-30  4.05049e-30        00000 
 6.69682e-30 -5.49560e-30        00000 
-8.29689e-30  6.88977e-30        00000 
 9.25706e-30 -8.00582e-30        00000 
-9.30858e-30  8.65258e-30        00000 
 8.44957e-30 -8.71837e-30        00000 
-6.93818e-30  8.19294e-30        00000 
 5.16558e-30 -7.16883e-30        00000 
-3.49367e-30  5.82235e-30        00000 
 2.14764e-30 -4.37271e-30        00000 
-1.19721e-30  3.02598e-30        00000 
 6.00959e-31 -1.92440e-30        00000 
-2.67587e-31  1.12311e-30        00000 
 1.02516e-31 -6.01485e-31        00000 
-3.14595e-32  2.95955e-31        00000 
 5.94538e-33 -1.34101e-31        00000 
 8.89628e-34  5.61348e-32        00000 
-1.60778e-33 -2.17935e-32        00000 
 1.01286e-33  7.88230e-33        00000 
-4.77848e-34 -2.66886e-33        00000 
 1.91086e-34  8.50341e-34        00000 
-6.79758e-35 -2.56310e-34        00000 
 2.20916e-35  7.34885e-35        00000 
-6.69914e-36 -2.02091e-35        00000 
 2.02506e-36  5.62740e-36        00000 
-1.02137e-36 -2.68883e-36        00000 
 4.61975e-30 -4.84177e-30        00000 
-6.01203e-30  6.01793e-30        00000 
 1.03327e-29 -9.56681e-30        00000 
-1.77704e-29  1.54357e-29        00000 
 2.79678e-29 -2.32480e-29        00000 
-3.94755e-29  3.21249e-29        00000 
 4.97552e-29 -4.07494e-29        00000 
-5.59778e-29  4.76707e-29        00000 
 5.62770e-29 -5.16807e-29        00000 
-5.06621e-29  5.20857e-29        00000 
 4.09532e-29 -4.88240e-29        00000 
-2.98189e-29  4.24710e-29        00000 
 1.96060e-29 -3.41407e-29        00000 
-1.16460e-29  2.52383e-29        00000 
 6.22606e-30 -1.70835e-29        00000 
-2.96265e-30  1.05570e-29        00000 
 1.22511e-30 -5.94871e-30        00000 
-4.17647e-31  3.05807e-30        00000 
 1.00468e-31 -1.43719e-30        00000 
-3.03554e-33  6.19524e-31        00000 
-1.42939e-32 -2.45991e-31        00000 
 1.06632e-32  9.04144e-32        00000 
-5.35812e-33 -3.09307e-32        00000 
 2.20879e-33  9.90643e-33        00000 
-7.96997e-34 -2.98854e-33        00000 
 2.60118e-34  8.54378e-34        00000 
-7.84045e-35 -2.32854e-34        00000 
 2.22177e-35  6.09968e-35        00000 
-6.28884e-36 -1.61671e-35        00000 
 3.02310e-36  7.43780e-36        00000 
-2.13988e-29  2.34282e-29        00000 
 2.90814e-29 -3.01714e-29        00000 
-5.35309e-29  5.08088e-29        00000 
 9.72720e-29 -8.56758e-29        00000 
-1.59648e-28  1.33053e-28        00000 
 2.32390e-28 -1.87683e-28        00000 
-2.98879e-28  2.41153e-28        00000 
 3.39545e-28 -2.84122e-28        00000 
-3.41224e-28  3.08969e-28        00000 
 3.04159e-28 -3.11457e-28        00000 
-2.41390e-28  2.91224e-28        00000 
 1.71297e-28 -2.51780e-28        00000 
-1.09063e-28  2.00122e-28        00000 
 6.23145e-29 -1.45311e-28        00000 
-3.17462e-29  9.58854e-29        00000 
 1.41624e-29 -5.73172e-29        00000 
-5.31407e-30  3.10150e-29        00000 
 1.51329e-30 -1.52144e-29        00000 
-1.98242e-31  6.78836e-30        00000 
-1.09425e-31 -2.76752e-30        00000 
 1.09206e-31  1.03662e-30        00000 
-5.96957e-32 -3.58938e-31        00000 
 2.55505e-32  1.15662e-31        00000 
-9.37536e-33 -3.49276e-32        00000 
 3.07511e-33  9.95429e-33        00000 
-9.24514e-34 -2.69554e-33        00000 
 2.59225e-34  6.97963e-34        00000 
-6.88346e-35 -1.74193e-34        00000 
 1.83014e-35  4.39860e-35        00000 
-8.39789e-36 -1.94927e-35        00000 
 9.48989e-29 -1.09433e-28        00000 
-1.35890e-28  1.47359e-28        00000 
 2.70764e-28 -2.65731e-28        00000 
-5.24294e-28  4.71543e-28        00000 
 9.04065e-28 -7.58697e-28        00000 
-1.36521e-27  1.09577e-27        00000 
 1.79870e-27 -1.42822e-27        00000 
-2.06717e-27  1.69518e-27        00000 
 2.07602e-27 -1.84882e-27        00000 
-1.82846e-27  1.86404e-27        00000 
 1.41972e-27 -1.73884e-27        00000 
-9.77722e-28  1.49387e-27        00000 
 6.00050e-28 -1.17265e-27        00000 
-3.28035e-28  8.34079e-28        00000 
 1.57945e-28 -5.34192e-28        00000 
-6.49546e-29  3.07110e-28        00000 
 2.11974e-29 -1.58523e-28        00000 
-4.26236e-30  7.36870e-29        00000 
-5.35479e-31 -3.09983e-29        00000 
 1.06997e-30  1.18745e-29        00000 
-6.58798e-31 -4.17109e-30        00000 
 2.95737e-31  1.35378e-30        00000 
-1.10717e-31 -4.09301e-31        00000 
 3.65135e-32  1.16230e-31        00000 
-1.09425e-32 -3.12475e-32        00000 
 3.04178e-33  8.01087e-33        00000 
-7.95988e-34 -1.97122e-33        00000 
 1.98700e-34  4.69121e-34        00000 
-4.97987e-35 -1.13027e-34        00000 
 2.18571e-35  4.82935e-35        00000 
-3.98666e-28  4.88074e-28        00000 
 6.07659e-28 -6.95664e-28        00000 
-1.32652e-27  1.36175e-27        00000 
 2.76691e-27 -2.56602e-27        00000 
-5.06252e-27  4.30534e-27        00000 
 7.99389e-27 -6.39271e-27        00000 
-1.08468e-26  8.46744e-27        00000 
 1.26415e-26 -1.01265e-26        00000 
-1.26823e-26  1.10721e-26        00000 
 1.10052e-26 -1.11644e-26        00000 
-8.32186e-27  1.03939e-26        00000 
 5.53276e-27 -8.87372e-27        00000 
-3.25625e-27  6.86924e-27        00000 
 1.69287e-27 -4.76874e-27        00000 
-7.61553e-28  2.94717e-27        00000 
 2.80528e-28 -1.61750e-27        00000 
-7.24517e-29  7.89947e-28        00000 