<?xml version="1.0" encoding="utf-8"?>
<VTKFile byte_order="LittleEndian" type="UnstructuredGrid" version="0.1">
   <UnstructuredGrid>
      <Piece NumberOfCells="3364" NumberOfPoints="1741">
         <Points>
            <DataArray Name="Points" NumberOfComponents="3" format="ascii" type="Float32">
0.0000 1.0000 0.0000
0.0000 1.0345 0.0000
0.0000 1.0690 0.0000
0.0000 1.1034 0.0000
0.0000 1.1379 0.0000
0.0000 1.1724 0.0000
0.0000 1.2069 0.0000
0.0000 1.2414 0.0000
0.0000 1.2759 0.0000
0.0000 1.3103 0.0000
0.0000 1.3448 0.0000
0.0000 1.3793 0.0000
0.0000 1.4138 0.0000
0.0000 1.4483 0.0000
0.0000 1.4828 0.0000
0.0000 1.5172 0.0000
0.0000 1.5517 0.0000
0.0000 1.5862 0.0000
0.0000 1.6207 0.0000
0.0000 1.6552 0.0000
0.0000 1.6897 0.0000
0.0000 1.7241 0.0000
0.0000 1.7586 0.0000
0.0000 1.7931 0.0000
0.0000 1.8276 0.0000
0.0000 1.8621 0.0000
0.0000 1.8966 0.0000
0.0000 1.9310 0.0000
0.0000 1.9655 0.0000
0.0000 2.0000 0.0000
0.0690 1.0000 0.0000
0.0690 1.0345 0.0000
0.0690 1.0690 0.0000
0.0690 1.1034 0.0000
0.0690 1.1379 0.0000
0.0690 1.1724 0.0000
0.0690 1.2069 0.0000
0.0690 1.2414 0.0000
0.0690 1.2759 0.0000
0.0690 1.3103 0.0000
0.0690 1.3448 0.0000
0.0690 1.3793 0.0000
0.0690 1.4138 0.0000
0.0690 1.4483 0.0000
0.0690 1.4828 0.0000
0.0690 1.5172 0.0000
0.0690 1.5517 0.0000
0.0690 1.5862 0.0000
0.0690 1.6207 0.0000
0.0690 1.6552 0.0000
0.0690 1.6897 0.0000
0.0690 1.7241 0.0000
0.0690 1.7586 0.0000
0.0690 1.7931 0.0000
0.0690 1.8276 0.0000
0.0690 1.8621 0.0000
0.0690 1.8966 0.0000
0.0690 1.9310 0.0000
0.0690 1.9655 0.0000
0.0690 2.0000 0.0000
0.1379 1.0000 0.0000
0.1379 1.0345 0.0000
0.1379 1.0690 0.0000
0.1379 1.1034 0.0000
0.1379 1.1379 0.0000
0.1379 1.1724 0.0000
0.1379 1.2069 0.0000
0.1379 1.2414 0.0000
0.1379 1.2759 0.0000
0.1379 1.3103 0.0000
0.1379 1.3448 0.0000
0.1379 1.3793 0.0000
0.1379 1.4138 0.0000
0.1379 1.4483 0.0000
0.1379 1.4828 0.0000
0.1379 1.5172 0.0000
0.1379 1.5517 0.0000
0.1379 1.5862 0.0000
0.1379 1.6207 0.0000
0.1379 1.6552 0.0000
0.1379 1.6897 0.0000
0.1379 1.7241 0.0000
0.1379 1.7586 0.0000
0.1379 1.7931 0.0000
0.1379 1.8276 0.0000
0.1379 1.8621 0.0000
0.1379 1.8966 0.0000
0.1379 1.9310 0.0000
0.1379 1.9655 0.0000
0.1379 2.0000 0.0000
0.2069 1.0000 0.0000
0.2069 1.0345 0.0000
0.2069 1.0690 0.0000
0.2069 1.1034 0.0000
0.2069 1.1379 0.0000
0.2069 1.1724 0.0000
0.2069 1.2069 0.0000
0.2069 1.2414 0.0000
0.2069 1.2759 0.0000
0.2069 1.3103 0.0000
0.2069 1.3448 0.0000
0.2069 1.3793 0.0000
0.2069 1.4138 0.0000
0.2069 1.4483 0.0000
0.2069 1.4828 0.0000
0.2069 1.5172 0.0000
0.2069 1.5517 0.0000
0.2069 1.5862 0.0000
0.2069 1.6207 0.0000
0.2069 1.6552 0.0000
0.2069 1.6897 0.0000
0.2069 1.7241 0.0000
0.2069 1.7586 0.0000
0.2069 1.7931 0.0000
0.2069 1.8276 0.0000
0.2069 1.8621 0.0000
0.2069 1.8966 0.0000
0.2069 1.9310 0.0000
0.2069 1.9655 0.0000
0.2069 2.0000 0.0000
0.2759 1.0000 0.0000
0.2759 1.0345 0.0000
0.2759 1.0690 0.0000
0.2759 1.1034 0.0000
0.2759 1.1379 0.0000
0.2759 1.1724 0.0000
0.2759 1.2069 0.0000
0.2759 1.2414 0.0000
0.2759 1.2759 0.0000
0.2759 1.3103 0.0000
0.2759 1.3448 0.0000
0.2759 1.3793 0.0000
0.2759 1.4138 0.0000
0.2759 1.4483 0.0000
0.2759 1.4828 0.0000
0.2759 1.5172 0.0000
0.2759 1.5517 0.0000
0.2759 1.5862 0.0000
0.2759 1.6207 0.0000
0.2759 1.6552 0.0000
0.2759 1.6897 0.0000
0.2759 1.7241 0.0000
0.2759 1.7586 0.0000
0.2759 1.7931 0.0000
0.2759 1.8276 0.0000
0.2759 1.8621 0.0000
0.2759 1.8966 0.0000
0.2759 1.9310 0.0000
0.2759 1.9655 0.0000
0.2759 2.0000 0.0000
0.3448 1.0000 0.0000
0.3448 1.0345 0.0000
0.3448 1.0690 0.0000
0.3448 1.1034 0.0000
0.3448 1.1379 0.0000
0.3448 1.1724 0.0000
0.3448 1.2069 0.0000
0.3448 1.2414 0.0000
0.3448 1.2759 0.0000
0.3448 1.3103 0.0000
0.3448 1.3448 0.0000
0.3448 1.3793 0.0000
0.3448 1.4138 0.0000
0.3448 1.4483 0.0000
0.3448 1.4828 0.0000
0.3448 1.5172 0.0000
0.3448 1.5517 0.0000
0.3448 1.5862 0.0000
0.3448 1.6207 0.0000
0.3448 1.6552 0.0000
0.3448 1.6897 0.0000
0.3448 1.7241 0.0000
0.3448 1.7586 0.0000
0.3448 1.7931 0.0000
0.3448 1.8276 0.0000
0.3448 1.8621 0.0000
0.3448 1.8966 0.0000
0.3448 1.9310 0.0000
0.3448 1.9655 0.0000
0.3448 2.0000 0.0000
0.4138 1.0000 0.0000
0.4138 1.0345 0.0000
0.4138 1.0690 0.0000
0.4138 1.1034 0.0000
0.4138 1.1379 0.0000
0.4138 1.1724 0.0000
0.4138 1.2069 0.0000
0.4138 1.2414 0.0000
0.4138 1.2759 0.0000
0.4138 1.3103 0.0000
0.4138 1.3448 0.0000
0.4138 1.3793 0.0000
0.4138 1.4138 0.0000
0.4138 1.4483 0.0000
0.4138 1.4828 0.0000
0.4138 1.5172 0.0000
0.4138 1.5517 0.0000
0.4138 1.5862 0.0000
0.4138 1.6207 0.0000
0.4138 1.6552 0.0000
0.4138 1.6897 0.0000
0.4138 1.7241 0.0000
0.4138 1.7586 0.0000
0.4138 1.7931 0.0000
0.4138 1.8276 0.0000
0.4138 1.8621 0.0000
0.4138 1.8966 0.0000
0.4138 1.9310 0.0000
0.4138 1.9655 0.0000
0.4138 2.0000 0.0000
0.4828 1.0000 0.0000
0.4828 1.0345 0.0000
0.4828 1.0690 0.0000
0.4828 1.1034 0.0000
0.4828 1.1379 0.0000
0.4828 1.1724 0.0000
0.4828 1.2069 0.0000
0.4828 1.2414 0.0000
0.4828 1.2759 0.0000
0.4828 1.3103 0.0000
0.4828 1.3448 0.0000
0.4828 1.3793 0.0000
0.4828 1.4138 0.0000
0.4828 1.4483 0.0000
0.4828 1.4828 0.0000
0.4828 1.5172 0.0000
0.4828 1.5517 0.0000
0.4828 1.5862 0.0000
0.4828 1.6207 0.0000
0.4828 1.6552 0.0000
0.4828 1.6897 0.0000
0.4828 1.7241 0.0000
0.4828 1.7586 0.0000
0.4828 1.7931 0.0000
0.4828 1.8276 0.0000
0.4828 1.8621 0.0000
0.4828 1.8966 0.0000
0.4828 1.9310 0.0000
0.4828 1.9655 0.0000
0.4828 2.0000 0.0000
0.5517 1.0000 0.0000
0.5517 1.0345 0.0000
0.5517 1.0690 0.0000
0.5517 1.1034 0.0000
0.5517 1.1379 0.0000
0.5517 1.1724 0.0000
0.5517 1.2069 0.0000
0.5517 1.2414 0.0000
0.5517 1.2759 0.0000
0.5517 1.3103 0.0000
0.5517 1.3448 0.0000
0.5517 1.3793 0.0000
0.5517 1.4138 0.0000
0.5517 1.4483 0.0000
0.5517 1.4828 0.0000
0.5517 1.5172 0.0000
0.5517 1.5517 0.0000
0.5517 1.5862 0.0000
0.5517 1.6207 0.0000
0.5517 1.6552 0.0000
0.5517 1.6897 0.0000
0.5517 1.7241 0.0000
0.5517 1.7586 0.0000
0.5517 1.7931 0.0000
0.5517 1.8276 0.0000
0.5517 1.8621 0.0000
0.5517 1.8966 0.0000
0.5517 1.9310 0.0000
0.5517 1.9655 0.0000
0.5517 2.0000 0.0000
0.6207 1.0000 0.0000
0.6207 1.0345 0.0000
0.6207 1.0690 0.0000
0.6207 1.1034 0.0000
0.6207 1.1379 0.0000
0.6207 1.1724 0.0000
0.6207 1.2069 0.0000
0.6207 1.2414 0.0000
0.6207 1.2759 0.0000
0.6207 1.3103 0.0000
0.6207 1.3448 0.0000
0.6207 1.3793 0.0000
0.6207 1.4138 0.0000
0.6207 1.4483 0.0000
0.6207 1.4828 0.0000
0.6207 1.5172 0.0000
0.6207 1.5517 0.0000
0.6207 1.5862 0.0000
0.6207 1.6207 0.0000
0.6207 1.6552 0.0000
0.6207 1.6897 0.0000
0.6207 1.7241 0.0000
0.6207 1.7586 0.0000
0.6207 1.7931 0.0000
0.6207 1.8276 0.0000
0.6207 1.8621 0.0000
0.6207 1.8966 0.0000
0.6207 1.9310 0.0000
0.6207 1.9655 0.0000
0.6207 2.0000 0.0000
0.6897 1.0000 0.0000
0.6897 1.0345 0.0000
0.6897 1.0690 0.0000
0.6897 1.1034 0.0000
0.6897 1.1379 0.0000
0.6897 1.1724 0.0000
0.6897 1.2069 0.0000
0.6897 1.2414 0.0000
0.6897 1.2759 0.0000
0.6897 1.3103 0.0000
0.6897 1.3448 0.0000
0.6897 1.3793 0.0000
0.6897 1.4138 0.0000
0.6897 1.4483 0.0000
0.6897 1.4828 0.0000
0.6897 1.5172 0.0000
0.6897 1.5517 0.0000
0.6897 1.5862 0.0000
0.6897 1.6207 0.0000
0.6897 1.6552 0.0000
0.6897 1.6897 0.0000
0.6897 1.7241 0.0000
0.6897 1.7586 0.0000
0.6897 1.7931 0.0000
0.6897 1.8276 0.0000
0.6897 1.8621 0.0000
0.6897 1.8966 0.0000
0.6897 1.9310 0.0000
0.6897 1.9655 0.0000
0.6897 2.0000 0.0000
0.7586 1.0000 0.0000
0.7586 1.0345 0.0000
0.7586 1.0690 0.0000
0.7586 1.1034 0.0000
0.7586 1.1379 0.0000
0.7586 1.1724 0.0000
0.7586 1.2069 0.0000
0.7586 1.2414 0.0000
0.7586 1.2759 0.0000
0.7586 1.3103 0.0000
0.7586 1.3448 0.0000
0.7586 1.3793 0.0000
0.7586 1.4138 0.0000
0.7586 1.4483 0.0000
0.7586 1.4828 0.0000
0.7586 1.5172 0.0000
0.7586 1.5517 0.0000
0.7586 1.5862 0.0000
0.7586 1.6207 0.0000
0.7586 1.6552 0.0000
0.7586 1.6897 0.0000
0.7586 1.7241 0.0000
0.7586 1.7586 0.0000
0.7586 1.7931 0.0000
0.7586 1.8276 0.0000
0.7586 1.8621 0.0000
0.7586 1.8966 0.0000
0.7586 1.9310 0.0000
0.7586 1.9655 0.0000
0.7586 2.0000 0.0000
0.8276 1.0000 0.0000
0.8276 1.0345 0.0000
0.8276 1.0690 0.0000
0.8276 1.1034 0.0000
0.8276 1.1379 0.0000
0.8276 1.1724 0.0000
0.8276 1.2069 0.0000
0.8276 1.2414 0.0000
0.8276 1.2759 0.0000
0.8276 1.3103 0.0000
0.8276 1.3448 0.0000
0.8276 1.3793 0.0000
0.8276 1.4138 0.0000
0.8276 1.4483 0.0000
0.8276 1.4828 0.0000
0.8276 1.5172 0.0000
0.8276 1.5517 0.0000
0.8276 1.5862 0.0000
0.8276 1.6207 0.0000
0.8276 1.6552 0.0000
0.8276 1.6897 0.0000
0.8276 1.7241 0.0000
0.8276 1.7586 0.0000
0.8276 1.7931 0.0000
0.8276 1.8276 0.0000
0.8276 1.8621 0.0000
0.8276 1.8966 0.0000
0.8276 1.9310 0.0000
0.8276 1.9655 0.0000
0.8276 2.0000 0.0000
0.8966 1.0000 0.0000
0.8966 1.0345 0.0000
0.8966 1.0690 0.0000
0.8966 1.1034 0.0000
0.8966 1.1379 0.0000
0.8966 1.1724 0.0000
0.8966 1.2069 0.0000
0.8966 1.2414 0.0000
0.8966 1.2759 0.0000
0.8966 1.3103 0.0000
0.8966 1.3448 0.0000
0.8966 1.3793 0.0000
0.8966 1.4138 0.0000
0.8966 1.4483 0.0000
0.8966 1.4828 0.0000
0.8966 1.5172 0.0000
0.8966 1.5517 0.0000
0.8966 1.5862 0.0000
0.8966 1.6207 0.0000
0.8966 1.6552 0.0000
0.8966 1.6897 0.0000
0.8966 1.7241 0.0000
0.8966 1.7586 0.0000
0.8966 1.7931 0.0000
0.8966 1.8276 0.0000
0.8966 1.8621 0.0000
0.8966 1.8966 0.0000
0.8966 1.9310 0.0000
0.8966 1.9655 0.0000
0.8966 2.0000 0.0000
0.9655 1.0000 0.0000
0.9655 1.0345 0.0000
0.9655 1.0690 0.0000
0.9655 1.1034 0.0000
0.9655 1.1379 0.0000
0.9655 1.1724 0.0000
0.9655 1.2069 0.0000
0.9655 1.2414 0.0000
0.9655 1.2759 0.0000
0.9655 1.3103 0.0000
0.9655 1.3448 0.0000
0.9655 1.3793 0.0000
0.9655 1.4138 0.0000
0.9655 1.4483 0.0000
0.9655 1.4828 0.0000
0.9655 1.5172 0.0000
0.9655 1.5517 0.0000
0.9655 1.5862 0.0000
0.9655 1.6207 0.0000
0.9655 1.6552 0.0000
0.9655 1.6897 0.0000
0.9655 1.7241 0.0000
0.9655 1.7586 0.0000
0.9655 1.7931 0.0000
0.9655 1.8276 0.0000
0.9655 1.8621 0.0000
0.9655 1.8966 0.0000
0.9655 1.9310 0.0000
0.9655 1.9655 0.0000
0.9655 2.0000 0.0000
1.0345 1.0000 0.0000
1.0345 1.0345 0.0000
1.0345 1.0690 0.0000
1.0345 1.1034 0.0000
1.0345 1.1379 0.0000
1.0345 1.1724 0.0000
1.0345 1.2069 0.0000
1.0345 1.2414 0.0000
1.0345 1.2759 0.0000
1.0345 1.3103 0.0000
1.0345 1.3448 0.0000
[...]
         <PointData>
            <DataArray Name="fValues" NumberOfComponents="3" format="ascii" type="Float64">
-1.56214e-40 -8.45954e-41        00000 
 2.01471e-40  1.05745e-40        00000 
-3.53021e-40 -1.74778e-40        00000 
 6.58895e-40  3.07969e-40        00000 
-1.20011e-39 -5.30396e-40        00000 
 2.08773e-39  8.71545e-40        00000 
-3.45116e-39 -1.35738e-39        00000 
 5.41323e-39  1.99884e-39        00000 
-8.05149e-39 -2.77877e-39        00000 
 1.13513e-38  3.64161e-39        00000 
-1.51642e-38 -4.49134e-39        00000 
 1.91905e-38  5.20241e-39        00000 
-2.30008e-38 -5.64414e-39        00000 
 2.61042e-38  5.71370e-39        00000 
-2.80491e-38 -5.36713e-39        00000 
 2.85309e-38  4.63707e-39        00000 
-2.74700e-38 -3.62901e-39        00000 
 2.50338e-38  2.49613e-39        00000 
-2.15931e-38 -1.40102e-39        00000 
 1.76295e-38  4.77481e-40        00000 
-1.36253e-38  1.95228e-40        00000 
 9.97034e-39 -5.99392e-40        00000 
-6.90957e-39  7.68254e-40        00000 
 4.53688e-39 -7.65043e-40        00000 
-2.82465e-39  6.60548e-40        00000 
 1.67055e-39 -5.16234e-40        00000 
-9.44140e-40  3.75921e-40        00000 
 5.21890e-40 -2.65295e-40        00000 
-3.07955e-40  1.96312e-40        00000 
 2.43242e-40 -1.73053e-40        00000 
 3.85890e-40  2.14325e-40        00000 
-5.06140e-40 -2.72098e-40        00000 
 9.13191e-40  4.62530e-40        00000 
-1.74941e-39 -8.36016e-40        00000 
 3.25939e-39  1.47184e-39        00000 
-5.78673e-39 -2.46633e-39        00000 
 9.74412e-39  3.90935e-39        00000 
-1.55402e-38 -5.84790e-39        00000 
 2.34580e-38  8.24243e-39        00000 
-3.35000e-38 -1.09296e-38        00000 
 4.52438e-38  1.36108e-38        00000 
-5.77694e-38 -1.58836e-38        00000 
 6.97189e-38  1.73202e-38        00000 
-7.95099e-38 -1.75778e-38        00000 
 8.56708e-38  1.65046e-38        00000 
-8.72015e-38 -1.42020e-38        00000 
 8.38396e-38  1.10142e-38        00000 
-7.61348e-38 -7.44254e-39        00000 
 6.53012e-38  4.01652e-39        00000 
-5.29033e-38 -1.16504e-39        00000 
 4.04873e-38 -8.67648e-40        00000 
-2.92767e-38  2.04103e-39        00000 
 2.00092e-38 -2.47831e-39        00000 
-1.29317e-38  2.39348e-39        00000 
 7.90960e-39 -2.01653e-39        00000 
-4.58671e-39  1.53986e-39        00000 
 2.53593e-39 -1.09456e-39        00000 
-1.36693e-39  7.52371e-40        00000 
 7.84558e-40 -5.42587e-40        00000 
-6.10181e-40  4.72474e-40        00000 
-1.72329e-39 -9.87504e-40        00000 
 2.30921e-39  1.27851e-39        00000 
-4.31989e-39 -2.24965e-39        00000 
 8.54286e-39  4.19353e-39        00000 
-1.63618e-38 -7.58188e-39        00000 
 2.97774e-38  1.30092e-38        00000 
-5.12782e-38 -2.10638e-38        00000 
 8.34442e-38  3.21114e-38        00000 
-1.28227e-37 -4.60171e-38        00000 
 1.85979e-37  6.18894e-38        00000 
-2.54494e-37 -7.79731e-38        00000 
 3.28449e-37  9.18138e-38        00000 
-3.99680e-37 -1.00737e-37        00000 
 4.58464e-37  1.02552e-37        00000 
-4.95632e-37 -9.62504e-38        00000 
 5.04899e-37  8.24308e-38        00000 
-4.84609e-37 -6.32373e-38        00000 
 4.38215e-37  4.18114e-38        00000 
-3.73324e-37 -2.14475e-38        00000 
 2.99644e-37  4.76525e-39        00000 
-2.26624e-37  6.81541e-39        00000 
 1.61542e-37 -1.31642e-38        00000 
-1.08569e-37  1.51507e-38        00000 
 6.88338e-38 -1.41571e-38        00000 
-4.12054e-38  1.16039e-38        00000 
 2.33307e-38 -8.62866e-39        00000 
-1.25603e-38  5.96372e-39        00000 
 6.56690e-39 -3.97385e-39        00000 
-3.64323e-39  2.77784e-39        00000 
 2.77899e-39 -2.38226e-39        00000 
 7.85431e-39  4.64450e-39        00000 
-1.07612e-38 -6.13711e-39        00000 
 2.08833e-38  1.11843e-38        00000 
-4.26429e-38 -2.15072e-38        00000 
 8.39962e-38  3.99508e-38        00000 
-1.56798e-37 -7.02324e-38        00000 
 2.76318e-37  1.16236e-37        00000 
-4.59097e-37 -1.80708e-37        00000 
 7.18632e-37  2.63459e-37        00000 
-1.05919e-36 -3.59590e-37        00000 
 1.46927e-36  4.58571e-37        00000 
-1.91748e-36 -5.45074e-37        00000 
 2.35350e-36  6.01949e-37        00000 
-2.71603e-36 -6.14833e-37        00000 
 2.94640e-36  5.76876e-37        00000 
-3.00407e-36 -4.91671e-37        00000 
 2.87824e-36  3.72947e-37        00000 
-2.59125e-36 -2.40921e-37        00000 
 2.19201e-36  1.16644e-37        00000 
-1.74243e-36 -1.65265e-38        00000 
 1.30169e-36 -5.10134e-38        00000 
-9.14148e-37  8.59217e-38        00000 
 6.03767e-37 -9.43815e-38        00000 
-3.75267e-37  8.54998e-38        00000 
 2.19712e-37 -6.82276e-38        00000 
-1.21393e-37  4.94173e-38        00000 
 6.36100e-38 -3.32141e-38        00000 
-3.22542e-38  2.14524e-38        00000 
 1.72935e-38 -1.45239e-38        00000 
-1.29312e-38  1.22571e-38        00000 
-3.51126e-38 -2.14707e-38        00000 
 4.92928e-38  2.90121e-38        00000 
-9.94800e-38 -5.48925e-38        00000 
 2.10179e-37  1.09103e-37        00000 
-4.26639e-37 -2.08614e-37        00000 
 8.18511e-37  3.76446e-37        00000 
-1.47887e-36 -6.37964e-37        00000 
 2.51309e-36  1.01311e-36        00000 
-4.01337e-36 -1.50493e-36        00000 
 6.01941e-36  2.08725e-36        00000 
-8.47454e-36 -2.69726e-36        00000 
 1.11945e-35  3.23924e-36        00000 
-1.38693e-35 -3.60294e-36        00000 
 1.61115e-35  3.69380e-36        00000 
-1.75443e-35 -3.46505e-36        00000 
 1.79044e-35  2.93816e-36        00000 
-1.71215e-35 -2.20143e-36        00000 
 1.53404e-35  1.38559e-36        00000 
-1.28776e-35 -6.25688e-37        00000 
 1.01289e-35  2.47119e-38        00000 
-7.46598e-36  3.67795e-37        00000 
 5.15884e-36 -5.56676e-37        00000 
-3.34330e-36  5.85576e-37        00000 
 2.03368e-36 -5.14388e-37        00000 
-1.16242e-36  3.99354e-37        00000 
 6.25530e-37 -2.81450e-37        00000 
-3.18451e-37  1.83722e-37        00000 
 1.56335e-37 -1.14831e-37        00000 
-8.08521e-38  7.51158e-38        00000 
 5.91753e-38 -6.22751e-38        00000 
 1.53309e-37  9.71873e-38        00000 
-2.21066e-37 -1.34596e-37        00000 
 4.65312e-37  2.65129e-37        00000 
-1.01964e-36 -5.45894e-37        00000 
 2.13801e-36  1.07681e-36        00000 
-4.22541e-36 -1.99892e-36        00000 
 7.84455e-36  3.47602e-36        00000 
-1.36620e-35 -5.64948e-36        00000 
 2.23004e-35  8.56530e-36        00000 
-3.40910e-35 -1.20900e-35        00000 
 4.87792e-35  1.58521e-35        00000 
-6.52947e-35 -1.92544e-35        00000 
 8.17309e-35  2.15868e-35        00000 
-9.56322e-35 -2.22244e-35        00000 
 1.04569e-34  2.08464e-35        00000 
-1.06825e-34 -1.75801e-35        00000 
 1.01939e-34  1.29958e-35        00000 
-9.08561e-35 -7.94252e-36        00000 
 7.56298e-35  3.29002e-36        00000 
-5.88014e-35  3.14641e-37        00000 
 4.27096e-35 -2.58327e-36        00000 
-2.89915e-35  3.58174e-36        00000 
 1.84028e-35 -3.61621e-36        00000 
-1.09335e-35  3.07966e-36        00000 
 6.08795e-36 -2.32387e-36        00000 
-3.18382e-36  1.59146e-36        00000 
 1.57139e-36 -1.00739e-36        00000 
-7.45435e-37  6.08139e-37        00000 
 3.71105e-37 -3.83294e-37        00000 
-2.65421e-37  3.11545e-37        00000 
-6.51788e-37 -4.29616e-37        00000 
 9.67999e-37  6.11331e-37        00000 
-2.13164e-36 -1.25740e-36        00000 
 4.85761e-36  2.68860e-36        00000 
-1.05498e-35 -5.48484e-36        00000 
 2.15350e-35  1.05000e-35        00000 
-4.11839e-35 -1.87799e-35        00000 
 7.36803e-35  3.13065e-35        00000 
-1.23184e-34 -4.85407e-35        00000 
 1.92296e-34  6.98512e-35        00000 
-2.80085e-34 -9.30655e-35        00000 
 3.80417e-34  1.14466e-34        00000 
-4.81581e-34 -1.29469e-34        00000 
 5.67988e-34  1.33929e-34        00000 
-6.23907e-34 -1.25634e-34        00000 
 6.38101e-34  1.05331e-34        00000 
-6.07510e-34 -7.67193e-35        00000 
 5.38333e-34  4.53410e-35        00000 
-4.43976e-34 -1.68193e-35        00000 
 3.40810e-34 -4.77651e-36        00000 
-2.43563e-34  1.77970e-35        00000 
 1.62127e-34 -2.29007e-35        00000 
-1.00592e-34  2.22244e-35        00000 
 5.82386e-35 -1.83394e-35        00000 
-3.15140e-35  1.34335e-35        00000 
 1.59774e-35 -8.92517e-36        00000 
-7.62747e-36  5.46852e-36        00000 
 3.48938e-36 -3.18165e-36        00000 
-1.66898e-36  1.92622e-36        00000 
 1.16467e-36 -1.53143e-36        00000 
 2.68912e-36  1.84919e-36        00000 
-4.12554e-36 -2.71100e-36        00000 
 9.53616e-36  5.84055e-36        00000 
-2.26656e-35 -1.30044e-35        00000 
 5.11401e-35  2.75133e-35        00000 
-1.08144e-34 -5.44687e-35        00000 
 2.13652e-34  1.00469e-34        00000 
-3.93695e-34 -1.72217e-34        00000 
 6.75801e-34  2.73698e-34        00000 
-1.07956e-33 -4.02341e-34        00000 
 1.60357e-33  5.45642e-34        00000 
-2.21331e-33 -6.80525e-34        00000 
 2.83706e-33  7.77347e-34        00000 
-3.37564e-33 -8.08480e-34        00000 
 3.72678e-33  7.58610e-34        00000 
-3.81643e-33 -6.32033e-34        00000 
 3.62421e-33  4.52875e-34        00000 
-3.19102e-33 -2.57501e-34        00000 
 2.60481e-33  8.24245e-35        00000 
-1.97148e-33  4.67463e-35        00000 
 1.38388e-33 -1.20796e-34        00000 
-9.01442e-34  1.45562e-34        00000 
 5.45382e-34 -1.35894e-34        00000 
-3.06894e-34  1.08560e-34        00000 
 1.60942e-34 -7.70721e-35        00000 
-7.88892e-35  4.95846e-35        00000 
 3.63375e-35 -2.93454e-35        00000 
-1.59994e-35  1.64153e-35        00000 
 7.34006e-36 -9.51381e-36        00000 
-4.99085e-36  7.37891e-36        00000 
-1.07251e-35 -7.72438e-36        00000 
 1.70516e-35  1.17013e-35        00000 
-4.15168e-35 -2.64917e-35        00000 
 1.03256e-34  6.16051e-35        00000 
-2.42860e-34 -1.35594e-34        00000 
 5.33837e-34  2.78476e-34        00000 
-1.09310e-33 -5.31349e-34        00000 
 2.08097e-33  9.39224e-34        00000 
-3.67779e-33 -1.53401e-33        00000 
 6.02701e-33  2.30895e-33        00000 
-9.14927e-33 -3.19366e-33        00000 
 1.28556e-32  4.04552e-33        00000 
-1.67084e-32 -4.67255e-33        00000 
 2.00757e-32  4.88976e-33        00000 
-2.22891e-32 -4.59048e-33        00000 
 2.28579e-32  3.79879e-33        00000 
-2.16454e-32 -2.67287e-33        00000 
 1.89229e-32  1.45279e-33        00000 
-1.52711e-32 -3.76746e-34        00000 
 1.13776e-32 -3.94108e-34        00000 
-7.82858e-33  8.10154e-34        00000 
 4.97806e-33 -9.19984e-34        00000 
-2.92872e-33  8.26403e-34        00000 
 1.59698e-33 -6.38314e-34        00000 
-8.09135e-34  4.38393e-34        00000 
 3.82316e-34 -2.72497e-34        00000 
-1.69475e-34  1.55393e-34        00000 
 7.16852e-35 -8.33446e-35        00000 
-3.15058e-35  4.60688e-35        00000 
 2.08523e-35 -3.47506e-35        00000 
 4.11704e-35  3.11960e-35        00000 
-6.80632e-35 -4.89825e-35        00000 
 1.75189e-34  1.16932e-34        00000 
-4.57551e-34 -2.84912e-34        00000 
 1.12611e-33  6.54653e-34        00000 
-2.58302e-33 -1.39974e-33        00000 
 5.50231e-33  2.77240e-33        00000 
-1.08603e-32 -5.07019e-33        00000 
 1.98257e-32  8.53617e-33        00000 
-3.34257e-32 -1.31914e-32        00000 
 5.19866e-32  1.86524e-32        00000 
-7.45155e-32 -2.40433e-32        00000 
 9.83577e-32  2.81192e-32        00000 
-1.19479e-31 -2.96355e-32        00000 
 1.33492e-31  2.78442e-32        00000 
-1.37120e-31 -2.28747e-32        00000 
 1.29437e-31  1.57703e-32        00000 
-1.12259e-31 -8.12658e-33        00000 
 8.94420e-32  1.50505e-33        00000 
-6.54736e-32  3.08075e-33        00000 
 4.40533e-32 -5.37989e-33        00000 
-2.72679e-32  5.78171e-33        00000 
 1.55497e-32 -4.99532e-33        00000 
-8.18784e-33  3.72443e-33        00000 
 3.99415e-33 -2.46893e-33        00000 
-1.81339e-33  1.47880e-33        00000 
 7.71640e-34 -8.10228e-34        00000 
-3.13079e-34  4.15372e-34        00000 
 1.31750e-34 -2.18064e-34        00000 
-8.48398e-35  1.59415e-34        00000 
-1.51367e-34 -1.21303e-34        00000 
 2.61115e-34  1.98051e-34        00000 
-7.13109e-34 -5.00231e-34        00000 
 1.96338e-33  1.28151e-33        00000 
-5.07806e-33 -3.08582e-33        00000 
 1.22078e-32  6.89656e-33        00000 
-2.71704e-32 -1.42358e-32        00000 
 5.58287e-32  2.70387e-32        00000 
-1.05671e-31 -4.70913e-32        00000 
 1.83914e-31  7.49523e-32        00000 
-2.93917e-31 -1.08640e-31        00000 
 4.30813e-31  1.42823e-31        00000 
-5.78635e-31 -1.69425e-31        00000 
 7.11597e-31  1.80027e-31        00000 
-8.00737e-31 -1.69347e-31        00000 
 8.24004e-31  1.38028e-31        00000 
-7.75092e-31 -9.29995e-32        00000 
 6.66223e-31  4.49432e-32        00000 
-5.23199e-31 -4.15235e-33        00000 
 3.75448e-31 -2.30103e-32        00000 
-2.46320e-31  3.54215e-32        00000 
 1.47909e-31 -3.61242e-32        00000 
-8.14448e-32  2.99911e-32        00000 
 4.12484e-32 -2.15393e-32        00000 
-1.92983e-32  1.37444e-32        00000 
 8.39102e-33 -7.90804e-33        00000 
-3.41966e-33  4.14883e-33        00000 
 1.32970e-33 -2.02572e-33        00000 
-5.36008e-34  1.00541e-33        00000 
 3.35892e-34 -7.09448e-34        00000 
 5.30136e-34  4.52049e-34        00000 
-9.57532e-34 -7.69915e-34        00000 
 2.78460e-33  2.06438e-33        00000 
-8.11533e-33 -5.58091e-33        00000 
 2.21608e-32  1.41426e-32        00000 
-5.61136e-32 -3.31867e-32        00000 
 1.31138e-31  7.17179e-32        00000 
-2.81861e-31 -1.42096e-31        00000 
 5.55615e-31  2.57070e-31        00000 
-1.00227e-30 -4.23003e-31        00000 
 1.65161e-30  6.30555e-31        00000 
-2.48282e-30 -8.47713e-31        00000 
 3.40104e-30  1.02208e-30        00000 
-4.24134e-30 -1.09641e-30        00000 
 4.81143e-30  1.03308e-30        00000 
-4.96166e-30 -8.34820e-31        00000 
 4.64854e-30  5.47991e-31        00000 
-3.95513e-30 -2.44699e-31        00000 
 3.05547e-30 -6.81151e-33        00000 
-2.14354e-30  1.66732e-31        00000 
 1.36653e-30 -2.31438e-31        00000 
-7.92803e-31  2.24303e-31        00000 
 4.19648e-31 -1.78670e-31        00000 
-2.03488e-31  1.23284e-31        00000 
 9.09271e-32 -7.54801e-32        00000 
-3.77428e-32  4.15629e-32        00000 
 1.47073e-32 -2.07959e-32        00000 
-5.48174e-33  9.63036e-33        00000 
 2.11998e-33 -4.49589e-33        00000 
-1.29390e-33  3.04809e-33        00000 
-1.75841e-33 -1.60653e-33        00000 
 3.33595e-33  2.86297e-33        00000 
-1.03644e-32 -8.17464e-33        00000 
 3.21075e-32  2.34087e-32        00000 
-9.30412e-32 -6.27104e-32        00000 
 2.49527e-31  1.55278e-31        00000 
-6.15827e-31 -3.53126e-31        00000 
 1.39235e-30  7.33601e-31        00000 
-2.87358e-30 -1.38537e-30        00000 
 5.39837e-30  2.36725e-30        00000 
-9.21127e-30 -3.64333e-30        00000 
 1.42513e-29  5.02516e-30        00000 
-1.99655e-29 -6.17335e-30        00000 
 2.52989e-29  6.69640e-30        00000 
-2.89669e-29 -6.32408e-30        00000 
 2.99443e-29  5.06261e-30        00000 
-2.79273e-29 -3.22512e-30        00000 
 2.34862e-29  1.30290e-30        00000 
-1.78053e-29  2.48746e-31        00000 
 1.21709e-29 -1.18230e-30        00000 
-7.50777e-30  1.50136e-30        00000 
 4.18765e-30 -1.38320e-30        00000 
-2.11948e-30  1.05484e-30        00000 
 9.78902e-31 -6.97054e-31        00000 
-4.15976e-31  4.07882e-31        00000 
 1.64409e-31 -2.13996e-31        00000 
-6.12357e-32  1.01627e-31        00000 
 2.19157e-32 -4.44187e-32        00000 
-8.15212e-33  1.93966e-32        00000 
 4.85066e-33 -1.25700e-32        00000 
 5.49000e-33  5.41652e-33        00000 
-1.09682e-32 -1.01270e-32        00000 
 3.65048e-32  3.08742e-32        00000 
-1.20697e-31 -9.39917e-32        00000 
 3.73125e-31  2.67447e-31        00000 
-1.06639e-30 -7.02581e-31        00000 
 2.79759e-30  1.69126e-30        00000 
-6.69759e-30 -3.70595e-30        00000 
 1.45637e-29  7.34769e-30        00000 
-2.86585e-29 -1.31082e-29        00000 
 5.08923e-29  2.09280e-29        00000 
-8.13849e-29 -2.97323e-29        00000 
 1.17003e-28  3.73304e-29        00000 
-1.51014e-28 -4.10293e-29        00000 
 1.74777e-28  3.88673e-29        00000 
-1.81192e-28 -3.07948e-29        00000 
 1.68107e-28  1.89471e-29        00000 
-1.39482e-28 -6.70785e-30        00000 
 1.03461e-28 -2.86490e-30        00000 
-6.86210e-29  8.24847e-30        00000 
 4.07457e-29 -9.67067e-30        00000 
-2.17188e-29  8.46327e-30        00000 
 1.04447e-29 -6.16136e-30        00000 
-4.56859e-30  3.88403e-30        00000 
 1.83891e-30 -2.16193e-30        00000 
-6.91228e-31  1.07490e-30        00000 
 2.46532e-31 -4.81719e-31        00000 
-8.50203e-32  1.97591e-31        00000 
 3.04996e-32 -8.02248e-32        00000 
-1.76915e-32  4.94178e-32        00000 
-1.60349e-32 -1.72337e-32        00000 
 3.37944e-32  3.38741e-32        00000 
-1.20701e-31 -1.10485e-31        00000 
 4.27436e-31  3.58775e-31        00000 
-1.41705e-30 -1.08939e-30        00000 
 4.34410e-30  3.05370e-30        00000 
-1.22042e-29 -7.83167e-30        00000 
 3.11784e-29  1.82259e-29        00000 
-7.19748e-29 -3.81996e-29        00000 
 1.49405e-28  7.16103e-29        00000 
-2.77858e-28 -1.19294e-28        00000 
 4.61705e-28  1.75427e-28        00000 
-6.84037e-28 -2.25971e-28        00000 
 9.02038e-28  2.52291e-28        00000 
-1.05720e-27 -2.39981e-28        00000 
 1.09974e-27  1.87978e-28        00000 
-1.01416e-27 -1.11015e-28        00000 
 8.28316e-28  3.26885e-29        00000 
-5.98867e-28  2.63190e-29        00000 
 3.83383e-28 -5.68096e-29        00000 
-2.17688e-28  6.18331e-29        00000 
 1.10066e-28 -5.13112e-29        00000 
-4.99233e-29  3.55295e-29        00000 
 2.05593e-29 -2.12632e-29        00000 
-7.81792e-30  1.11934e-29        00000 
 2.79942e-30 -5.23938e-30        00000 
-9.60708e-31  2.20034e-30        00000 
 3.20763e-31 -8.41400e-31        00000 
-1.11054e-31  3.15663e-31        00000 
 6.26248e-32 -1.83770e-31        00000 
 4.35534e-32  5.14763e-32        00000 
-9.68881e-32 -1.06504e-31        00000 
 3.71510e-31  3.72009e-31        00000 
-1.41259e-30 -1.29189e-30        00000 
 5.04501e-30  4.20385e-30        00000 
-1.66983e-29 -1.26469e-29        00000 
 5.06470e-29  3.48001e-29        00000 
-1.39322e-28 -8.66895e-29        00000 
 3.44589e-28  1.93633e-28        00000 
-7.61143e-28 -3.84451e-28        00000 
 1.49404e-27  6.73073e-28        00000 
-2.59675e-27 -1.03085e-27        00000 
 3.98574e-27  1.36893e-27        00000 
-5.39092e-27 -1.55764e-27        00000 
 6.41322e-27  1.48978e-27        00000 
-6.69879e-27 -1.15216e-27        00000 
 6.13383e-27  6.47866e-28        00000 
-4.91709e-27 -1.43805e-28        00000 
 3.44825e-27 -2.19088e-28        00000 
-2.11626e-27  3.87049e-28        00000 
 1.13942e-27 -3.92147e-28        00000 
-5.41439e-28  3.07690e-28        00000 
 2.29690e-28 -2.01702e-28        00000 
-8.86073e-29  1.13914e-28        00000 
 3.18529e-29 -5.63031e-29        00000 
-1.09337e-29  2.46078e-29        00000 
 3.63824e-30 -9.60310e-30        00000 
-1.17993e-30  3.39801e-30        00000 
 3.92658e-31 -1.17094e-30        00000 
-2.13789e-31  6.40861e-31        00000 
-1.09415e-31 -1.43642e-31        00000 
 2.56727e-31  3.12909e-31        00000 
-1.05555e-30 -1.17022e-30        00000 
 4.31287e-30  4.35250e-30        00000 
-1.66456e-29 -1.52286e-29        00000 
 5.98288e-29  4.94293e-29        00000 
-1.97557e-28 -1.46989e-28        00000 
 5.91201e-28  3.95380e-28        00000 
-1.58406e-27 -9.50207e-28        00000 
 3.76371e-27  2.01742e-27        00000 
-7.87462e-27 -3.74546e-27        00000 
 1.44375e-26  6.02149e-27        00000 
-2.31146e-26 -8.29535e-27        00000 
 3.22269e-26  9.66110e-27        00000 
-3.90341e-26 -9.30839e-27        00000 
 4.09795e-26  7.09616e-27        00000 
-3.72081e-26 -3.75764e-27        00000 