<?xml version="1.0" encoding="utf-8"?>
<VTKFile byte_order="LittleEndian" type="UnstructuredGrid" version="0.1">
   <UnstructuredGrid>
      <Piece NumberOfCells="3364" NumberOfPoints="1741">
         <Points>
            <DataArray Name="Points" NumberOfComponents="3" format="ascii" type="Float32">
0.0000 1.0000 0.0000
0.0000 1.0345 0.0000
0.0000 1.0690 0.0000
0.0000 1.1034 0.0000
0.0000 1.1379 0.0000
0.0000 1.1724 0.0000
0.0000 1.2069 0.0000
0.0000 1.2414 0.0000
0.0000 1.2759 0.0000
0.0000 1.3103 0.0000
0.0000 1.3448 0.0000
0.0000 1.3793 0.0000
0.0000 1.4138 0.0000
0.0000 1.4483 0.0000
0.0000 1.4828 0.0000
0.0000 1.5172 0.0000
0.0000 1.5517 0.0000
0.0000 1.5862 0.0000
0.0000 1.6207 0.0000
0.0000 1.6552 0.0000
0.0000 1.6897 0.0000
0.0000 1.7241 0.0000
0.0000 1.7586 0.0000
0.0000 1.7931 0.0000
0.0000 1.8276 0.0000
0.0000 1.8621 0.0000
0.0000 1.8966 0.0000
0.0000 1.9310 0.0000
0.0000 1.9655 0.0000
0.0000 2.0000 0.0000
0.0690 1.0000 0.0000
0.0690 1.0345 0.0000
0.0690 1.0690 0.0000
0.0690 1.1034 0.0000
0.0690 1.1379 0.0000
0.0690 1.1724 0.0000
0.0690 1.2069 0.0000
0.0690 1.2414 0.0000
0.0690 1.2759 0.0000
0.0690 1.3103 0.0000
0.0690 1.3448 0.0000
0.0690 1.3793 0.0000
0.0690 1.4138 0.0000
0.0690 1.4483 0.0000
0.0690 1.4828 0.0000
0.0690 1.5172 0.0000
0.0690 1.5517 0.0000
0.0690 1.5862 0.0000
0.0690 1.6207 0.0000
0.0690 1.6552 0.0000
0.0690 1.6897 0.0000
0.0690 1.7241 0.0000
0.0690 1.7586 0.0000
0.0690 1.7931 0.0000
0.0690 1.8276 0.0000
0.0690 1.8621 0.0000
0.0690 1.8966 0.0000
0.0690 1.9310 0.0000
0.0690 1.9655 0.0000
0.0690 2.0000 0.0000
0.1379 1.0000 0.0000
0.1379 1.0345 0.0000
0.1379 1.0690 0.0000
0.1379 1.1034 0.0000
0.1379 1.1379 0.0000
0.1379 1.1724 0.0000
0.1379 1.2069 0.0000
0.1379 1.2414 0.0000
0.1379 1.2759 0.0000
0.1379 1.3103 0.0000
0.1379 1.3448 0.0000
0.1379 1.3793 0.0000
0.1379 1.4138 0.0000
0.1379 1.4483 0.0000
0.1379 1.4828 0.0000
0.1379 1.5172 0.0000
0.1379 1.5517 0.0000
0.1379 1.5862 0.0000
0.1379 1.6207 0.0000
0.1379 1.6552 0.0000
0.1379 1.6897 0.0000
0.1379 1.7241 0.0000
0.1379 1.7586 0.0000
0.1379 1.7931 0.0000
0.1379 1.8276 0.0000
0.1379 1.8621 0.0000
0.1379 1.8966 0.0000
0.1379 1.9310 0.0000
0.1379 1.9655 0.0000
0.1379 2.0000 0.0000
0.2069 1.0000 0.0000
0.2069 1.0345 0.0000
0.2069 1.0690 0.0000
0.2069 1.1034 0.0000
0.2069 1.1379 0.0000
0.2069 1.1724 0.0000
0.2069 1.2069 0.0000
0.2069 1.2414 0.0000
0.2069 1.2759 0.0000
0.2069 1.3103 0.0000
0.2069 1.3448 0.0000
0.2069 1.3793 0.0000
0.2069 1.4138 0.0000
0.2069 1.4483 0.0000
0.2069 1.4828 0.0000
0.2069 1.5172 0.0000
0.2069 1.5517 0.0000
0.2069 1.5862 0.0000
0.2069 1.6207 0.0000
0.2069 1.6552 0.0000
0.2069 1.6897 0.0000
0.2069 1.7241 0.0000
0.2069 1.7586 0.0000
0.2069 1.7931 0.0000
0.2069 1.8276 0.0000
0.2069 1.8621 0.0000
0.2069 1.8966 0.0000
0.2069 1.9310 0.0000
0.2069 1.9655 0.0000
0.2069 2.0000 0.0000
0.2759 1.0000 0.0000
0.2759 1.0345 0.0000
0.2759 1.0690 0.0000
0.2759 1.1034 0.0000
0.2759 1.1379 0.0000
0.2759 1.1724 0.0000
0.2759 1.2069 0.0000
0.2759 1.2414 0.0000
0.2759 1.2759 0.0000
0.2759 1.3103 0.0000
0.2759 1.3448 0.0000
0.2759 1.3793 0.0000
0.2759 1.4138 0.0000
0.2759 1.4483 0.0000
0.2759 1.4828 0.0000
0.2759 1.5172 0.0000
0.2759 1.5517 0.0000
0.2759 1.5862 0.0000
0.2759 1.6207 0.0000
0.2759 1.6552 0.0000
0.2759 1.6897 0.0000
0.2759 1.7241 0.0000
0.2759 1.7586 0.0000
0.2759 1.7931 0.0000
0.2759 1.8276 0.0000
0.2759 1.8621 0.0000
0.2759 1.8966 0.0000
0.2759 1.9310 0.0000
0.2759 1.9655 0.0000
0.2759 2.0000 0.0000
0.3448 1.0000 0.0000
0.3448 1.0345 0.0000
0.3448 1.0690 0.0000
0.3448 1.1034 0.0000
0.3448 1.1379 0.0000
0.3448 1.1724 0.0000
0.3448 1.2069 0.0000
0.3448 1.2414 0.0000
0.3448 1.2759 0.0000
0.3448 1.3103 0.0000
0.3448 1.3448 0.0000
0.3448 1.3793 0.0000
0.3448 1.4138 0.0000
0.3448 1.4483 0.0000
0.3448 1.4828 0.0000
0.3448 1.5172 0.0000
0.3448 1.5517 0.0000
0.3448 1.5862 0.0000
0.3448 1.6207 0.0000
0.3448 1.6552 0.0000
0.3448 1.6897 0.0000
0.3448 1.7241 0.0000
0.3448 1.7586 0.0000
0.3448 1.7931 0.0000
0.3448 1.8276 0.0000
0.3448 1.8621 0.0000
0.3448 1.8966 0.0000
0.3448 1.9310 0.0000
0.3448 1.9655 0.0000
0.3448 2.0000 0.0000
0.4138 1.0000 0.0000
0.4138 1.0345 0.0000
0.4138 1.0690 0.0000
0.4138 1.1034 0.0000
0.4138 1.1379 0.0000
0.4138 1.1724 0.0000
0.4138 1.2069 0.0000
0.4138 1.2414 0.0000
0.4138 1.2759 0.0000
0.4138 1.3103 0.0000
0.4138 1.3448 0.0000
0.4138 1.3793 0.0000
0.4138 1.4138 0.0000
0.4138 1.4483 0.0000
0.4138 1.4828 0.0000
0.4138 1.5172 0.0000
0.4138 1.5517 0.0000
0.4138 1.5862 0.0000
0.4138 1.6207 0.0000
0.4138 1.6552 0.0000
0.4138 1.6897 0.0000
0.4138 1.7241 0.0000
0.4138 1.7586 0.0000
0.4138 1.7931 0.0000
0.4138 1.8276 0.0000
0.4138 1.8621 0.0000
0.4138 1.8966 0.0000
0.4138 1.9310 0.0000
0.4138 1.9655 0.0000
0.4138 2.0000 0.0000
0.4828 1.0000 0.0000
0.4828 1.0345 0.0000
0.4828 1.0690 0.0000
0.4828 1.1034 0.0000
0.4828 1.1379 0.0000
0.4828 1.1724 0.0000
0.4828 1.2069 0.0000
0.4828 1.2414 0.0000
0.4828 1.2759 0.0000
0.4828 1.3103 0.0000
0.4828 1.3448 0.0000
0.4828 1.3793 0.0000
0.4828 1.4138 0.0000
0.4828 1.4483 0.0000
0.4828 1.4828 0.0000
0.4828 1.5172 0.0000
0.4828 1.5517 0.0000
0.4828 1.5862 0.0000
0.4828 1.6207 0.0000
0.4828 1.6552 0.0000
0.4828 1.6897 0.0000
0.4828 1.7241 0.0000
0.4828 1.7586 0.0000
0.4828 1.7931 0.0000
0.4828 1.8276 0.0000
0.4828 1.8621 0.0000
0.4828 1.8966 0.0000
0.4828 1.9310 0.0000
0.4828 1.9655 0.0000
0.4828 2.0000 0.0000
0.5517 1.0000 0.0000
0.5517 1.0345 0.0000
0.5517 1.0690 0.0000
0.5517 1.1034 0.0000
0.5517 1.1379 0.0000
0.5517 1.1724 0.0000
0.5517 1.2069 0.0000
0.5517 1.2414 0.0000
0.5517 1.2759 0.0000
0.5517 1.3103 0.0000
0.5517 1.3448 0.0000
0.5517 1.3793 0.0000
0.5517 1.4138 0.0000
0.5517 1.4483 0.0000
0.5517 1.4828 0.0000
0.5517 1.5172 0.0000
0.5517 1.5517 0.0000
0.5517 1.5862 0.0000
0.5517 1.6207 0.0000
0.5517 1.6552 0.0000
0.5517 1.6897 0.0000
0.5517 1.7241 0.0000
0.5517 1.7586 0.0000
0.5517 1.7931 0.0000
0.5517 1.8276 0.0000
0.5517 1.8621 0.0000
0.5517 1.8966 0.0000
0.5517 1.9310 0.0000
0.5517 1.9655 0.0000
0.5517 2.0000 0.0000
0.6207 1.0000 0.0000
0.6207 1.0345 0.0000
0.6207 1.0690 0.0000
0.6207 1.1034 0.0000
0.6207 1.1379 0.0000
0.6207 1.1724 0.0000
0.6207 1.2069 0.0000
0.6207 1.2414 0.0000
0.6207 1.2759 0.0000
0.6207 1.3103 0.0000
0.6207 1.3448 0.0000
0.6207 1.3793 0.0000
0.6207 1.4138 0.0000
0.6207 1.4483 0.0000
0.6207 1.4828 0.0000
0.6207 1.5172 0.0000
0.6207 1.5517 0.0000
0.6207 1.5862 0.0000
0.6207 1.6207 0.0000
0.6207 1.6552 0.0000
0.6207 1.6897 0.0000
0.6207 1.7241 0.0000
0.6207 1.7586 0.0000
0.6207 1.7931 0.0000
0.6207 1.8276 0.0000
0.6207 1.8621 0.0000
0.6207 1.8966 0.0000
0.6207 1.9310 0.0000
0.6207 1.9655 0.0000
0.6207 2.0000 0.0000
0.6897 1.0000 0.0000
0.6897 1.0345 0.0000
0.6897 1.0690 0.0000
0.6897 1.1034 0.0000
0.6897 1.1379 0.0000
0.6897 1.1724 0.0000
0.6897 1.2069 0.0000
0.6897 1.2414 0.0000
0.6897 1.2759 0.0000
0.6897 1.3103 0.0000
0.6897 1.3448 0.0000
0.6897 1.3793 0.0000
0.6897 1.4138 0.0000
0.6897 1.4483 0.0000
0.6897 1.4828 0.0000
0.6897 1.5172 0.0000
0.6897 1.5517 0.0000
0.6897 1.5862 0.0000
0.6897 1.6207 0.0000
0.6897 1.6552 0.0000
0.6897 1.6897 0.0000
0.6897 1.7241 0.0000
0.6897 1.7586 0.0000
0.6897 1.7931 0.0000
0.6897 1.8276 0.0000
0.6897 1.8621 0.0000
0.6897 1.8966 0.0000
0.6897 1.9310 0.0000
0.6897 1.9655 0.0000
0.6897 2.0000 0.0000
0.7586 1.0000 0.0000
0.7586 1.0345 0.0000
0.7586 1.0690 0.0000
0.7586 1.1034 0.0000
0.7586 1.1379 0.0000
0.7586 1.1724 0.0000
0.7586 1.2069 0.0000
0.7586 1.2414 0.0000
0.7586 1.2759 0.0000
0.7586 1.3103 0.0000
0.7586 1.3448 0.0000
0.7586 1.3793 0.0000
0.7586 1.4138 0.0000
0.7586 1.4483 0.0000
0.7586 1.4828 0.0000
0.7586 1.5172 0.0000
0.7586 1.5517 0.0000
0.7586 1.5862 0.0000
0.7586 1.6207 0.0000
0.7586 1.6552 0.0000
0.7586 1.6897 0.0000
0.7586 1.7241 0.0000
0.7586 1.7586 0.0000
0.7586 1.7931 0.0000
0.7586 1.8276 0.0000
0.7586 1.8621 0.0000
0.7586 1.8966 0.0000
0.7586 1.9310 0.0000
0.7586 1.9655 0.0000
0.7586 2.0000 0.0000
0.8276 1.0000 0.0000
0.8276 1.0345 0.0000
0.8276 1.0690 0.0000
0.8276 1.1034 0.0000
0.8276 1.1379 0.0000
0.8276 1.1724 0.0000
0.8276 1.2069 0.0000
0.8276 1.2414 0.0000
0.8276 1.2759 0.0000
0.8276 1.3103 0.0000
0.8276 1.3448 0.0000
0.8276 1.3793 0.0000
0.8276 1.4138 0.0000
0.8276 1.4483 0.0000
0.8276 1.4828 0.0000
0.8276 1.5172 0.0000
0.8276 1.5517 0.0000
0.8276 1.5862 0.0000
0.8276 1.6207 0.0000
0.8276 1.6552 0.0000
0.8276 1.6897 0.0000
0.8276 1.7241 0.0000
0.8276 1.7586 0.0000
0.8276 1.7931 0.0000
0.8276 1.8276 0.0000
0.8276 1.8621 0.0000
0.8276 1.8966 0.0000
0.8276 1.9310 0.0000
0.8276 1.9655 0.0000
0.8276 2.0000 0.0000
0.8966 1.0000 0.0000
0.8966 1.0345 0.0000
0.8966 1.0690 0.0000
0.8966 1.1034 0.0000
0.8966 1.1379 0.0000
0.8966 1.1724 0.0000
0.8966 1.2069 0.0000
0.8966 1.2414 0.0000
0.8966 1.2759 0.0000
0.8966 1.3103 0.0000
0.8966 1.3448 0.0000
0.8966 1.3793 0.0000
0.8966 1.4138 0.0000
0.8966 1.4483 0.0000
0.8966 1.4828 0.0000
0.8966 1.5172 0.0000
0.8966 1.5517 0.0000
0.8966 1.5862 0.0000
0.8966 1.6207 0.0000
0.8966 1.6552 0.0000
0.8966 1.6897 0.0000
0.8966 1.7241 0.0000
0.8966 1.7586 0.0000
0.8966 1.7931 0.0000
0.8966 1.8276 0.0000
0.8966 1.8621 0.0000
0.8966 1.8966 0.0000
0.8966 1.9310 0.0000
0.8966 1.9655 0.0000
0.8966 2.0000 0.0000
0.9655 1.0000 0.0000
0.9655 1.0345 0.0000
0.9655 1.0690 0.0000
0.9655 1.1034 0.0000
0.9655 1.1379 0.0000
0.9655 1.1724 0.0000
0.9655 1.2069 0.0000
0.9655 1.2414 0.0000
0.9655 1.2759 0.0000
0.9655 1.3103 0.0000
0.9655 1.3448 0.0000
0.9655 1.3793 0.0000
0.9655 1.4138 0.0000
0.9655 1.4483 0.0000
0.9655 1.4828 0.0000
0.9655 1.5172 0.0000
0.9655 1.5517 0.0000
0.9655 1.5862 0.0000
0.9655 1.6207 0.0000
0.9655 1.6552 0.0000
0.9655 1.6897 0.0000
0.9655 1.7241 0.0000
0.9655 1.7586 0.0000
0.9655 1.7931 0.0000
0.9655 1.8276 0.0000
0.9655 1.8621 0.0000
0.9655 1.8966 0.0000
0.9655 1.9310 0.0000
0.9655 1.9655 0.0000
0.9655 2.0000 0.0000
1.0345 1.0000 0.0000
1.0345 1.0345 0.0000
1.0345 1.0690 0.0000
1.0345 1.1034 0.0000
1.0345 1.1379 0.0000
1.0345 1.1724 0.0000
1.0345 1.2069 0.0000
1.0345 1.2414 0.0000
1.0345 1.2759 0.0000
1.0345 1.3103 0.0000
1.0345 1.3448 0.0000
[...]
         <PointData>
            <DataArray Name="fValues" NumberOfComponents="3" format="ascii" type="Float64">
 5.90752e-43  7.43075e-43        00000 
-9.53330e-43 -1.17745e-42        00000 
 2.40815e-42  2.88980e-42        00000 
-6.33433e-42 -7.38905e-42        00000 
 1.60791e-41  1.82341e-41        00000 
-3.89550e-41 -4.29594e-41        00000 
 8.98319e-41  9.64175e-41        00000 
-1.96897e-40 -2.05932e-40        00000 
 4.09758e-40  4.18226e-40        00000 
-8.08995e-40 -8.07094e-40        00000 
 1.51435e-39  1.47914e-39        00000 
-2.68641e-39 -2.57310e-39        00000 
 4.51490e-39  4.24701e-39        00000 
-7.18732e-39 -6.64881e-39        00000 
 1.08363e-38  9.86996e-39        00000 
-1.54731e-38 -1.38899e-38        00000 
 2.09251e-38  1.85275e-38        00000 
-2.68035e-38 -2.34213e-38        00000 
 3.25245e-38  2.80570e-38        00000 
-3.73946e-38 -3.18487e-38        00000 
 4.07485e-38  3.42594e-38        00000 
-4.21026e-38 -3.49286e-38        00000 
 4.12796e-38  3.37674e-38        00000 
-3.84617e-38 -3.09891e-38        00000 
 3.41589e-38  2.70661e-38        00000 
-2.91039e-38 -2.26310e-38        00000 
 2.41108e-38  1.83548e-38        00000 
-1.99372e-38 -1.48385e-38        00000 
 1.71813e-38  1.25410e-38        00000 
-1.62200e-38 -1.17437e-38        00000 
-1.19972e-42 -1.53330e-42        00000 
 1.98221e-42  2.49077e-42        00000 
-5.18358e-42 -6.33658e-42        00000 
 1.40771e-41  1.67267e-41        00000 
-3.68554e-41 -4.25328e-41        00000 
 9.20306e-41  1.03137e-40        00000 
-2.18542e-40 -2.37974e-40        00000 
 4.92679e-40  5.21869e-40        00000 
-1.05306e-39 -1.08669e-39        00000 
 2.13192e-39  2.14690e-39        00000 
-4.08492e-39 -4.02147e-39        00000 
 7.40372e-39  7.13798e-39        00000 
-1.26881e-38 -1.19998e-38        00000 
 2.05549e-38  1.90987e-38        00000 
-3.14733e-38 -2.87691e-38        00000 
 4.55462e-38  4.10037e-38        00000 
-6.22957e-38 -5.52845e-38        00000 
 8.05370e-38  7.05013e-38        00000 
-9.84299e-38 -8.50268e-38        00000 
 1.13748e-37  9.69737e-38        00000 
-1.24326e-37 -1.04592e-37        00000 
 1.28581e-37  1.06697e-37        00000 
-1.25920e-37 -1.02988e-37        00000 
 1.16928e-37  9.41532e-38        00000 
-1.03249e-37 -8.17189e-38        00000 
 8.72336e-38  6.77143e-38        00000 
-7.14698e-38 -5.42661e-38        00000 
 5.83364e-38  4.32508e-38        00000 
-4.96861e-38 -3.60754e-38        00000 
 4.66729e-38  3.35898e-38        00000 
 4.17595e-42  5.43655e-42        00000 
-7.11169e-42 -9.12764e-42        00000 
 1.94303e-41  2.43222e-41        00000 
-5.49455e-41 -6.68710e-41        00000 
 1.49605e-40  1.76643e-40        00000 
-3.88135e-40 -4.44216e-40        00000 
 9.56366e-40  1.06117e-39        00000 
-2.23339e-39 -2.40497e-39        00000 
 4.93528e-39  5.16540e-39        00000 
-1.03072e-38 -1.05045e-38        00000 
 2.03260e-38  2.02109e-38        00000 
-3.78232e-38 -3.67667e-38        00000 
 6.63834e-38  6.32044e-38        00000 
-1.09857e-37 -1.02629e-37        00000 
 1.71392e-37  1.57350e-37        00000 
-2.52075e-37 -2.27723e-37        00000 
 3.49507e-37  3.11024e-37        00000 
-4.56896e-37 -4.00819e-37        00000 
 5.63228e-37  4.87324e-37        00000 
-6.54870e-37 -5.58948e-37        00000 
 7.18388e-37  6.04792e-37        00000 
-7.43842e-37 -6.17406e-37        00000 
 7.27471e-37  5.94858e-37        00000 
-6.72848e-37 -5.41389e-37        00000 
 5.90116e-37  4.66428e-37        00000 
-4.93673e-37 -3.82398e-37        00000 
 3.99164e-37  3.02124e-37        00000 
-3.20751e-37 -2.36698e-37        00000 
 2.69273e-37  1.94247e-37        00000 
-2.51374e-37 -1.79574e-37        00000 
-1.49225e-41 -1.96820e-41        00000 
 2.61355e-41  3.41503e-41        00000 
-7.43737e-41 -9.52223e-41        00000 
 2.18624e-40  2.72539e-40        00000 
-6.18589e-40 -7.47833e-40        00000 
 1.66715e-39  1.95071e-39        00000 
-4.26348e-39 -4.82640e-39        00000 
 1.03193e-38  1.13100e-38        00000 
-2.35925e-38 -2.50712e-38        00000 
 5.08718e-38  5.25177e-38        00000 
-1.03341e-37 -1.03864e-37        00000 
 1.97608e-37  1.93788e-37        00000 
-3.55493e-37 -3.40898e-37        00000 
 6.01445e-37  5.65111e-37        00000 
-9.56784e-37 -8.82420e-37        00000 
 1.43106e-36  1.29750e-36        00000 
-2.01253e-36 -1.79603e-36        00000 
 2.66147e-36  2.33996e-36        00000 
-3.31035e-36 -2.86899e-36        00000 
 3.87355e-36  3.31008e-36        00000 
-4.26543e-36 -3.59358e-36        00000 
 4.42205e-36  3.67138e-36        00000 
-4.31891e-36 -3.53077e-36        00000 
 3.97859e-36  3.19871e-36        00000 
-3.46545e-36 -2.73512e-36        00000 
 2.87006e-36  2.21816e-36        00000 
-2.28952e-36 -1.72718e-36        00000 
 1.81012e-36  1.32926e-36        00000 
-1.49657e-36 -1.07225e-36        00000 
 1.38776e-36  9.83632e-37        00000 
 5.19308e-41  6.88922e-41        00000 
-9.34258e-41 -1.23791e-40        00000 
 2.76589e-40  3.61911e-40        00000 
-8.45424e-40 -1.08059e-39        00000 
 2.48918e-39  3.08720e-39        00000 
-6.98287e-39 -8.37346e-39        00000 
 1.85789e-38  2.15109e-38        00000 
-4.67297e-38 -5.22509e-38        00000 
 1.10832e-37  1.19835e-37        00000 
-2.47402e-37 -2.59177e-37        00000 
 5.19032e-37  5.28051e-37        00000 
-1.02234e-36 -1.01261e-36        00000 
 1.88930e-36  1.82634e-36        00000 
-3.27432e-36 -3.09626e-36        00000 
 5.32047e-36  4.93179e-36        00000 
-8.10497e-36 -7.37765e-36        00000 
 1.15756e-35  1.03621e-35        00000 
-1.55018e-35 -1.36614e-35        00000 
 1.94697e-35  1.69039e-35        00000 
-2.29403e-35 -1.96281e-35        00000 
 2.53659e-35  2.13871e-35        00000 
-2.63333e-35 -2.18691e-35        00000 
 2.56827e-35  2.09903e-35        00000 
-2.35580e-35 -1.89233e-35        00000 
 2.03699e-35  1.60511e-35        00000 
-1.66907e-35 -1.28675e-35        00000 
 1.31240e-35  9.86436e-36        00000 
-1.01949e-35 -7.44656e-36        00000 
 8.28757e-36  5.89324e-36        00000 
-7.62735e-36 -5.35930e-36        00000 
-1.75509e-40 -2.31393e-40        00000 
 3.23612e-40  4.31683e-40        00000 
-9.94582e-40 -1.32658e-39        00000 
 3.16051e-39  4.14277e-39        00000 
-9.69453e-39 -1.23580e-38        00000 
 2.83678e-38  3.49557e-38        00000 
-7.87377e-38 -9.35158e-38        00000 
 2.06427e-37  2.36156e-37        00000 
-5.09525e-37 -5.61986e-37        00000 
 1.18117e-36  1.25843e-36        00000 
-2.56698e-36 -2.64837e-36        00000 
 5.22312e-36  5.23265e-36        00000 
-9.94153e-36 -9.69826e-36        00000 
 1.76909e-35  1.68498e-35        00000 
-2.94230e-35 -2.74276e-35        00000 
 4.57317e-35  4.18100e-35        00000 
-6.64292e-35 -5.96655e-35        00000 
 9.01944e-35  7.96902e-35        00000 
-1.14495e-34 -9.95958e-35        00000 
 1.35929e-34  1.16460e-34        00000 
-1.50983e-34 -1.27406e-34        00000 
 1.56977e-34  1.30403e-34        00000 
-1.52868e-34 -1.24900e-34        00000 
 1.39580e-34  1.12008e-34        00000 
-1.19749e-34 -9.41896e-35        00000 
 9.70030e-35  7.45756e-35        00000 
-7.51018e-35 -5.62197e-35        00000 
 5.72337e-35  4.15570e-35        00000 
-4.56591e-35 -3.21969e-35        00000 
 4.16644e-35  2.89910e-35        00000 
 5.77512e-40  7.42135e-40        00000 
-1.08703e-39 -1.44132e-39        00000 
 3.45401e-39  4.66802e-39        00000 
-1.13930e-38 -1.52899e-38        00000 
 3.64195e-38  4.77701e-38        00000 
-1.11351e-37 -1.41369e-37        00000 
 3.23279e-37  3.95158e-37        00000 
-8.86287e-37 -1.04089e-36        00000 
 2.28470e-36  2.57859e-36        00000 
-5.52002e-36 -5.99726e-36        00000 
 1.24704e-35  1.30761e-35        00000 
-2.62982e-35 -2.66948e-35        00000 
 5.17106e-35  5.09757e-35        00000 
-9.47402e-35 -9.09785e-35        00000 
 1.61666e-34  1.51660e-34        00000 
-2.56905e-34 -2.36016e-34        00000 
 3.80200e-34  3.42750e-34        00000 
-5.24102e-34 -4.64353e-34        00000 
 6.73143e-34  5.86757e-34        00000 
-8.05833e-34 -6.91419e-34        00000 
 8.99533e-34  7.59741e-34        00000 
-9.36803e-34 -7.78459e-34        00000 
 9.10803e-34  7.43909e-34        00000 
-8.27528e-34 -6.63321e-34        00000 
 7.03988e-34  5.52607e-34        00000 
-5.63303e-34 -4.31712e-34        00000 
 4.28913e-34  3.19616e-34        00000 
-3.20115e-34 -2.30900e-34        00000 
 2.50078e-34  1.74697e-34        00000 
-2.25991e-34 -1.55530e-34        00000 
-1.85968e-39 -2.26070e-39        00000 
 3.55231e-39  4.58348e-39        00000 
-1.15923e-38 -1.56875e-38        00000 
 3.95423e-38  5.40560e-38        00000 
-1.31569e-37 -1.77472e-37        00000 
 4.20660e-37  5.51430e-37        00000 
-1.28039e-36 -1.61637e-36        00000 
 3.68282e-36  4.45759e-36        00000 
-9.95292e-36 -1.15380e-35        00000 
 2.51637e-35  2.79721e-35        00000 
-5.93311e-35 -6.34046e-35        00000 
 1.30172e-34  1.34177e-34        00000 
-2.65357e-34 -2.64779e-34        00000 
 5.02137e-34  4.86760e-34        00000 
-8.81594e-34 -8.33001e-34        00000 
 1.43577e-33  1.32622e-33        00000 
-2.16916e-33 -1.96348e-33        00000 
 3.04072e-33  2.70226e-33        00000 
-3.95627e-33 -3.45624e-33        00000 
 4.77976e-33  4.10755e-33        00000 
-5.36483e-33 -4.53547e-33        00000 
 5.59737e-33  4.65283e-33        00000 
-5.43244e-33 -4.43531e-33        00000 
 4.90928e-33  3.93023e-33        00000 
-4.13842e-33 -3.24110e-33        00000 
 3.26780e-33  2.49555e-33        00000 
-2.44382e-33 -1.81173e-33        00000 
 1.78284e-33  1.27644e-33        00000 
-1.36051e-33 -9.40417e-34        00000 
 1.21588e-33  8.26427e-34        00000 
 5.90406e-39  6.50064e-39        00000 
-1.13623e-38 -1.37988e-38        00000 
 3.77266e-38  5.00499e-38        00000 
-1.32191e-37 -1.82006e-37        00000 
 4.56093e-37  6.30168e-37        00000 
-1.52357e-36 -2.06370e-36        00000 
 4.86892e-36  6.36913e-36        00000 
-1.47383e-35 -1.84657e-35        00000 
 4.19263e-35  5.01478e-35        00000 
-1.11422e-34 -1.27247e-34        00000 
 2.75448e-34  3.01042e-34        00000 
-6.31523e-34 -6.62852e-34        00000 
 1.34016e-33  1.35641e-33        00000 
-2.62909e-33 -2.57663e-33        00000 
 4.76474e-33  4.53947e-33        00000 
-7.97526e-33 -7.41219e-33        00000 
 1.23292e-32  1.12109e-32        00000 
-1.76084e-32 -1.57006e-32        00000 
 2.32417e-32  2.03534e-32        00000 
-2.83665e-32 -2.44184e-32        00000 
 3.20321e-32  2.71085e-32        00000 
-3.34885e-32 -2.78476e-32        00000 
 3.24389e-32  2.64734e-32        00000 
-2.91429e-32 -2.32984e-32        00000 
 2.43236e-32  1.90002e-32        00000 
-1.89326e-32 -1.44000e-32        00000 
 1.38856e-32  1.02339e-32        00000 
-9.88070e-33 -7.01490e-33        00000 
 7.34465e-33  5.01629e-33        00000 
-6.48061e-33 -4.34263e-33        00000 
-1.86343e-38 -1.75182e-38        00000 
 3.58860e-38  3.90490e-38        00000 
-1.19920e-37 -1.50533e-37        00000 
 4.27233e-37  5.79656e-37        00000 
-1.51707e-36 -2.12462e-36        00000 
 5.27438e-36  7.36395e-36        00000 
-1.76908e-35 -2.40357e-35        00000 
 5.64858e-35  7.35998e-35        00000 
-1.69821e-34 -2.10700e-34        00000 
 4.76735e-34  5.62207e-34        00000 
-1.24217e-33 -1.39455e-33        00000 
 2.99157e-33  3.20872e-33        00000 
-6.64109e-33 -6.83643e-33        00000 
 1.35665e-32  1.34685e-32        00000 
-2.54793e-32 -2.45091e-32        00000 
 4.39779e-32  4.11617e-32        00000 
-6.97619e-32 -6.37589e-32        00000 
 1.01734e-31  9.10460e-32        00000 
-1.36455e-31 -1.19813e-31        00000 
 1.68442e-31  1.45264e-31        00000 
-1.91495e-31 -1.62244e-31        00000 
 2.00651e-31  1.66921e-31        00000 
-1.93946e-31 -1.58206e-31        00000 
 1.73112e-31  1.38178e-31        00000 
-1.42917e-31 -1.11309e-31        00000 
 1.09512e-31  8.29068e-32        00000 
-7.86355e-32 -5.75655e-32        00000 
 5.44485e-32  3.82862e-32        00000 
-3.92966e-32 -2.64740e-32        00000 
 3.41662e-32  2.25234e-32        00000 
 5.88375e-38  4.38629e-38        00000 
-1.13004e-37 -1.02995e-37        00000 
 3.76499e-37  4.23270e-37        00000 
-1.34651e-36 -1.73208e-36        00000 
 4.86085e-36  6.74840e-36        00000 
-1.74385e-35 -2.48673e-35        00000 
 6.11570e-35  8.62600e-35        00000 
-2.06070e-34 -2.80418e-34        00000 
 6.57012e-34  8.50776e-34        00000 
-1.95843e-33 -2.40002e-33        00000 
 5.41050e-33  6.27481e-33        00000 
-1.37710e-32 -1.51637e-32        00000 
 3.21664e-32  3.37971e-32        00000 
-6.87895e-32 -6.93555e-32        00000 
 1.34513e-31  1.30869e-31        00000 
-2.40381e-31 -2.26834e-31        00000 
 3.92578e-31  3.60882e-31        00000 
-5.86130e-31 -5.26701e-31        00000 
 8.00497e-31  7.04896e-31        00000 
-1.00080e-30 -8.64812e-31        00000 
 1.14637e-30  9.72473e-31        00000 
-1.20419e-30 -1.00222e-30        00000 
 1.16115e-30  9.46696e-31        00000 
-1.02896e-30 -8.19863e-31        00000 
 8.39295e-31  6.51458e-31        00000 
-6.32156e-31 -4.75997e-31        00000 
 4.43544e-31  3.22156e-31        00000 
-2.98044e-31 -2.07257e-31        00000 
 2.08071e-31  1.37984e-31        00000 
-1.77838e-31 -1.15037e-31        00000 
-1.86009e-37 -1.00963e-37        00000 
 3.57188e-37  2.50562e-37        00000 
-1.18273e-36 -1.10135e-36        00000 
 4.19734e-36  4.80835e-36        00000 
-1.51587e-35 -2.00025e-35        00000 
 5.52832e-35  7.87502e-35        00000 
-2.00760e-34 -2.91877e-34        00000 
 7.11434e-34  1.01317e-33        00000 
-2.40951e-33 -3.27749e-33        00000 
 7.66401e-33  9.83551e-33        00000 
-2.25981e-32 -2.72711e-32        00000 
 6.12223e-32  6.96295e-32        00000 
-1.51525e-31 -1.63260e-31        00000 
 3.41427e-31  3.50780e-31        00000 
-6.99115e-31 -6.89522e-31        00000 
 1.29987e-30  1.23848e-30        00000 
-2.19444e-30 -2.03077e-30        00000 
 3.36518e-30  3.03788e-30        00000 
-4.69101e-30 -4.14387e-30        00000 
 5.94978e-30  5.15249e-30        00000 
-6.87328e-30 -5.83857e-30        00000 
 7.24007e-30  6.02888e-30        00000 
-6.96220e-30 -5.67325e-30        00000 
 6.11975e-30  4.86643e-30        00000 
-4.92508e-30 -3.80786e-30        00000 
 3.63968e-30  2.72325e-30        00000 
-2.48967e-30 -1.79163e-30        00000 
 1.61858e-30  1.11102e-30        00000 
-1.08833e-30 -7.08635e-31        00000 
 9.11794e-31  5.76914e-31        00000 
 5.85076e-37  2.10757e-37        00000 
-1.13283e-36 -5.54739e-37        00000 
 3.75171e-36  2.61774e-36        00000 
-1.31585e-35 -1.22482e-35        00000 
 4.68437e-35  5.46763e-35        00000 
-1.70129e-34 -2.31256e-34        00000 
 6.28097e-34  9.21314e-34        00000 
-2.31571e-33 -3.43704e-33        00000 
 8.30980e-33  1.19367e-32        00000 
-2.83015e-32 -3.83799e-32        00000 
 8.96799e-32  1.13675e-31        00000 
-2.60763e-31 -3.08819e-31        00000 
 6.89656e-31  7.66851e-31        00000 
-1.65042e-30 -1.73583e-30        00000 
 3.56392e-30  3.57438e-30        00000 
-6.93619e-30 -6.68557e-30        00000 
 1.21650e-29  1.13459e-29        00000 
-1.92365e-29 -1.74562e-29        00000 
 2.74508e-29  2.43340e-29        00000 
-3.53923e-29 -3.07222e-29        00000 
 4.12812e-29  3.51193e-29        00000 
-4.36198e-29 -3.63446e-29        00000 
 4.18142e-29  3.40530e-29        00000 
-3.64184e-29 -2.88943e-29        00000 
 2.88691e-29  2.22184e-29        00000 
-2.08869e-29 -1.55106e-29        00000 
 1.38916e-29  9.88680e-30        00000 
-8.70705e-30 -5.88539e-30        00000 
 5.61082e-30  3.57575e-30        00000 
-4.59173e-30 -2.83076e-30        00000 
-1.80928e-36 -3.91918e-37        00000 
 3.57293e-36  1.09768e-36        00000 
-1.20074e-35 -5.58500e-36        00000 
 4.19576e-35  2.81616e-35        00000 
-1.46589e-34 -1.35732e-34        00000 
 5.20116e-34  6.20742e-34        00000 
-1.90042e-33 -2.67658e-33        00000 
 7.12583e-33  1.08106e-32        00000 
-2.67788e-32 -4.06273e-32        00000 
 9.75621e-32  1.41126e-31        00000 
-3.34223e-31 -4.50316e-31        00000 
 1.05282e-30  1.31273e-30        00000 
-3.00625e-30 -3.48032e-30        00000 
 7.71698e-30  8.36225e-30        00000 
-1.77309e-29 -1.81615e-29        00000 
 3.63981e-29  3.55863e-29        00000 
-6.67351e-29 -6.28241e-29        00000 
 1.09353e-28  9.98289e-29        00000 
-1.60332e-28 -1.42681e-28        00000 
 2.10652e-28  1.83328e-28        00000 
-2.48422e-28 -2.11691e-28        00000 
 2.63417e-28  2.19638e-28        00000 
-2.51592e-28 -2.04768e-28        00000 
 2.16835e-28  1.71590e-28        00000 
-1.68961e-28 -1.29336e-28        00000 
 1.19360e-28  8.78384e-29        00000 
-7.69372e-29 -5.40285e-29        00000 
 4.63046e-29  3.07253e-29        00000 
-2.84312e-29 -1.76646e-29        00000 
 2.26313e-29  1.35290e-29        00000 
 5.42372e-36  6.34330e-37        00000 
-1.10425e-35 -1.89167e-36        00000 
 3.82975e-35  1.04256e-35        00000 
-1.35713e-34 -5.70802e-35        00000 
 4.70985e-34  2.99515e-34        00000 
-1.62569e-33 -1.49371e-33        00000 
 5.73166e-33  7.03071e-33        00000 
-2.10889e-32 -3.10155e-32        00000 
 8.06861e-32  1.27296e-31        00000 
-3.10733e-31 -4.82394e-31        00000 
 1.15299e-30  1.67518e-30        00000 
-3.97236e-30 -5.29384e-30        00000 
 1.23994e-29  1.51341e-29        00000 
-3.45739e-29 -3.89585e-29        00000 
 8.54993e-29  8.99954e-29        00000 
-1.86949e-28 -1.86106e-28        00000 
 3.61215e-28  3.43947e-28        00000 
-6.17199e-28 -5.67410e-28        00000 
 9.34053e-28  8.34841e-28        00000 
-1.25444e-27 -1.09480e-27        00000 
 1.49829e-27  1.27910e-27        00000 
-1.59506e-27 -1.33109e-27        00000 
 1.51691e-27  1.23381e-27        00000 
-1.29154e-27 -1.01899e-27        00000 
 9.86758e-28  7.50476e-28        00000 
-6.78410e-28 -4.93767e-28        00000 
 4.22159e-28  2.91609e-28        00000 
-2.42808e-28 -1.57517e-28        00000 
 1.41099e-28  8.50443e-29        00000 
-1.08675e-28 -6.26262e-29        00000 
-1.55562e-35 -8.73552e-37        00000 
 3.29086e-35  2.73413e-36        00000 
-1.19411e-34 -1.63330e-35        00000 
 4.37544e-34  9.81425e-35        00000 
-1.54439e-33 -5.68106e-34        00000 
 5.28321e-33  3.13013e-33        00000 
-1.79159e-32 -1.62812e-32        00000 
 6.24954e-32  7.93646e-32        00000 
-2.31816e-31 -3.59844e-31        00000 
 9.11193e-31  1.50523e-30        00000 
-3.62286e-30 -5.75859e-30        00000 
 1.37417e-29  1.99758e-29        00000 
-4.75688e-29 -6.23427e-29        00000 
 1.46428e-28  1.73954e-28        00000 
-3.95675e-28 -4.31963e-28        00000 
 9.33579e-28  9.51590e-28        00000 
-1.92105e-27 -1.85578e-27        00000 
 3.45082e-27  3.19927e-27        00000 
-5.42258e-27 -4.87044e-27        00000 
 7.47356e-27  6.54244e-27        00000 
-9.05997e-27 -7.75026e-27        00000 
 9.68883e-27  8.09375e-27        00000 
-9.16675e-27 -7.45121e-27        00000 
 7.69445e-27  6.04948e-27        00000 
-5.74589e-27 -4.33571e-27        00000 
 3.82898e-27  2.74880e-27        00000 
-2.28919e-27 -1.54893e-27        00000 
 1.25113e-27  7.89209e-28        00000 
-6.82698e-28 -3.96678e-28        00000 
 5.05486e-28  2.78806e-28        00000 
 4.22458e-35  1.05883e-36        00000 
-9.32582e-35 -3.17664e-36        00000 
 3.56940e-34  1.98872e-35        00000 
-1.37210e-33 -1.32796e-34        00000 
 5.04179e-33  8.69531e-34        00000 
-1.76424e-32 -5.42873e-33        00000 
 5.92287e-32  3.19005e-32        00000 
-1.95811e-31 -1.75084e-31        00000 
 6.70963e-31  8.91532e-31        00000 
-2.51253e-30 -4.18029e-30        00000 
 1.02529e-29  1.78901e-29        00000 
-4.25269e-29 -6.91915e-29        00000 
 1.65582e-28  2.39449e-28        00000 
-5.74551e-28 -7.35126e-28        00000 
 1.73177e-27  1.98935e-27        00000 
-4.48828e-27 -4.72500e-27        00000 
 9.97782e-27  9.82353e-27        00000 