<?xml version="1.0" encoding="utf-8"?>
<VTKFile byte_order="LittleEndian" type="UnstructuredGrid" version="0.1">
   <UnstructuredGrid>
      <Piece NumberOfCells="3364" NumberOfPoints="1741">
         <Points>
            <DataArray Name="Points" NumberOfComponents="3" format="ascii" type="Float32">
0.0000 1.0000 0.0000
0.0000 1.0345 0.0000
0.0000 1.0690 0.0000
0.0000 1.1034 0.0000
0.0000 1.1379 0.0000
0.0000 1.1724 0.0000
0.0000 1.2069 0.0000
0.0000 1.2414 0.0000
0.0000 1.2759 0.0000
0.0000 1.3103 0.0000
0.0000 1.3448 0.0000
0.0000 1.3793 0.0000
0.0000 1.4138 0.0000
0.0000 1.4483 0.0000
0.0000 1.4828 0.0000
0.0000 1.5172 0.0000
0.0000 1.5517 0.0000
0.0000 1.5862 0.0000
0.0000 1.6207 0.0000
0.0000 1.6552 0.0000
0.0000 1.6897 0.0000
0.0000 1.7241 0.0000
0.0000 1.7586 0.0000
0.0000 1.7931 0.0000
0.0000 1.8276 0.0000
0.0000 1.8621 0.0000
0.0000 1.8966 0.0000
0.0000 1.9310 0.0000
0.0000 1.9655 0.0000
0.0000 2.0000 0.0000
0.0690 1.0000 0.0000
0.0690 1.0345 0.0000
0.0690 1.0690 0.0000
0.0690 1.1034 0.0000
0.0690 1.1379 0.0000
0.0690 1.1724 0.0000
0.0690 1.2069 0.0000
0.0690 1.2414 0.0000
0.0690 1.2759 0.0000
0.0690 1.3103 0.0000
0.0690 1.3448 0.0000
0.0690 1.3793 0.0000
0.0690 1.4138 0.0000
0.0690 1.4483 0.0000
0.0690 1.4828 0.0000
0.0690 1.5172 0.0000
0.0690 1.5517 0.0000
0.0690 1.5862 0.0000
0.0690 1.6207 0.0000
0.0690 1.6552 0.0000
0.0690 1.6897 0.0000
0.0690 1.7241 0.0000
0.0690 1.7586 0.0000
0.0690 1.7931 0.0000
0.0690 1.8276 0.0000
0.0690 1.8621 0.0000
0.0690 1.8966 0.0000
0.0690 1.9310 0.0000
0.0690 1.9655 0.0000
0.0690 2.0000 0.0000
0.1379 1.0000 0.0000
0.1379 1.0345 0.0000
0.1379 1.0690 0.0000
0.1379 1.1034 0.0000
0.1379 1.1379 0.0000
0.1379 1.1724 0.0000
0.1379 1.2069 0.0000
0.1379 1.2414 0.0000
0.1379 1.2759 0.0000
0.1379 1.3103 0.0000
0.1379 1.3448 0.0000
0.1379 1.3793 0.0000
0.1379 1.4138 0.0000
0.1379 1.4483 0.0000
0.1379 1.4828 0.0000
0.1379 1.5172 0.0000
0.1379 1.5517 0.0000
0.1379 1.5862 0.0000
0.1379 1.6207 0.0000
0.1379 1.6552 0.0000
0.1379 1.6897 0.0000
0.1379 1.7241 0.0000
0.1379 1.7586 0.0000
0.1379 1.7931 0.0000
0.1379 1.8276 0.0000
0.1379 1.8621 0.0000
0.1379 1.8966 0.0000
0.1379 1.9310 0.0000
0.1379 1.9655 0.0000
0.1379 2.0000 0.0000
0.2069 1.0000 0.0000
0.2069 1.0345 0.0000
0.2069 1.0690 0.0000
0.2069 1.1034 0.0000
0.2069 1.1379 0.0000
0.2069 1.1724 0.0000
0.2069 1.2069 0.0000
0.2069 1.2414 0.0000
0.2069 1.2759 0.0000
0.2069 1.3103 0.0000
0.2069 1.3448 0.0000
0.2069 1.3793 0.0000
0.2069 1.4138 0.0000
0.2069 1.4483 0.0000
0.2069 1.4828 0.0000
0.2069 1.5172 0.0000
0.2069 1.5517 0.0000
0.2069 1.5862 0.0000
0.2069 1.6207 0.0000
0.2069 1.6552 0.0000
0.2069 1.6897 0.0000
0.2069 1.7241 0.0000
0.2069 1.7586 0.0000
0.2069 1.7931 0.0000
0.2069 1.8276 0.0000
0.2069 1.8621 0.0000
0.2069 1.8966 0.0000
0.2069 1.9310 0.0000
0.2069 1.9655 0.0000
0.2069 2.0000 0.0000
0.2759 1.0000 0.0000
0.2759 1.0345 0.0000
0.2759 1.0690 0.0000
0.2759 1.1034 0.0000
0.2759 1.1379 0.0000
0.2759 1.1724 0.0000
0.2759 1.2069 0.0000
0.2759 1.2414 0.0000
0.2759 1.2759 0.0000
0.2759 1.3103 0.0000
0.2759 1.3448 0.0000
0.2759 1.3793 0.0000
0.2759 1.4138 0.0000
0.2759 1.4483 0.0000
0.2759 1.4828 0.0000
0.2759 1.5172 0.0000
0.2759 1.5517 0.0000
0.2759 1.5862 0.0000
0.2759 1.6207 0.0000
0.2759 1.6552 0.0000
0.2759 1.6897 0.0000
0.2759 1.7241 0.0000
0.2759 1.7586 0.0000
0.2759 1.7931 0.0000
0.2759 1.8276 0.0000
0.2759 1.8621 0.0000
0.2759 1.8966 0.0000
0.2759 1.9310 0.0000
0.2759 1.9655 0.0000
0.2759 2.0000 0.0000
0.3448 1.0000 0.0000
0.3448 1.0345 0.0000
0.3448 1.0690 0.0000
0.3448 1.1034 0.0000
0.3448 1.1379 0.0000
0.3448 1.1724 0.0000
0.3448 1.2069 0.0000
0.3448 1.2414 0.0000
0.3448 1.2759 0.0000
0.3448 1.3103 0.0000
0.3448 1.3448 0.0000
0.3448 1.3793 0.0000
0.3448 1.4138 0.0000
0.3448 1.4483 0.0000
0.3448 1.4828 0.0000
0.3448 1.5172 0.0000
0.3448 1.5517 0.0000
0.3448 1.5862 0.0000
0.3448 1.6207 0.0000
0.3448 1.6552 0.0000
0.3448 1.6897 0.0000
0.3448 1.7241 0.0000
0.3448 1.7586 0.0000
0.3448 1.7931 0.0000
0.3448 1.8276 0.0000
0.3448 1.8621 0.0000
0.3448 1.8966 0.0000
0.3448 1.9310 0.0000
0.3448 1.9655 0.0000
0.3448 2.0000 0.0000
0.4138 1.0000 0.0000
0.4138 1.0345 0.0000
0.4138 1.0690 0.0000
0.4138 1.1034 0.0000
0.4138 1.1379 0.0000
0.4138 1.1724 0.0000
0.4138 1.2069 0.0000
0.4138 1.2414 0.0000
0.4138 1.2759 0.0000
0.4138 1.3103 0.0000
0.4138 1.3448 0.0000
0.4138 1.3793 0.0000
0.4138 1.4138 0.0000
0.4138 1.4483 0.0000
0.4138 1.4828 0.0000
0.4138 1.5172 0.0000
0.4138 1.5517 0.0000
0.4138 1.5862 0.0000
0.4138 1.6207 0.0000
0.4138 1.6552 0.0000
0.4138 1.6897 0.0000
0.4138 1.7241 0.0000
0.4138 1.7586 0.0000
0.4138 1.7931 0.0000
0.4138 1.8276 0.0000
0.4138 1.8621 0.0000
0.4138 1.8966 0.0000
0.4138 1.9310 0.0000
0.4138 1.9655 0.0000
0.4138 2.0000 0.0000
0.4828 1.0000 0.0000
0.4828 1.0345 0.0000
0.4828 1.0690 0.0000
0.4828 1.1034 0.0000
0.4828 1.1379 0.0000
0.4828 1.1724 0.0000
0.4828 1.2069 0.0000
0.4828 1.2414 0.0000
0.4828 1.2759 0.0000
0.4828 1.3103 0.0000
0.4828 1.3448 0.0000
0.4828 1.3793 0.0000
0.4828 1.4138 0.0000
0.4828 1.4483 0.0000
0.4828 1.4828 0.0000
0.4828 1.5172 0.0000
0.4828 1.5517 0.0000
0.4828 1.5862 0.0000
0.4828 1.6207 0.0000
0.4828 1.6552 0.0000
0.4828 1.6897 0.0000
0.4828 1.7241 0.0000
0.4828 1.7586 0.0000
0.4828 1.7931 0.0000
0.4828 1.8276 0.0000
0.4828 1.8621 0.0000
0.4828 1.8966 0.0000
0.4828 1.9310 0.0000
0.4828 1.9655 0.0000
0.4828 2.0000 0.0000
0.5517 1.0000 0.0000
0.5517 1.0345 0.0000
0.5517 1.0690 0.0000
0.5517 1.1034 0.0000
0.5517 1.1379 0.0000
0.5517 1.1724 0.0000
0.5517 1.2069 0.0000
0.5517 1.2414 0.0000
0.5517 1.2759 0.0000
0.5517 1.3103 0.0000
0.5517 1.3448 0.0000
0.5517 1.3793 0.0000
0.5517 1.4138 0.0000
0.5517 1.4483 0.0000
0.5517 1.4828 0.0000
0.5517 1.5172 0.0000
0.5517 1.5517 0.0000
0.5517 1.5862 0.0000
0.5517 1.6207 0.0000
0.5517 1.6552 0.0000
0.5517 1.6897 0.0000
0.5517 1.7241 0.0000
0.5517 1.7586 0.0000
0.5517 1.7931 0.0000
0.5517 1.8276 0.0000
0.5517 1.8621 0.0000
0.5517 1.8966 0.0000
0.5517 1.9310 0.0000
0.5517 1.9655 0.0000
0.5517 2.0000 0.0000
0.6207 1.0000 0.0000
0.6207 1.0345 0.0000
0.6207 1.0690 0.0000
0.6207 1.1034 0.0000
0.6207 1.1379 0.0000
0.6207 1.1724 0.0000
0.6207 1.2069 0.0000
0.6207 1.2414 0.0000
0.6207 1.2759 0.0000
0.6207 1.3103 0.0000
0.6207 1.3448 0.0000
0.6207 1.3793 0.0000
0.6207 1.4138 0.0000
0.6207 1.4483 0.0000
0.6207 1.4828 0.0000
0.6207 1.5172 0.0000
0.6207 1.5517 0.0000
0.6207 1.5862 0.0000
0.6207 1.6207 0.0000
0.6207 1.6552 0.0000
0.6207 1.6897 0.0000
0.6207 1.7241 0.0000
0.6207 1.7586 0.0000
0.6207 1.7931 0.0000
0.6207 1.8276 0.0000
0.6207 1.8621 0.0000
0.6207 1.8966 0.0000
0.6207 1.9310 0.0000
0.6207 1.9655 0.0000
0.6207 2.0000 0.0000
0.6897 1.0000 0.0000
0.6897 1.0345 0.0000
0.6897 1.0690 0.0000
0.6897 1.1034 0.0000
0.6897 1.1379 0.0000
0.6897 1.1724 0.0000
0.6897 1.2069 0.0000
0.6897 1.2414 0.0000
0.6897 1.2759 0.0000
0.6897 1.3103 0.0000
0.6897 1.3448 0.0000
0.6897 1.3793 0.0000
0.6897 1.4138 0.0000
0.6897 1.4483 0.0000
0.6897 1.4828 0.0000
0.6897 1.5172 0.0000
0.6897 1.5517 0.0000
0.6897 1.5862 0.0000
0.6897 1.6207 0.0000
0.6897 1.6552 0.0000
0.6897 1.6897 0.0000
0.6897 1.7241 0.0000
0.6897 1.7586 0.0000
0.6897 1.7931 0.0000
0.6897 1.8276 0.0000
0.6897 1.8621 0.0000
0.6897 1.8966 0.0000
0.6897 1.9310 0.0000
0.6897 1.9655 0.0000
0.6897 2.0000 0.0000
0.7586 1.0000 0.0000
0.7586 1.0345 0.0000
0.7586 1.0690 0.0000
0.7586 1.1034 0.0000
0.7586 1.1379 0.0000
0.7586 1.1724 0.0000
0.7586 1.2069 0.0000
0.7586 1.2414 0.0000
0.7586 1.2759 0.0000
0.7586 1.3103 0.0000
0.7586 1.3448 0.0000
0.7586 1.3793 0.0000
0.7586 1.4138 0.0000
0.7586 1.4483 0.0000
0.7586 1.4828 0.0000
0.7586 1.5172 0.0000
0.7586 1.5517 0.0000
0.7586 1.5862 0.0000
0.7586 1.6207 0.0000
0.7586 1.6552 0.0000
0.7586 1.6897 0.0000
0.7586 1.7241 0.0000
0.7586 1.7586 0.0000
0.7586 1.7931 0.0000
0.7586 1.8276 0.0000
0.7586 1.8621 0.0000
0.7586 1.8966 0.0000
0.7586 1.9310 0.0000
0.7586 1.9655 0.0000
0.7586 2.0000 0.0000
0.8276 1.0000 0.0000
0.8276 1.0345 0.0000
0.8276 1.0690 0.0000
0.8276 1.1034 0.0000
0.8276 1.1379 0.0000
0.8276 1.1724 0.0000
0.8276 1.2069 0.0000
0.8276 1.2414 0.0000
0.8276 1.2759 0.0000
0.8276 1.3103 0.0000
0.8276 1.3448 0.0000
0.8276 1.3793 0.0000
0.8276 1.4138 0.0000
0.8276 1.4483 0.0000
0.8276 1.4828 0.0000
0.8276 1.5172 0.0000
0.8276 1.5517 0.0000
0.8276 1.5862 0.0000
0.8276 1.6207 0.0000
0.8276 1.6552 0.0000
0.8276 1.6897 0.0000
0.8276 1.7241 0.0000
0.8276 1.7586 0.0000
0.8276 1.7931 0.0000
0.8276 1.8276 0.0000
0.8276 1.8621 0.0000
0.8276 1.8966 0.0000
0.8276 1.9310 0.0000
0.8276 1.9655 0.0000
0.8276 2.0000 0.0000
0.8966 1.0000 0.0000
0.8966 1.0345 0.0000
0.8966 1.0690 0.0000
0.8966 1.1034 0.0000
0.8966 1.1379 0.0000
0.8966 1.1724 0.0000
0.8966 1.2069 0.0000
0.8966 1.2414 0.0000
0.8966 1.2759 0.0000
0.8966 1.3103 0.0000
0.8966 1.3448 0.0000
0.8966 1.3793 0.0000
0.8966 1.4138 0.0000
0.8966 1.4483 0.0000
0.8966 1.4828 0.0000
0.8966 1.5172 0.0000
0.8966 1.5517 0.0000
0.8966 1.5862 0.0000
0.8966 1.6207 0.0000
0.8966 1.6552 0.0000
0.8966 1.6897 0.0000
0.8966 1.7241 0.0000
0.8966 1.7586 0.0000
0.8966 1.7931 0.0000
0.8966 1.8276 0.0000
0.8966 1.8621 0.0000
0.8966 1.8966 0.0000
0.8966 1.9310 0.0000
0.8966 1.9655 0.0000
0.8966 2.0000 0.0000
0.9655 1.0000 0.0000
0.9655 1.0345 0.0000
0.9655 1.0690 0.0000
0.9655 1.1034 0.0000
0.9655 1.1379 0.0000
0.9655 1.1724 0.0000
0.9655 1.2069 0.0000
0.9655 1.2414 0.0000
0.9655 1.2759 0.0000
0.9655 1.3103 0.0000
0.9655 1.3448 0.0000
0.9655 1.3793 0.0000
0.9655 1.4138 0.0000
0.9655 1.4483 0.0000
0.9655 1.4828 0.0000
0.9655 1.5172 0.0000
0.9655 1.5517 0.0000
0.9655 1.5862 0.0000
0.9655 1.6207 0.0000
0.9655 1.6552 0.0000
0.9655 1.6897 0.0000
0.9655 1.7241 0.0000
0.9655 1.7586 0.0000
0.9655 1.7931 0.0000
0.9655 1.8276 0.0000
0.9655 1.8621 0.0000
0.9655 1.8966 0.0000
0.9655 1.9310 0.0000
0.9655 1.9655 0.0000
0.9655 2.0000 0.0000
1.0345 1.0000 0.0000
1.0345 1.0345 0.0000
1.0345 1.0690 0.0000
1.0345 1.1034 0.0000
1.0345 1.1379 0.0000
1.0345 1.1724 0.0000
1.0345 1.2069 0.0000
1.0345 1.2414 0.0000
1.0345 1.2759 0.0000
1.0345 1.3103 0.0000
1.0345 1.3448 0.0000
[...]
         <PointData>
            <DataArray Name="fValues" NumberOfComponents="3" format="ascii" type="Float64">
-2.38041e-43 -9.39432e-43        00000 
 3.82214e-43  1.48587e-42        00000 
-9.59924e-43 -3.65121e-42        00000 
 2.51931e-42  9.40024e-42        00000 
-6.40502e-42 -2.34749e-41        00000 
 1.56053e-41  5.62288e-41        00000 
-3.63458e-41 -1.28864e-40        00000 
 8.08063e-41  2.82200e-40        00000 
-1.71289e-40 -5.89899e-40        00000 
 3.45819e-40  1.17595e-39        00000 
-6.64358e-40 -2.23375e-39        00000 
 1.21350e-39  4.04026e-39        00000 
-2.10603e-39 -6.95414e-39        00000 
 3.47073e-39  1.13844e-38        00000 
-5.42878e-39 -1.77178e-38        00000 
 8.05632e-39  2.62053e-38        00000 
-1.13394e-38 -3.68225e-38        00000 
 1.51342e-38  4.91455e-38        00000 
-1.91502e-38 -6.22924e-38        00000 
 2.29722e-38  7.49797e-38        00000 
-2.61258e-38 -8.57146e-38        00000 
 2.81769e-38  9.30946e-38        00000 
-2.88384e-38 -9.61436e-38        00000 
 2.80522e-38  9.45830e-38        00000 
-2.60191e-38 -8.89526e-38        00000 
 2.31668e-38  8.05376e-38        00000 
-2.00647e-38 -7.11207e-38        00000 
 1.73122e-38  6.26286e-38        00000 
-1.54277e-38 -5.67587e-38        00000 
 1.47588e-38  5.46660e-38        00000 
 4.85986e-43  1.94552e-42        00000 
-7.98087e-43 -3.14463e-42        00000 
 2.07087e-42  7.97671e-42        00000 
-5.59759e-42 -2.11327e-41        00000 
 1.46394e-41  5.42352e-41        00000 
-3.66692e-41 -1.33416e-40        00000 
 8.77462e-41  3.13797e-40        00000 
-2.00268e-40 -7.04658e-40        00000 
 4.35371e-40  1.50893e-39        00000 
-9.00408e-40 -3.07791e-39        00000 
 1.76963e-39  5.97486e-39        00000 
-3.30202e-39 -1.10287e-38        00000 
 5.84495e-39  1.93435e-38        00000 
-9.80820e-39 -3.22176e-38        00000 
 1.55941e-38  5.09302e-38        00000 
-2.34795e-38 -7.63821e-38        00000 
 3.34673e-38  1.08640e-37        00000 
-4.51470e-38 -1.46503e-37        00000 
 5.76275e-38  1.87277e-37        00000 
-6.95944e-38 -2.26912e-37        00000 
 7.95185e-38  2.60609e-37        00000 
-8.59812e-38 -2.83800e-37        00000 
 8.80318e-38  2.93258e-37        00000 
-8.54634e-38 -2.88017e-37        00000 
 7.89141e-38  2.69774e-37        00000 
-6.97575e-38 -2.42651e-37        00000 
 5.98223e-38  2.12376e-37        00000 
-5.10240e-38 -1.85120e-37        00000 
 4.50086e-38  1.66304e-37        00000 
-4.28752e-38 -1.59600e-37        00000 
-1.70442e-42 -6.95612e-42        00000 
 2.88295e-42  1.15666e-41        00000 
-7.80003e-42 -3.05535e-41        00000 
 2.18886e-41  8.39311e-41        00000 
-5.93312e-41 -2.22949e-40        00000 
 1.53884e-40  5.67081e-40        00000 
-3.80905e-40 -1.37767e-39        00000 
 8.98219e-40  3.19159e-39        00000 
-2.01469e-39 -7.04095e-39        00000 
 4.29224e-39  1.47735e-38        00000 
-8.67497e-39 -2.94505e-38        00000 
 1.66146e-38  5.57246e-38        00000 
-3.01260e-38 -9.99985e-38        00000 
 5.16754e-38  1.70070e-37        00000 
-8.37985e-38 -2.73966e-37        00000 
 1.28401e-37  4.17817e-37        00000 
-1.85823e-37 -6.03006e-37        00000 
 2.53915e-37  8.23316e-37        00000 
-3.27518e-37 -1.06321e-36        00000 
 3.98731e-37  1.29846e-36        00000 
-4.58153e-37 -1.49965e-36        00000 
 4.96930e-37  1.63836e-36        00000 
-5.09041e-37 -1.69422e-36        00000 
 4.93082e-37  1.66081e-36        00000 
-4.52918e-37 -1.54830e-36        00000 
 3.96977e-37  1.38190e-36        00000 
-3.36449e-37 -1.19669e-36        00000 
 2.82978e-37  1.03030e-36        00000 
-2.46488e-37 -9.15597e-37        00000 
 2.33561e-37  8.74764e-37        00000 
 6.13410e-42  2.55273e-41        00000 
-1.06779e-41 -4.36350e-41        00000 
 3.00707e-41  1.19838e-40        00000 
-8.75010e-41 -3.40962e-40        00000 
 2.45639e-40  9.36826e-40        00000 
-6.59405e-40 -2.46293e-39        00000 
 1.68810e-39  6.17948e-39        00000 
-4.11310e-39 -1.47698e-38        00000 
 9.52098e-39  3.35761e-38        00000 
-2.09039e-38 -7.24939e-38        00000 
 4.34688e-38  1.48471e-37        00000 
-8.55025e-38 -2.88124e-37        00000 
 1.58913e-37  5.29297e-37        00000 
-2.78818e-37 -9.19718e-37        00000 
 4.61459e-37  1.51060e-36        00000 
-7.19994e-37 -2.34390e-36        00000 
 1.05852e-36  3.43419e-36        00000 
-1.46581e-36 -4.74945e-36        00000 
 1.91140e-36  6.19838e-36        00000 
-2.34660e-36 -7.63227e-36        00000 
 2.71217e-36  8.86647e-36        00000 
-2.95140e-36 -9.71951e-36        00000 
 3.02518e-36  1.00595e-35        00000 
-2.92387e-36 -9.84309e-36        00000 
 2.67159e-36  9.13297e-36        00000 
-2.32148e-36 -8.08768e-36        00000 
 1.94382e-36  6.92750e-36        00000 
-1.61112e-36 -5.88763e-36        00000 
 1.38458e-36  5.17205e-36        00000 
-1.30441e-36 -4.91754e-36        00000 
-2.14562e-41 -9.11882e-41        00000 
 3.84781e-41  1.60401e-40        00000 
-1.12888e-40 -4.58416e-40        00000 
 3.40996e-40  1.35242e-39        00000 
-9.92820e-40 -3.84900e-39        00000 
 2.76302e-39  1.04760e-38        00000 
-7.32898e-39 -2.71935e-38        00000 
 1.84870e-38  6.71831e-38        00000 
-4.42537e-38 -1.57682e-37        00000 
 1.00339e-37  3.51009e-37        00000 
-2.15124e-37 -7.39995e-37        00000 
 4.35468e-37  1.47557e-36        00000 
-8.31217e-37 -2.77990e-36        00000 
 1.49448e-36  4.94347e-36        00000 
-2.52870e-36 -8.29135e-36        00000 
 4.02366e-36  1.31076e-35        00000 
-6.01744e-36 -1.95206e-35        00000 
 8.45438e-36  2.73747e-35        00000 
-1.11555e-35 -3.61368e-35        00000 
 1.38212e-35  4.48949e-35        00000 
-1.60768e-35 -5.24873e-35        00000 
 1.75581e-35  5.77520e-35        00000 
-1.80103e-35 -5.98324e-35        00000 
 1.73676e-35  5.84363e-35        00000 
-1.57812e-35 -5.39523e-35        00000 
 1.35879e-35  4.73812e-35        00000 
-1.12303e-35 -4.01106e-35        00000 
 9.16033e-36  3.36114e-35        00000 
-7.75463e-36 -2.91483e-35        00000 
 7.25796e-36  2.75628e-35        00000 
 7.25012e-41  3.15274e-40        00000 
-1.34118e-40 -5.71395e-40        00000 
 4.10399e-40  1.70133e-39        00000 
-1.28868e-39 -5.21168e-39        00000 
 3.89800e-39  1.53896e-38        00000 
-1.12681e-38 -4.34466e-38        00000 
 3.10342e-38  1.16919e-37        00000 
-8.12263e-38 -2.99223e-37        00000 
 2.01548e-37  7.26713e-37        00000 
-4.73070e-37 -1.67166e-36        00000 
 1.04825e-36  3.63584e-36        00000 
-2.18894e-36 -7.46583e-36        00000 
 4.30092e-36  1.44546e-35        00000 
-7.94125e-36 -2.63577e-35        00000 
 1.37643e-35  4.52254e-35        00000 
-2.23759e-35 -7.29622e-35        00000 
 3.40940e-35  1.10606e-34        00000 
-4.86656e-35 -1.57475e-34        00000 
 6.50500e-35  2.10488e-34        00000 
-8.14032e-35 -2.64061e-34        00000 
 9.53548e-35  3.10872e-34        00000 
-1.04557e-34 -3.43463e-34        00000 
 1.07344e-34  3.56254e-34        00000 
-1.03268e-34 -3.47279e-34        00000 
 9.32846e-35  3.18958e-34        00000 
-7.95374e-35 -2.77638e-34        00000 
 6.48211e-35  2.32079e-34        00000 
-5.19525e-35 -1.91485e-34        00000 
 4.32425e-35  1.63679e-34        00000 
-4.01708e-35 -1.53814e-34        00000 
-2.35987e-40 -1.05225e-39        00000 
 4.50860e-40  1.96721e-39        00000 
-1.44050e-39 -6.10879e-39        00000 
 4.70847e-39  1.94565e-38        00000 
-1.48212e-38 -5.97112e-38        00000 
 4.45899e-38  1.75187e-37        00000 
-1.27793e-37 -4.89807e-37        00000 
 3.47884e-37  1.30154e-36        00000 
-8.97054e-37 -3.27886e-36        00000 
 2.18543e-36  7.81337e-36        00000 
-5.01838e-36 -1.75761e-35        00000 
 1.08388e-35  3.72563e-35        00000 
-2.19785e-35 -7.43026e-35        00000 
 4.17770e-35  1.39241e-34        00000 
-7.43431e-35 -2.44913e-34        00000 
 1.23726e-34  4.03971e-34        00000 
-1.92420e-34 -6.24394e-34        00000 
 2.79471e-34  9.03821e-34        00000 
-3.78904e-34 -1.22468e-33        00000 
 4.79395e-34  1.55286e-33        00000 
-5.65910e-34 -1.84216e-33        00000 
 6.23267e-34  2.04456e-33        00000 
-6.40543e-34 -2.12360e-33        00000 
 6.14687e-34  2.06603e-33        00000 
-5.51793e-34 -1.88706e-33        00000 
 4.65568e-34  1.62712e-33        00000 
-3.73719e-34 -1.34167e-33        00000 
 2.93798e-34  1.08830e-33        00000 
-2.39924e-34 -9.15298e-34        00000 
 2.20969e-34  8.54030e-34        00000 
 7.37893e-40  3.38194e-39        00000 
-1.45759e-39 -6.52851e-39        00000 
 4.86691e-39  2.11614e-38        00000 
-1.65803e-38 -7.01617e-38        00000 
 5.44006e-38  2.24143e-37        00000 
-1.70662e-37 -6.84739e-37        00000 
 5.10094e-37  1.99339e-36        00000 
-1.44785e-36 -5.51312e-36        00000 
 3.89024e-36  1.44441e-35        00000 
-9.86517e-36 -3.57528e-35        00000 
 2.35447e-35  8.34090e-35        00000 
-5.27531e-35 -1.83011e-34        00000 
 1.10716e-34  3.76967e-34        00000 
-2.17251e-34 -7.27801e-34        00000 
 3.97948e-34  1.31535e-33        00000 
-6.79610e-34 -2.22289e-33        00000 
 1.08103e-33  3.50969e-33        00000 
-1.60045e-33 -5.17354e-33        00000 
 2.20413e-33  7.11605e-33        00000 
-2.82270e-33 -9.12950e-33        00000 
 3.36067e-33  1.09219e-32        00000 
-3.71946e-33 -1.21831e-32        00000 
 3.82716e-33  1.26739e-32        00000 
-3.66302e-33 -1.23053e-32        00000 
 3.26620e-33  1.11733e-32        00000 
-2.72490e-33 -9.53686e-33        00000 
 2.15170e-33  7.74851e-33        00000 
-1.65596e-33 -6.16866e-33        00000 
 1.32347e-33  5.09403e-33        00000 
-1.20683e-33 -4.71430e-33        00000 
-2.21022e-39 -1.04414e-38        00000 
 4.51826e-39  2.08292e-38        00000 
-1.57779e-38 -7.05164e-38        00000 
 5.60834e-38  2.43635e-37        00000 
-1.92089e-37 -8.11398e-37        00000 
 6.29530e-37  2.58571e-36        00000 
-1.96661e-36 -7.85490e-36        00000 
 5.83481e-36  2.26674e-35        00000 
-1.63821e-35 -6.19312e-35        00000 
 4.33742e-35  1.59699e-34        00000 
-1.07938e-34 -3.87559e-34        00000 
 2.51704e-34  8.82886e-34        00000 
-5.48545e-34 -1.88383e-33        00000 
 1.11467e-33  3.75779e-33        00000 
-2.10794e-33 -6.99670e-33        00000 
 3.70408e-33  1.21441e-32        00000 
-6.04081e-33 -1.96288e-32        00000 
 9.13505e-33  2.95202e-32        00000 
-1.28011e-32 -4.12817e-32        00000 
 1.66155e-32  5.36536e-32        00000 
-1.99704e-32 -6.47885e-32        00000 
 2.22235e-32  7.26759e-32        00000 
-2.28988e-32 -7.57401e-32        00000 
 2.18553e-32  7.33800e-32        00000 
-1.93468e-32 -6.62101e-32        00000 
 1.59449e-32  5.58997e-32        00000 
-1.23681e-32 -4.46962e-32        00000 
 9.29779e-33  3.48563e-32        00000 
-7.25152e-33 -2.81951e-32        00000 
 6.53624e-33  2.58477e-32        00000 
 6.32334e-39  3.08921e-38        00000 
-1.33877e-38 -6.37186e-38        00000 
 4.89164e-38  2.25373e-37        00000 
-1.81585e-37 -8.12053e-37        00000 
 6.50087e-37  2.82284e-36        00000 
-2.22946e-36 -9.39953e-36        00000 
 7.29459e-36  2.98585e-35        00000 
-2.26792e-35 -9.01298e-35        00000 
 6.67282e-35  2.57532e-34        00000 
-1.85053e-34 -6.93992e-34        00000 
 4.81837e-34  1.75773e-33        00000 
-1.17368e-33 -4.17145e-33        00000 
 2.66578e-33  9.25101e-33        00000 
-5.62986e-33 -1.91277e-32        00000 
 1.10291e-32  3.68026e-32        00000 
-2.00040e-32 -6.57894e-32        00000 
 3.35416e-32  1.09131e-31        00000 
-5.19351e-32 -1.67811e-31        00000 
 7.41999e-32  2.39019e-31        00000 
-9.77640e-32 -3.15158e-31        00000 
 1.18753e-31  3.84529e-31        00000 
-1.32961e-31 -4.34047e-31        00000 
 1.37220e-31  4.53281e-31        00000 
-1.30571e-31 -4.38166e-31        00000 
 1.14676e-31  3.92669e-31        00000 
-9.32666e-32 -3.27632e-31        00000 
 7.09507e-32  2.57450e-31        00000 
-5.19704e-32 -1.96249e-31        00000 
 3.94204e-32  1.55066e-31        00000 
-3.50537e-32 -1.40603e-31        00000 
-1.72270e-38 -8.73802e-38        00000 
 3.77959e-38  1.86401e-37        00000 
-1.44534e-37 -6.88791e-37        00000 
 5.60692e-37  2.58943e-36        00000 
-2.10042e-36 -9.40422e-36        00000 
 7.54902e-36  3.27664e-35        00000 
-2.59193e-35 -1.09049e-34        00000 
 8.46461e-35  3.45152e-34        00000 
-2.61741e-34 -1.03438e-33        00000 
 7.62824e-34  2.92251e-33        00000 
-2.08590e-33 -7.75296e-33        00000 
 5.32840e-33  1.92394e-32        00000 
-1.26651e-32 -4.45141e-32        00000 
 2.79127e-32  9.57541e-32        00000 
-5.68702e-32 -1.91051e-31        00000 
 1.06859e-31  3.52888e-31        00000 
-1.84825e-31 -6.02496e-31        00000 
 2.93857e-31  9.49664e-31        00000 
-4.29048e-31 -1.38062e-30        00000 
 5.74892e-31  1.84994e-30        00000 
-7.06651e-31 -2.28345e-30        00000 
 7.96653e-31  2.59565e-30        00000 
-8.23681e-31 -2.71707e-30        00000 
 7.81193e-31  2.62012e-30        00000 
-6.80179e-31 -2.33073e-30        00000 
 5.45212e-31  1.91988e-30        00000 
-4.06003e-31 -1.48026e-30        00000 
 2.88947e-31  1.10028e-30        00000 
-2.12315e-31 -8.46503e-31        00000 
 1.85808e-31  7.57760e-31        00000 
 4.45485e-38  2.35773e-37        00000 
-1.01326e-37 -5.20137e-37        00000 
 4.05546e-37  2.00714e-36        00000 
-1.64476e-36 -7.87354e-36        00000 
 6.45226e-36  2.98915e-35        00000 
-2.43317e-35 -1.09093e-34        00000 
 8.78137e-35  3.80995e-34        00000 
-3.01894e-34 -1.26722e-33        00000 
 9.83785e-34  3.99433e-33        00000 
-3.02316e-33 -1.18722e-32        00000 
 8.71501e-33  3.31137e-32        00000 
-2.34471e-32 -8.62786e-32        00000 
 5.85892e-32  2.09147e-31        00000 
-1.35380e-31 -4.70033e-31        00000 
 2.88181e-31  9.76462e-31        00000 
-5.63389e-31 -1.87066e-30        00000 
 1.00911e-30  3.29849e-30        00000 
-1.65304e-30 -5.34527e-30        00000 
 2.47344e-30  7.95157e-30        00000 
-3.37782e-30 -1.08488e-29        00000 
 4.20803e-30  1.35670e-29        00000 
-4.78102e-30 -1.55445e-29        00000 
 4.95366e-30  1.63155e-29        00000 
-4.68107e-30 -1.56921e-29        00000 
 4.03684e-30  1.38457e-29        00000 
-3.18426e-30 -1.12457e-29        00000 
 2.31605e-30  8.49215e-30        00000 
-1.59627e-30 -6.13824e-30        00000 
 1.13097e-30  4.58080e-30        00000 
-9.71235e-31 -4.03916e-30        00000 
-1.08970e-37 -6.05622e-37        00000 
 2.57033e-37  1.38114e-36        00000 
-1.07656e-36 -5.56113e-36        00000 
 4.56540e-36  2.27557e-35        00000 
-1.87639e-35 -9.03175e-35        00000 
 7.43066e-35  3.45475e-34        00000 
-2.82261e-34 -1.26757e-33        00000 
 1.02347e-33  4.43860e-33        00000 
-3.52369e-33 -1.47529e-32        00000 
 1.14541e-32  4.62815e-32        00000 
-3.49459e-32 -1.36258e-31        00000 
 9.94710e-32  3.74417e-31        00000 
-2.62614e-31 -9.55442e-31        00000 
 6.39574e-31  2.25418e-30        00000 
-1.42998e-30 -4.89884e-30        00000 
 2.92347e-30  9.77696e-30        00000 
-5.44795e-30 -1.78764e-29        00000 
 9.23252e-30  2.98887e-29        00000 
-1.42055e-29 -4.56312e-29        00000 
 1.98241e-29  6.35437e-29        00000 
-2.50767e-29 -8.06476e-29        00000 
 2.87449e-29  9.32372e-29        00000 
-2.98552e-29 -9.81659e-29        00000 
 2.80978e-29  9.41422e-29        00000 
-2.39718e-29 -8.23174e-29        00000 
 1.85728e-29  6.58263e-29        00000 
-1.31596e-29 -4.85821e-29        00000 
 8.75023e-30  3.40411e-29        00000 
-5.94535e-30 -2.45331e-29        00000 
 4.99187e-30  2.12493e-29        00000 
 2.51128e-37  1.47823e-36        00000 
-6.14507e-37 -3.48229e-36        00000 
 2.69298e-36  1.46125e-35        00000 
-1.19412e-35 -6.23228e-35        00000 
 5.14277e-35  2.58498e-34        00000 
-2.13967e-34 -1.03636e-33        00000 
 8.56245e-34  3.99722e-33        00000 
-3.27944e-33 -1.47548e-32        00000 
 1.19547e-32  5.18232e-32        00000 
-4.12266e-32 -1.72112e-31        00000 
 1.33622e-31  5.36962e-31        00000 
-4.04263e-31 -1.56340e-30        00000 
 1.13372e-30  4.22169e-30        00000 
-2.92738e-30 -1.05138e-29        00000 
 6.91686e-30  2.40335e-29        00000 
-1.48771e-29 -5.02307e-29        00000 
 2.90063e-29  9.56933e-29        00000 
-5.11064e-29 -1.65777e-28        00000 
 8.11959e-29  2.60681e-28        00000 
-1.16166e-28 -3.71574e-28        00000 
 1.49547e-28  4.79620e-28        00000 
-1.73176e-28 -5.60230e-28        00000 
 1.80370e-28  5.91963e-28        00000 
-1.68974e-28 -5.65865e-28        00000 
 1.42414e-28  4.89778e-28        00000 
-1.08126e-28 -3.84899e-28        00000 
 7.43883e-29  2.76933e-28        00000 
-4.75060e-29 -1.87432e-28        00000 
 3.07567e-29  1.29773e-28        00000 
-2.51367e-29 -1.10031e-28        00000 
-5.42589e-37 -3.42308e-36        00000 
 1.37819e-36  8.32073e-36        00000 
-6.31941e-36 -3.63291e-35        00000 
 2.92995e-35  1.61301e-34        00000 
-1.32222e-34 -6.98496e-34        00000 
 5.78015e-34  2.93341e-33        00000 
-2.43784e-33 -1.18925e-32        00000 
 9.87205e-33  4.63023e-32        00000 
-3.81676e-32 -1.72099e-31        00000 
 1.39988e-31  6.06591e-31        00000 
-4.83669e-31 -2.01271e-30        00000 
 1.56229e-30  6.23868e-30        00000 
-4.67990e-30 -1.79274e-29        00000 
 1.28946e-29  4.74201e-29        00000 
-3.24246e-29 -1.14746e-28        00000 
 7.38962e-29  2.52709e-28        00000 
-1.51771e-28 -5.04513e-28        00000 
 2.79718e-28  9.10244e-28        00000 
-4.61249e-28 -1.48071e-27        00000 
 6.79257e-28  2.16799e-27        00000 
-8.92456e-28 -2.85341e-27        00000 
 1.04574e-27  3.37287e-27        00000 
-1.09274e-27 -3.57883e-27        00000 
 1.01831e-27  3.40851e-27        00000 
-8.46331e-28 -2.91611e-27        00000 
 6.27824e-28  2.24692e-27        00000 
-4.17675e-28 -1.57126e-27        00000 
 2.54792e-28  1.02299e-27        00000 
-1.56015e-28 -6.76264e-28        00000 
 1.23448e-28  5.58841e-28        00000 
 1.09195e-36  7.51012e-36        00000 
-2.88229e-36 -1.88111e-35        00000 
 1.38356e-35  8.52884e-35        00000 
-6.70932e-35 -3.93554e-34        00000 
 3.17277e-34  1.77663e-33        00000 
-1.45718e-33 -7.80596e-33        00000 
 6.47707e-33  3.32366e-32        00000 
-2.77421e-32 -1.36454e-31        00000 
 1.13876e-31  5.37006e-31        00000 
-4.45063e-31 -2.01200e-30        00000 
 1.64397e-30  7.12093e-30        00000 
-5.69243e-30 -2.36019e-29        00000 
 1.83124e-29  7.25926e-29        00000 
-5.42071e-29 -2.05341e-28        00000 
 1.46208e-28  5.29859e-28        00000 
-3.56046e-28 -1.23875e-27        00000 
 7.76726e-28  2.60980e-27        00000 
-1.50887e-27 -4.93474e-27        00000 
 2.59919e-27  8.34918e-27        00000 
-3.96012e-27 -1.26117e-26        00000 
 5.32930e-27  1.69797e-26        00000 
-6.33164e-27 -2.03517e-26        00000 
 6.64141e-27  2.17009e-26        00000 
-6.15116e-27 -2.05811e-26        00000 
 5.02996e-27  1.73719e-26        00000 
-3.63198e-27 -1.30849e-26        00000 
 2.32409e-27  8.86067e-27        00000 
-1.34511e-27 -5.52301e-27        00000 
 7.72336e-28  3.46026e-27        00000 
-5.88007e-28 -2.77118e-27        00000 
-2.02778e-36 -1.55936e-35        00000 
 5.57421e-36  4.01821e-35        00000 
-2.80544e-35 -1.88762e-34        00000 
 1.42446e-34  9.03360e-34        00000 
-7.06297e-34 -4.24276e-33        00000 
 3.40842e-33  1.94661e-32        00000 
-1.59631e-32 -8.69077e-32        00000 
 7.22990e-32  3.75802e-31        00000 
-3.15163e-31 -1.56512e-30        00000 
 1.31408e-30  6.23615e-30        00000 
-5.20093e-30 -2.35846e-29        00000 
 1.93707e-29  8.38823e-29        00000 
-6.72450e-29 -2.77660e-28        00000 
 2.15271e-28  8.45993e-28        00000 
-6.28077e-28 -2.34748e-27        00000 
 1.65026e-27  5.87731e-27        00000 
-3.86281e-27 -1.31789e-26        00000 