<?xml version="1.0" encoding="utf-8"?>
<VTKFile byte_order="LittleEndian" type="UnstructuredGrid" version="0.1">
   <UnstructuredGrid>
      <Piece NumberOfCells="3364" NumberOfPoints="1741">
         <Points>
            <DataArray Name="Points" NumberOfComponents="3" format="ascii" type="Float32">
0.0000 1.0000 0.0000
0.0000 1.0345 0.0000
0.0000 1.0690 0.0000
0.0000 1.1034 0.0000
0.0000 1.1379 0.0000
0.0000 1.1724 0.0000
0.0000 1.2069 0.0000
0.0000 1.2414 0.0000
0.0000 1.2759 0.0000
0.0000 1.3103 0.0000
0.0000 1.3448 0.0000
0.0000 1.3793 0.0000
0.0000 1.4138 0.0000
0.0000 1.4483 0.0000
0.0000 1.4828 0.0000
0.0000 1.5172 0.0000
0.0000 1.5517 0.0000
0.0000 1.5862 0.0000
0.0000 1.6207 0.0000
0.0000 1.6552 0.0000
0.0000 1.6897 0.0000
0.0000 1.7241 0.0000
0.0000 1.7586 0.0000
0.0000 1.7931 0.0000
0.0000 1.8276 0.0000
0.0000 1.8621 0.0000
0.0000 1.8966 0.0000
0.0000 1.9310 0.0000
0.0000 1.9655 0.0000
0.0000 2.0000 0.0000
0.0690 1.0000 0.0000
0.0690 1.0345 0.0000
0.0690 1.0690 0.0000
0.0690 1.1034 0.0000
0.0690 1.1379 0.0000
0.0690 1.1724 0.0000
0.0690 1.2069 0.0000
0.0690 1.2414 0.0000
0.0690 1.2759 0.0000
0.0690 1.3103 0.0000
0.0690 1.3448 0.0000
0.0690 1.3793 0.0000
0.0690 1.4138 0.0000
0.0690 1.4483 0.0000
0.0690 1.4828 0.0000
0.0690 1.5172 0.0000
0.0690 1.5517 0.0000
0.0690 1.5862 0.0000
0.0690 1.6207 0.0000
0.0690 1.6552 0.0000
0.0690 1.6897 0.0000
0.0690 1.7241 0.0000
0.0690 1.7586 0.0000
0.0690 1.7931 0.0000
0.0690 1.8276 0.0000
0.0690 1.8621 0.0000
0.0690 1.8966 0.0000
0.0690 1.9310 0.0000
0.0690 1.9655 0.0000
0.0690 2.0000 0.0000
0.1379 1.0000 0.0000
0.1379 1.0345 0.0000
0.1379 1.0690 0.0000
0.1379 1.1034 0.0000
0.1379 1.1379 0.0000
0.1379 1.1724 0.0000
0.1379 1.2069 0.0000
0.1379 1.2414 0.0000
0.1379 1.2759 0.0000
0.1379 1.3103 0.0000
0.1379 1.3448 0.0000
0.1379 1.3793 0.0000
0.1379 1.4138 0.0000
0.1379 1.4483 0.0000
0.1379 1.4828 0.0000
0.1379 1.5172 0.0000
0.1379 1.5517 0.0000
0.1379 1.5862 0.0000
0.1379 1.6207 0.0000
0.1379 1.6552 0.0000
0.1379 1.6897 0.0000
0.1379 1.7241 0.0000
0.1379 1.7586 0.0000
0.1379 1.7931 0.0000
0.1379 1.8276 0.0000
0.1379 1.8621 0.0000
0.1379 1.8966 0.0000
0.1379 1.9310 0.0000
0.1379 1.9655 0.0000
0.1379 2.0000 0.0000
0.2069 1.0000 0.0000
0.2069 1.0345 0.0000
0.2069 1.0690 0.0000
0.2069 1.1034 0.0000
0.2069 1.1379 0.0000
0.2069 1.1724 0.0000
0.2069 1.2069 0.0000
0.2069 1.2414 0.0000
0.2069 1.2759 0.0000
0.2069 1.3103 0.0000
0.2069 1.3448 0.0000
0.2069 1.3793 0.0000
0.2069 1.4138 0.0000
0.2069 1.4483 0.0000
0.2069 1.4828 0.0000
0.2069 1.5172 0.0000
0.2069 1.5517 0.0000
0.2069 1.5862 0.0000
0.2069 1.6207 0.0000
0.2069 1.6552 0.0000
0.2069 1.6897 0.0000
0.2069 1.7241 0.0000
0.2069 1.7586 0.0000
0.2069 1.7931 0.0000
0.2069 1.8276 0.0000
0.2069 1.8621 0.0000
0.2069 1.8966 0.0000
0.2069 1.9310 0.0000
0.2069 1.9655 0.0000
0.2069 2.0000 0.0000
0.2759 1.0000 0.0000
0.2759 1.0345 0.0000
0.2759 1.0690 0.0000
0.2759 1.1034 0.0000
0.2759 1.1379 0.0000
0.2759 1.1724 0.0000
0.2759 1.2069 0.0000
0.2759 1.2414 0.0000
0.2759 1.2759 0.0000
0.2759 1.3103 0.0000
0.2759 1.3448 0.0000
0.2759 1.3793 0.0000
0.2759 1.4138 0.0000
0.2759 1.4483 0.0000
0.2759 1.4828 0.0000
0.2759 1.5172 0.0000
0.2759 1.5517 0.0000
0.2759 1.5862 0.0000
0.2759 1.6207 0.0000
0.2759 1.6552 0.0000
0.2759 1.6897 0.0000
0.2759 1.7241 0.0000
0.2759 1.7586 0.0000
0.2759 1.7931 0.0000
0.2759 1.8276 0.0000
0.2759 1.8621 0.0000
0.2759 1.8966 0.0000
0.2759 1.9310 0.0000
0.2759 1.9655 0.0000
0.2759 2.0000 0.0000
0.3448 1.0000 0.0000
0.3448 1.0345 0.0000
0.3448 1.0690 0.0000
0.3448 1.1034 0.0000
0.3448 1.1379 0.0000
0.3448 1.1724 0.0000
0.3448 1.2069 0.0000
0.3448 1.2414 0.0000
0.3448 1.2759 0.0000
0.3448 1.3103 0.0000
0.3448 1.3448 0.0000
0.3448 1.3793 0.0000
0.3448 1.4138 0.0000
0.3448 1.4483 0.0000
0.3448 1.4828 0.0000
0.3448 1.5172 0.0000
0.3448 1.5517 0.0000
0.3448 1.5862 0.0000
0.3448 1.6207 0.0000
0.3448 1.6552 0.0000
0.3448 1.6897 0.0000
0.3448 1.7241 0.0000
0.3448 1.7586 0.0000
0.3448 1.7931 0.0000
0.3448 1.8276 0.0000
0.3448 1.8621 0.0000
0.3448 1.8966 0.0000
0.3448 1.9310 0.0000
0.3448 1.9655 0.0000
0.3448 2.0000 0.0000
0.4138 1.0000 0.0000
0.4138 1.0345 0.0000
0.4138 1.0690 0.0000
0.4138 1.1034 0.0000
0.4138 1.1379 0.0000
0.4138 1.1724 0.0000
0.4138 1.2069 0.0000
0.4138 1.2414 0.0000
0.4138 1.2759 0.0000
0.4138 1.3103 0.0000
0.4138 1.3448 0.0000
0.4138 1.3793 0.0000
0.4138 1.4138 0.0000
0.4138 1.4483 0.0000
0.4138 1.4828 0.0000
0.4138 1.5172 0.0000
0.4138 1.5517 0.0000
0.4138 1.5862 0.0000
0.4138 1.6207 0.0000
0.4138 1.6552 0.0000
0.4138 1.6897 0.0000
0.4138 1.7241 0.0000
0.4138 1.7586 0.0000
0.4138 1.7931 0.0000
0.4138 1.8276 0.0000
0.4138 1.8621 0.0000
0.4138 1.8966 0.0000
0.4138 1.9310 0.0000
0.4138 1.9655 0.0000
0.4138 2.0000 0.0000
0.4828 1.0000 0.0000
0.4828 1.0345 0.0000
0.4828 1.0690 0.0000
0.4828 1.1034 0.0000
0.4828 1.1379 0.0000
0.4828 1.1724 0.0000
0.4828 1.2069 0.0000
0.4828 1.2414 0.0000
0.4828 1.2759 0.0000
0.4828 1.3103 0.0000
0.4828 1.3448 0.0000
0.4828 1.3793 0.0000
0.4828 1.4138 0.0000
0.4828 1.4483 0.0000
0.4828 1.4828 0.0000
0.4828 1.5172 0.0000
0.4828 1.5517 0.0000
0.4828 1.5862 0.0000
0.4828 1.6207 0.0000
0.4828 1.6552 0.0000
0.4828 1.6897 0.0000
0.4828 1.7241 0.0000
0.4828 1.7586 0.0000
0.4828 1.7931 0.0000
0.4828 1.8276 0.0000
0.4828 1.8621 0.0000
0.4828 1.8966 0.0000
0.4828 1.9310 0.0000
0.4828 1.9655 0.0000
0.4828 2.0000 0.0000
0.5517 1.0000 0.0000
0.5517 1.0345 0.0000
0.5517 1.0690 0.0000
0.5517 1.1034 0.0000
0.5517 1.1379 0.0000
0.5517 1.1724 0.0000
0.5517 1.2069 0.0000
0.5517 1.2414 0.0000
0.5517 1.2759 0.0000
0.5517 1.3103 0.0000
0.5517 1.3448 0.0000
0.5517 1.3793 0.0000
0.5517 1.4138 0.0000
0.5517 1.4483 0.0000
0.5517 1.4828 0.0000
0.5517 1.5172 0.0000
0.5517 1.5517 0.0000
0.5517 1.5862 0.0000
0.5517 1.6207 0.0000
0.5517 1.6552 0.0000
0.5517 1.6897 0.0000
0.5517 1.7241 0.0000
0.5517 1.7586 0.0000
0.5517 1.7931 0.0000
0.5517 1.8276 0.0000
0.5517 1.8621 0.0000
0.5517 1.8966 0.0000
0.5517 1.9310 0.0000
0.5517 1.9655 0.0000
0.5517 2.0000 0.0000
0.6207 1.0000 0.0000
0.6207 1.0345 0.0000
0.6207 1.0690 0.0000
0.6207 1.1034 0.0000
0.6207 1.1379 0.0000
0.6207 1.1724 0.0000
0.6207 1.2069 0.0000
0.6207 1.2414 0.0000
0.6207 1.2759 0.0000
0.6207 1.3103 0.0000
0.6207 1.3448 0.0000
0.6207 1.3793 0.0000
0.6207 1.4138 0.0000
0.6207 1.4483 0.0000
0.6207 1.4828 0.0000
0.6207 1.5172 0.0000
0.6207 1.5517 0.0000
0.6207 1.5862 0.0000
0.6207 1.6207 0.0000
0.6207 1.6552 0.0000
0.6207 1.6897 0.0000
0.6207 1.7241 0.0000
0.6207 1.7586 0.0000
0.6207 1.7931 0.0000
0.6207 1.8276 0.0000
0.6207 1.8621 0.0000
0.6207 1.8966 0.0000
0.6207 1.9310 0.0000
0.6207 1.9655 0.0000
0.6207 2.0000 0.0000
0.6897 1.0000 0.0000
0.6897 1.0345 0.0000
0.6897 1.0690 0.0000
0.6897 1.1034 0.0000
0.6897 1.1379 0.0000
0.6897 1.1724 0.0000
0.6897 1.2069 0.0000
0.6897 1.2414 0.0000
0.6897 1.2759 0.0000
0.6897 1.3103 0.0000
0.6897 1.3448 0.0000
0.6897 1.3793 0.0000
0.6897 1.4138 0.0000
0.6897 1.4483 0.0000
0.6897 1.4828 0.0000
0.6897 1.5172 0.0000
0.6897 1.5517 0.0000
0.6897 1.5862 0.0000
0.6897 1.6207 0.0000
0.6897 1.6552 0.0000
0.6897 1.6897 0.0000
0.6897 1.7241 0.0000
0.6897 1.7586 0.0000
0.6897 1.7931 0.0000
0.6897 1.8276 0.0000
0.6897 1.8621 0.0000
0.6897 1.8966 0.0000
0.6897 1.9310 0.0000
0.6897 1.9655 0.0000
0.6897 2.0000 0.0000
0.7586 1.0000 0.0000
0.7586 1.0345 0.0000
0.7586 1.0690 0.0000
0.7586 1.1034 0.0000
0.7586 1.1379 0.0000
0.7586 1.1724 0.0000
0.7586 1.2069 0.0000
0.7586 1.2414 0.0000
0.7586 1.2759 0.0000
0.7586 1.3103 0.0000
0.7586 1.3448 0.0000
0.7586 1.3793 0.0000
0.7586 1.4138 0.0000
0.7586 1.4483 0.0000
0.7586 1.4828 0.0000
0.7586 1.5172 0.0000
0.7586 1.5517 0.0000
0.7586 1.5862 0.0000
0.7586 1.6207 0.0000
0.7586 1.6552 0.0000
0.7586 1.6897 0.0000
0.7586 1.7241 0.0000
0.7586 1.7586 0.0000
0.7586 1.7931 0.0000
0.7586 1.8276 0.0000
0.7586 1.8621 0.0000
0.7586 1.8966 0.0000
0.7586 1.9310 0.0000
0.7586 1.9655 0.0000
0.7586 2.0000 0.0000
0.8276 1.0000 0.0000
0.8276 1.0345 0.0000
0.8276 1.0690 0.0000
0.8276 1.1034 0.0000
0.8276 1.1379 0.0000
0.8276 1.1724 0.0000
0.8276 1.2069 0.0000
0.8276 1.2414 0.0000
0.8276 1.2759 0.0000
0.8276 1.3103 0.0000
0.8276 1.3448 0.0000
0.8276 1.3793 0.0000
0.8276 1.4138 0.0000
0.8276 1.4483 0.0000
0.8276 1.4828 0.0000
0.8276 1.5172 0.0000
0.8276 1.5517 0.0000
0.8276 1.5862 0.0000
0.8276 1.6207 0.0000
0.8276 1.6552 0.0000
0.8276 1.6897 0.0000
0.8276 1.7241 0.0000
0.8276 1.7586 0.0000
0.8276 1.7931 0.0000
0.8276 1.8276 0.0000
0.8276 1.8621 0.0000
0.8276 1.8966 0.0000
0.8276 1.9310 0.0000
0.8276 1.9655 0.0000
0.8276 2.0000 0.0000
0.8966 1.0000 0.0000
0.8966 1.0345 0.0000
0.8966 1.0690 0.0000
0.8966 1.1034 0.0000
0.8966 1.1379 0.0000
0.8966 1.1724 0.0000
0.8966 1.2069 0.0000
0.8966 1.2414 0.0000
0.8966 1.2759 0.0000
0.8966 1.3103 0.0000
0.8966 1.3448 0.0000
0.8966 1.3793 0.0000
0.8966 1.4138 0.0000
0.8966 1.4483 0.0000
0.8966 1.4828 0.0000
0.8966 1.5172 0.0000
0.8966 1.5517 0.0000
0.8966 1.5862 0.0000
0.8966 1.6207 0.0000
0.8966 1.6552 0.0000
0.8966 1.6897 0.0000
0.8966 1.7241 0.0000
0.8966 1.7586 0.0000
0.8966 1.7931 0.0000
0.8966 1.8276 0.0000
0.8966 1.8621 0.0000
0.8966 1.8966 0.0000
0.8966 1.9310 0.0000
0.8966 1.9655 0.0000
0.8966 2.0000 0.0000
0.9655 1.0000 0.0000
0.9655 1.0345 0.0000
0.9655 1.0690 0.0000
0.9655 1.1034 0.0000
0.9655 1.1379 0.0000
0.9655 1.1724 0.0000
0.9655 1.2069 0.0000
0.9655 1.2414 0.0000
0.9655 1.2759 0.0000
0.9655 1.3103 0.0000
0.9655 1.3448 0.0000
0.9655 1.3793 0.0000
0.9655 1.4138 0.0000
0.9655 1.4483 0.0000
0.9655 1.4828 0.0000
0.9655 1.5172 0.0000
0.9655 1.5517 0.0000
0.9655 1.5862 0.0000
0.9655 1.6207 0.0000
0.9655 1.6552 0.0000
0.9655 1.6897 0.0000
0.9655 1.7241 0.0000
0.9655 1.7586 0.0000
0.9655 1.7931 0.0000
0.9655 1.8276 0.0000
0.9655 1.8621 0.0000
0.9655 1.8966 0.0000
0.9655 1.9310 0.0000
0.9655 1.9655 0.0000
0.9655 2.0000 0.0000
1.0345 1.0000 0.0000
1.0345 1.0345 0.0000
1.0345 1.0690 0.0000
1.0345 1.1034 0.0000
1.0345 1.1379 0.0000
1.0345 1.1724 0.0000
1.0345 1.2069 0.0000
1.0345 1.2414 0.0000
1.0345 1.2759 0.0000
1.0345 1.3103 0.0000
1.0345 1.3448 0.0000
[...]
         <PointData>
            <DataArray Name="fValues" NumberOfComponents="3" format="ascii" type="Float64">
-1.71445e-37  7.59326e-39        00000 
 5.05714e-37 -2.31165e-38        00000 
-2.80628e-36  1.33059e-37        00000 
 1.59786e-35 -7.85715e-37        00000 
-9.08068e-35  4.63762e-36        00000 
 5.14437e-34 -2.73328e-35        00000 
-2.90374e-33  1.60790e-34        00000 
 1.63209e-32 -9.43671e-34        00000 
-9.12830e-32  5.52225e-33        00000 
 5.07602e-31 -3.21976e-32        00000 
-2.80343e-30  1.86867e-31        00000 
 1.53577e-29 -1.07821e-30        00000 
-8.33140e-29  6.17491e-30        00000 
 4.46648e-28 -3.50241e-29        00000 
-2.35996e-27  1.96164e-28        00000 
 1.22464e-26 -1.08039e-27        00000 
-6.21238e-26  5.81669e-27        00000 
 3.06134e-25 -3.03451e-26        00000 
-1.45282e-24  1.51347e-25        00000 
 6.56165e-24 -7.06211e-25        00000 
-2.77736e-23  2.97135e-24        00000 
 1.03586e-22 -1.05376e-23        00000 
-4.01703e-22  2.76339e-23        00000 
 1.16732e-21 -4.33819e-23        00000 
-2.74412e-21  8.32597e-24        00000 
 5.22625e-21  1.42473e-22        00000 
-8.25796e-21 -3.99104e-22        00000 
 1.07380e-20  6.44394e-22        00000 
-1.20792e-20 -7.76069e-22        00000 
 1.24466e-20  8.07751e-22        00000 
 1.75473e-37 -7.42181e-39        00000 
-5.18931e-37  2.26145e-38        00000 
 2.88893e-36 -1.30328e-37        00000 
-1.65069e-35  7.70726e-37        00000 
 9.41839e-35 -4.55754e-36        00000 
-5.36005e-34  2.69225e-35        00000 
 3.04137e-33 -1.58829e-34        00000 
-1.71982e-32  9.35476e-34        00000 
 9.68684e-32 -5.49858e-33        00000 
-5.43104e-31  3.22376e-32        00000 
 3.02863e-30 -1.88404e-31        00000 
-1.67824e-29  1.09668e-30        00000 
 9.22963e-29 -6.35140e-30        00000 
-5.03015e-28  3.65470e-29        00000 
 2.71148e-27 -2.08553e-28        00000 
-1.44203e-26  1.17722e-27        00000 
 7.54142e-26 -6.54967e-27        00000 
-3.86105e-25  3.57316e-26        00000 
 1.92330e-24 -1.89655e-25        00000 
-9.23897e-24  9.67259e-25        00000 
 4.22354e-23 -4.64008e-24        00000 
-1.84973e-22  2.01077e-23        00000 
 7.69930e-22 -7.20655e-23        00000 
-2.62810e-21  1.68717e-22        00000 
 7.17058e-21 -1.61886e-22        00000 
-1.50549e-20 -2.76836e-22        00000 
 2.54737e-20  1.21205e-21        00000 
-3.36449e-20 -2.09965e-21        00000 
 3.72317e-20  2.43499e-21        00000 
-3.78154e-20 -2.44320e-21        00000 
-1.86492e-37  6.89890e-39        00000 
 5.55115e-37 -2.10676e-38        00000 
-3.11537e-36  1.21787e-37        00000 
 1.79556e-35 -7.22916e-37        00000 
-1.03451e-34  4.29485e-36        00000 
 5.95239e-34 -2.55184e-35        00000 
-3.41969e-33  1.51631e-34        00000 
 1.96124e-32 -9.01042e-34        00000 
-1.12258e-31  5.35441e-33        00000 
 6.41092e-31 -3.18183e-32        00000 
-3.65155e-30  1.89071e-31        00000 
 2.07344e-29 -1.12338e-30        00000 
-1.17304e-28  6.67342e-30        00000 
 6.60725e-28 -3.96293e-29        00000 
-3.70154e-27  2.35188e-28        00000 
 2.05979e-26 -1.39421e-27        00000 
-1.13644e-25  8.24847e-27        00000 
 6.20034e-25 -4.86230e-26        00000 
-3.33257e-24  2.84729e-25        00000 
 1.75437e-23 -1.64702e-24        00000 
-8.96039e-23  9.30990e-24        00000 
 4.31721e-22 -5.03191e-23        00000 
-2.13321e-21  2.47976e-22        00000 
 9.15945e-21 -9.84725e-22        00000 
-3.17732e-20  1.91603e-21        00000 
 8.08225e-20 -1.47218e-23        00000 
-1.49526e-19 -6.92081e-21        00000 
 2.03509e-19  1.37725e-20        00000 
-2.18291e-19 -1.45662e-20        00000 
 2.12135e-19  1.31847e-20        00000 
 2.01562e-37 -6.01179e-39        00000 
-6.04696e-37  1.84012e-38        00000 
 3.42626e-36 -1.06729e-37        00000 
-1.99480e-35  6.36206e-37        00000 
 1.16217e-34 -3.79991e-36        00000 
-6.76974e-34  2.27288e-35        00000 
 3.94268e-33 -1.36175e-34        00000 
-2.29567e-32  8.17424e-34        00000 
 1.33630e-31 -4.91771e-33        00000 
-7.77572e-31  2.96618e-32        00000 
 4.52247e-30 -1.79443e-31        00000 
-2.62870e-29  1.08930e-30        00000 
 1.52666e-28 -6.63856e-30        00000 
-8.85598e-28  4.06373e-29        00000 
 5.12894e-27 -2.49987e-28        00000 
-2.96361e-26  1.54609e-27        00000 
 1.70684e-25 -9.61581e-27        00000 
-9.78400e-25  6.01368e-26        00000 
 5.57011e-24 -3.77934e-25        00000 
-3.13942e-23  2.38282e-24        00000 
 1.74357e-22 -1.50194e-23        00000 
-9.51590e-22  9.39684e-23        00000 
 5.02899e-21 -5.74484e-22        00000 
-2.51850e-20  3.29735e-21        00000 
 1.20056e-19 -1.55037e-20        00000 
-4.12363e-19  1.71294e-20        00000 
 9.17491e-19  3.77368e-20        00000 
-1.27107e-18 -1.03122e-19        00000 
 1.37300e-18  9.08292e-20        00000 
-1.05932e-18 -5.97464e-20        00000 
-2.16571e-37  4.77462e-39        00000 
 6.54296e-37 -1.46216e-38        00000 
-3.73859e-36  8.49122e-38        00000 
 2.19569e-35 -5.07207e-37        00000 
-1.29130e-34  3.03870e-36        00000 
 7.59907e-34 -1.82519e-35        00000 
-4.47493e-33  1.09952e-34        00000 
 2.63708e-32 -6.64608e-34        00000 
-1.55523e-31  4.03280e-33        00000 
 9.17936e-31 -2.45790e-32        00000 
-5.42243e-30  1.50556e-31        00000 
 3.20585e-29 -9.27453e-31        00000 
-1.89696e-28  5.74976e-30        00000 
 1.12335e-27 -3.58999e-29        00000 
-6.65686e-27  2.25924e-28        00000 
 3.94680e-26 -1.43422e-27        00000 
-2.34052e-25  9.19245e-27        00000 
 1.38759e-24 -5.95436e-26        00000 
-8.21811e-24  3.90227e-25        00000 
 4.85649e-23 -2.59113e-24        00000 
-2.85813e-22  1.74634e-23        00000 
 1.66735e-21 -1.19736e-22        00000 
-9.61858e-21  8.37249e-22        00000 
 5.37764e-20 -5.97770e-21        00000 
-2.85612e-19  4.32433e-20        00000 
 1.70795e-18 -2.95955e-19        00000 
-5.46750e-18 -1.06090e-19        00000 
 8.81199e-18  9.40820e-19        00000 
-6.78462e-18 -5.93529e-19        00000 
 4.86939e-18  3.35116e-20        00000 
 2.27216e-37 -3.25867e-39        00000 
-6.89927e-37  9.92983e-39        00000 
 3.96567e-36 -5.73682e-38        00000 
-2.34316e-35  3.41151e-37        00000 
 1.38688e-34 -2.03584e-36        00000 
-8.21739e-34  1.21877e-35        00000 
 4.87428e-33 -7.32273e-35        00000 
-2.89473e-32  4.41795e-34        00000 
 1.72134e-31 -2.67797e-33        00000 
-1.02502e-30  1.63188e-32        00000 
 6.11290e-30 -1.00034e-31        00000 
-3.65147e-29  6.17266e-31        00000 
 2.18499e-28 -3.83689e-30        00000 
-1.30994e-27  2.40438e-29        00000 
 7.86943e-27 -1.52025e-28        00000 
-4.73810e-26  9.70849e-28        00000 
 2.85970e-25 -6.26960e-27        00000 
-1.73059e-24  4.10084e-26        00000 
 1.05036e-23 -2.72270e-25        00000 
-6.39513e-23  1.84065e-24        00000 
 3.90634e-22 -1.27278e-23        00000 
-2.39402e-21  9.06351e-23        00000 
 1.46921e-20 -6.71734e-22        00000 
-9.00027e-20  5.27371e-21        00000 
 5.55352e-19 -4.53226e-20        00000 
-4.34917e-18  4.59592e-19        00000 
 2.52431e-17 -7.43591e-18        00000 
 9.98282e-03 -1.45999e-17        00000 
 3.90734e-17 -1.65664e-18        00000 
-1.30438e-17 -7.88170e-19        00000 
-2.30011e-37  1.60259e-39        00000 
 7.00300e-37 -4.76296e-39        00000 
-4.03782e-36  2.67231e-38        00000 
 2.39313e-35 -1.54286e-37        00000 
-1.42095e-34  8.92495e-37        00000 
 8.44687e-34 -5.17013e-36        00000 
-5.02741e-33  3.00019e-35        00000 
 2.99617e-32 -1.74462e-34        00000 
-1.78817e-31  1.01696e-33        00000 
 1.06887e-30 -5.94437e-33        00000 
-6.39998e-30  3.48512e-32        00000 
 3.83915e-29 -2.04983e-31        00000 
-2.30771e-28  1.20956e-30        00000 
 1.39033e-27 -7.15973e-30        00000 
-8.39775e-27  4.24984e-29        00000 
 5.08714e-26 -2.52806e-28        00000 
-3.09202e-25  1.50560e-27        00000 
 1.88678e-24 -8.96359e-27        00000 
-1.15675e-23  5.32166e-26        00000 
 7.13255e-23 -3.13739e-25        00000 
-4.42982e-22  1.82148e-24        00000 
 2.77697e-21 -1.02165e-23        00000 
-1.76311e-20  5.24204e-23        00000 
 1.13866e-19 -1.92881e-22        00000 
-7.31841e-19 -7.98852e-22        00000 
 4.65924e-18  4.77149e-20        00000 
-9.98282e-03 -2.52672e-18        00000 
 8.54322e-01 -3.70362e-17        00000 
-9.98282e-03 -1.23782e-17        00000 
 1.45056e-17  1.34242e-18        00000 
 2.23052e-37  7.05257e-42        00000 
-6.79354e-37 -2.71109e-40        00000 
 3.91825e-36  3.22578e-39        00000 
-2.32269e-35 -2.89469e-38        00000 
 1.37921e-34  2.32819e-37        00000 
-8.19813e-34 -1.76492e-36        00000 
 4.87823e-33  1.29011e-35        00000 
-2.90608e-32 -9.20800e-35        00000 
 1.73335e-31  6.46731e-34        00000 
-1.03525e-30 -4.49367e-33        00000 
 6.19198e-30  3.10090e-32        00000 
-3.70937e-29 -2.13162e-31        00000 
 2.22600e-28  1.46343e-30        00000 
-1.33841e-27 -1.00565e-29        00000 
 8.06484e-27  6.93171e-29        00000 
-4.87157e-26 -4.80228e-28        00000 
 2.95102e-25  3.35119e-27        00000 
-1.79353e-24 -2.36118e-26        00000 
 1.09435e-23  1.68446e-25        00000 
-6.70946e-23 -1.22103e-24        00000 
 4.13841e-22  9.03555e-24        00000 
-2.57290e-21 -6.86983e-23        00000 
 1.61765e-20  5.41721e-22        00000 
-1.03678e-19 -4.49409e-21        00000 
 7.15725e-19  4.01183e-20        00000 
-2.53934e-18 -3.98104e-19        00000 
 1.66614e-17  3.84508e-18        00000 
 9.98282e-03 -5.96245e-19        00000 
 2.27528e-17 -5.26393e-18        00000 
-1.03148e-17 -1.69953e-19        00000 
-2.06368e-37 -1.37888e-39        00000 
 6.27349e-37  4.54318e-39        00000 
-3.60981e-36 -2.85117e-38        00000 
 2.13442e-35  1.82814e-37        00000 
-1.26380e-34 -1.17207e-36        00000 
 7.48802e-34  7.51364e-36        00000 
-4.43959e-33 -4.81852e-35        00000 
 2.63401e-32  3.09292e-34        00000 
-1.56387e-31 -1.98810e-33        00000 
 9.29187e-31  1.28042e-32        00000 
-5.52503e-30 -8.26716e-32        00000 
 3.28780e-29  5.35423e-31        00000 
-1.95804e-28 -3.48052e-30        00000 
 1.16705e-27  2.27240e-29        00000 
-6.96162e-27 -1.49119e-28        00000 
 4.15597e-26  9.84310e-28        00000 
-2.48284e-25 -6.54135e-27        00000 
 1.48417e-24  4.38098e-26        00000 
-8.87491e-24 -2.96024e-25        00000 
 5.30610e-23  2.02048e-24        00000 
-3.16882e-22 -1.39462e-23        00000 
 1.88648e-21  9.74171e-23        00000 
-1.11427e-20 -6.87935e-22        00000 
 6.43643e-20  4.87725e-21        00000 
-3.22095e-19 -3.37116e-20        00000 
 1.15368e-18  1.96694e-19        00000 
-3.93931e-18 -3.26486e-19        00000 
 6.92176e-18 -1.32811e-20        00000 
-4.73273e-18  3.86146e-19        00000 
 3.13919e-18 -4.27273e-19        00000 
 1.81751e-37  2.36607e-39        00000 
-5.50297e-37 -7.57377e-39        00000 
 3.15106e-36  4.61392e-38        00000 
-1.85364e-35 -2.88092e-37        00000 
 1.09140e-34  1.80137e-36        00000 
-6.42659e-34 -1.12748e-35        00000 
 3.78428e-33  7.06525e-35        00000 
-2.22825e-32 -4.43349e-34        00000 
 1.31185e-31  2.78646e-33        00000 
-7.72150e-31 -1.75442e-32        00000 
 4.54310e-30  1.10681e-31        00000 
-2.67153e-29 -6.99768e-31        00000 
 1.56971e-28  4.43448e-30        00000 
-9.21287e-28 -2.81705e-29        00000 
 5.39880e-27  1.79405e-28        00000 
-3.15692e-26 -1.14536e-27        00000 
 1.84044e-25  7.32866e-27        00000 
-1.06838e-24 -4.69725e-26        00000 
 6.16382e-24  3.01250e-25        00000 
-3.52358e-23 -1.92909e-24        00000 
 1.98586e-22  1.22835e-23        00000 
-1.09354e-21 -7.71314e-23        00000 
 5.78029e-21  4.69216e-22        00000 
-2.82369e-20 -2.65105e-21        00000 
 1.34214e-19  1.23444e-20        00000 
-3.10907e-19 -3.06063e-20        00000 
 5.68264e-19  3.20920e-20        00000 
-8.39392e-19  4.51570e-21        00000 
 8.61189e-19 -4.92498e-20        00000 
-7.03982e-19  6.63048e-20        00000 
-1.52191e-37 -2.90177e-39        00000 
 4.58014e-37  9.15359e-39        00000 
-2.60359e-36 -5.48690e-38        00000 
 1.51998e-35  3.37295e-37        00000 
-8.87561e-35 -2.07587e-36        00000 
 5.17909e-34  1.27830e-35        00000 
-3.01945e-33 -7.87606e-35        00000 
 1.75846e-32  4.85543e-34        00000 
-1.02275e-31 -2.99485e-33        00000 
 5.93891e-31  1.84807e-32        00000 
-3.44178e-30 -1.14077e-31        00000 
 1.98974e-29  7.04245e-31        00000 
-1.14678e-28 -4.34657e-30        00000 
 6.58397e-28  2.68071e-29        00000 
-3.76151e-27 -1.65086e-28        00000 
 2.13540e-26  1.01402e-27        00000 
-1.20217e-25 -6.20186e-27        00000 
 6.69251e-25  3.76720e-26        00000 
-3.66873e-24 -2.26342e-25        00000 
 1.96768e-23  1.33620e-24        00000 
-1.02203e-22 -7.66307e-24        00000 
 5.05478e-22  4.18238e-23        00000 
-2.31554e-21 -2.08654e-22        00000 
 9.51457e-21  8.72022e-22        00000 
-2.73322e-20 -2.49545e-21        00000 
 5.76540e-20  4.27092e-21        00000 
-9.67132e-20 -3.48081e-21        00000 
 1.21817e-19 -1.22319e-21        00000 
-1.34745e-19  6.93599e-21        00000 
 1.26705e-19 -9.41226e-21        00000 
 1.21093e-37  3.00792e-39        00000 
-3.61512e-37 -9.36980e-39        00000 
 2.03531e-36  5.53588e-38        00000 
-1.17638e-35 -3.35403e-37        00000 
 6.79492e-35  2.03292e-36        00000 
-3.91814e-34 -1.23169e-35        00000 
 2.25475e-33  7.45807e-35        00000 
-1.29443e-32 -4.51236e-34        00000 
 7.41029e-32  2.72712e-33        00000 
-4.22795e-31 -1.64574e-32        00000 
 2.40254e-30  9.91175e-32        00000 
-1.35859e-29 -5.95349e-31        00000 
 7.63683e-29  3.56306e-30        00000 
-4.26119e-28 -2.12205e-29        00000 
 2.35578e-27  1.25549e-28        00000 
-1.28718e-26 -7.36108e-28        00000 
 6.92722e-26  4.26204e-27        00000 
-3.65422e-25 -2.42447e-26        00000 
 1.87639e-24  1.34454e-25        00000 
-9.28227e-24 -7.18123e-25        00000 
 4.35457e-23  3.62114e-24        00000 
-1.89050e-22 -1.66581e-23        00000 
 7.30294e-22  6.57328e-23        00000 
-2.25440e-21 -1.99874e-22        00000 
 5.40496e-21  4.27205e-22        00000 
-1.03280e-20 -5.86135e-22        00000 
 1.58665e-20  3.84609e-22        00000 
-2.01398e-20  2.62785e-22        00000 
 2.20535e-20 -1.00882e-21        00000 
-2.23595e-20  1.33627e-21        00000 
-9.15262e-38 -2.77704e-39        00000 
 2.70543e-37  8.53894e-39        00000 
-1.50510e-36 -4.96880e-38        00000 
 8.59233e-36  2.96401e-37        00000 
-4.89691e-35 -1.76690e-36        00000 
 2.78269e-34  1.05150e-35        00000 
-1.57589e-33 -6.24456e-35        00000 
 8.88913e-33  3.69900e-34        00000 
-4.99079e-32 -2.18425e-33        00000 
 2.78671e-31  1.28478e-32        00000 
-1.54588e-30 -7.52049e-32        00000 
 8.50847e-30  4.37539e-31        00000 
-4.63873e-29 -2.52600e-30        00000 
 2.49971e-28  1.44398e-29        00000 
-1.32772e-27 -8.14959e-29        00000 
 6.92515e-27  4.52300e-28        00000 
-3.52908e-26 -2.45475e-27        00000 
 1.74487e-25  1.29239e-26        00000 
-8.28770e-25 -6.52311e-26        00000 
 3.72795e-24  3.10024e-25        00000 
-1.55495e-23 -1.34919e-24        00000 
 5.82273e-23  5.14491e-24        00000 
-1.85024e-22 -1.61162e-23        00000 
 4.81919e-22  3.89236e-23        00000 
-1.02699e-21 -6.84791e-23        00000 
 1.80512e-21  8.00244e-23        00000 
-2.65045e-21 -4.15293e-23        00000 
 3.32295e-21 -5.00605e-23        00000 
-3.68761e-21  1.49419e-22        00000 
 3.78873e-21 -1.92466e-22        00000 
 6.57123e-38  2.33733e-39        00000 
-1.91963e-37 -7.08567e-39        00000 
 1.05290e-36  4.05451e-38        00000 
-5.92326e-36 -2.37719e-37        00000 
 3.32253e-35  1.39098e-36        00000 
-1.85562e-34 -8.11262e-36        00000 
 1.03114e-33  4.71320e-35        00000 
-5.69657e-33 -2.72556e-34        00000 
 3.12573e-32  1.56740e-33        00000 
-1.70145e-31 -8.95332e-33        00000 
 9.17445e-31  5.07260e-32        00000 
-4.89149e-30 -2.84517e-31        00000 
 2.57276e-29  1.57604e-30        00000 
-1.33098e-28 -8.59484e-30        00000 
 6.74664e-28  4.59509e-29        00000 
-3.33393e-27 -2.39481e-28        00000 
 1.59530e-26  1.20719e-27        00000 
-7.32417e-26 -5.82172e-27        00000 
 3.18576e-25  2.64426e-26        00000 
-1.28983e-24 -1.10592e-25        00000 
 4.74104e-24  4.12380e-25        00000 
-1.52809e-23 -1.31347e-24        00000 
 4.19732e-23  3.41724e-24        00000 
-9.71242e-23 -6.97101e-24        00000 
 1.89414e-22  1.06252e-23        00000 
-3.13354e-22 -1.08795e-23        00000 
 4.44895e-22  4.19757e-24        00000 
-5.52505e-22  8.95057e-24        00000 
 6.16846e-22 -2.24336e-23        00000 
-6.37146e-22  2.81673e-23        00000 
-4.48185e-38 -1.81591e-39        00000 
 1.29158e-37  5.41935e-39        00000 
-6.96902e-37 -3.04364e-38        00000 
 3.85472e-36  1.75045e-37        00000 
-2.12297e-35 -1.00317e-36        00000 
 1.16225e-34  5.72002e-36        00000 
-6.31916e-34 -3.24218e-35        00000 
 3.40850e-33  1.82487e-34        00000 
-1.82160e-32 -1.01862e-33        00000 
 9.63043e-32  5.62962e-33        00000 
-5.02696e-31 -3.07436e-32        00000 
 2.58459e-30  1.65474e-31        00000 
-1.30496e-29 -8.74958e-31        00000 
 6.44569e-29  4.52576e-30        00000 
-3.09939e-28 -2.27738e-29        00000 
 1.44164e-27  1.10668e-28        00000 
-6.43260e-27 -5.14223e-28        00000 
 2.72314e-26  2.25411e-27        00000 
-1.07781e-25 -9.15262e-27        00000 
 3.91221e-25  3.35944e-26        00000 
-1.27148e-24 -1.08123e-25        00000 
 3.61902e-24  2.95361e-25        00000 
-8.89993e-24 -6.63954e-25        00000 
 1.88246e-23  1.18956e-24        00000 
-3.43031e-23 -1.61801e-24        00000 
 5.41791e-23  1.47140e-24        00000 
-7.49532e-23 -3.62494e-25        00000 
 9.22817e-23 -1.54469e-24        00000 
-1.03194e-22  3.40627e-24        00000 
 1.06824e-22 -4.18321e-24        00000 
 2.90442e-38  1.31216e-39        00000 
-8.24236e-38 -3.84887e-39        00000 
 4.36557e-37  2.11735e-38        00000 
-2.36894e-36 -1.19199e-37        00000 
 1.27798e-35  6.67535e-37        00000 
-6.84083e-35 -3.71194e-36        00000 
 3.62914e-34  2.04711e-35        00000 
-1.90555e-33 -1.11811e-34        00000 
 9.88671e-33  6.03803e-34        00000 
-5.05870e-32 -3.21704e-33        00000 
 2.54644e-31  1.68670e-32        00000 
-1.25730e-30 -8.67402e-32        00000 
 6.06657e-30  4.35722e-31        00000 
-2.84724e-29 -2.12673e-30        00000 
 1.29218e-28  1.00178e-29        00000 
-5.62831e-28 -4.51387e-29        00000 
 2.33041e-27  1.92321e-28        00000 
-9.06130e-27 -7.63321e-28        00000 
 3.25883e-26  2.76916e-27        00000 
-1.06497e-25 -8.97582e-27        00000 
 3.10831e-25  2.53651e-26        00000 
-7.99950e-25 -6.10127e-26        00000 
 1.80300e-24  1.21989e-25        00000 
-3.55330e-24 -1.96920e-25        00000 
 6.13755e-24  2.43459e-25        00000 
-9.34488e-24 -1.97590e-25        00000 
 1.26592e-23  1.79416e-26        00000 
-1.54568e-23  2.61147e-25        00000 
 1.72699e-23 -5.22221e-25        00000 
-1.78889e-23  6.29314e-25        00000 
-1.78884e-38 -8.86302e-40        00000 
 4.99062e-38  2.55099e-39        00000 
-2.58920e-37 -1.37178e-38        00000 
 1.37545e-36  7.54362e-38        00000 
-7.25180e-36 -4.11883e-37        00000 
 3.78617e-35  2.22810e-36        00000 
-1.95474e-34 -1.19239e-35        00000 
 9.96302e-34  6.30171e-35        00000 
-5.00318e-33 -3.28197e-34        00000 
 2.46952e-32  1.68003e-33        00000 
-1.19462e-31 -8.42587e-33        00000 
 5.64353e-31  4.12389e-32        00000 
-2.59225e-30 -1.95993e-31        00000 
 1.15149e-29  8.98903e-31        00000 
-4.91345e-29 -3.94737e-30        00000 
 1.99732e-28  1.64332e-29        00000 
-7.65618e-28 -6.40585e-29        00000 