<?xml version="1.0" encoding="utf-8"?>
<VTKFile byte_order="LittleEndian" type="UnstructuredGrid" version="0.1">
   <UnstructuredGrid>
      <Piece NumberOfCells="3364" NumberOfPoints="1741">
         <Points>
            <DataArray Name="Points" NumberOfComponents="3" format="ascii" type="Float32">
0.0000 1.0000 0.0000
0.0000 1.0345 0.0000
0.0000 1.0690 0.0000
0.0000 1.1034 0.0000
0.0000 1.1379 0.0000
0.0000 1.1724 0.0000
0.0000 1.2069 0.0000
0.0000 1.2414 0.0000
0.0000 1.2759 0.0000
0.0000 1.3103 0.0000
0.0000 1.3448 0.0000
0.0000 1.3793 0.0000
0.0000 1.4138 0.0000
0.0000 1.4483 0.0000
0.0000 1.4828 0.0000
0.0000 1.5172 0.0000
0.0000 1.5517 0.0000
0.0000 1.5862 0.0000
0.0000 1.6207 0.0000
0.0000 1.6552 0.0000
0.0000 1.6897 0.0000
0.0000 1.7241 0.0000
0.0000 1.7586 0.0000
0.0000 1.7931 0.0000
0.0000 1.8276 0.0000
0.0000 1.8621 0.0000
0.0000 1.8966 0.0000
0.0000 1.9310 0.0000
0.0000 1.9655 0.0000
0.0000 2.0000 0.0000
0.0690 1.0000 0.0000
0.0690 1.0345 0.0000
0.0690 1.0690 0.0000
0.0690 1.1034 0.0000
0.0690 1.1379 0.0000
0.0690 1.1724 0.0000
0.0690 1.2069 0.0000
0.0690 1.2414 0.0000
0.0690 1.2759 0.0000
0.0690 1.3103 0.0000
0.0690 1.3448 0.0000
0.0690 1.3793 0.0000
0.0690 1.4138 0.0000
0.0690 1.4483 0.0000
0.0690 1.4828 0.0000
0.0690 1.5172 0.0000
0.0690 1.5517 0.0000
0.0690 1.5862 0.0000
0.0690 1.6207 0.0000
0.0690 1.6552 0.0000
0.0690 1.6897 0.0000
0.0690 1.7241 0.0000
0.0690 1.7586 0.0000
0.0690 1.7931 0.0000
0.0690 1.8276 0.0000
0.0690 1.8621 0.0000
0.0690 1.8966 0.0000
0.0690 1.9310 0.0000
0.0690 1.9655 0.0000
0.0690 2.0000 0.0000
0.1379 1.0000 0.0000
0.1379 1.0345 0.0000
0.1379 1.0690 0.0000
0.1379 1.1034 0.0000
0.1379 1.1379 0.0000
0.1379 1.1724 0.0000
0.1379 1.2069 0.0000
0.1379 1.2414 0.0000
0.1379 1.2759 0.0000
0.1379 1.3103 0.0000
0.1379 1.3448 0.0000
0.1379 1.3793 0.0000
0.1379 1.4138 0.0000
0.1379 1.4483 0.0000
0.1379 1.4828 0.0000
0.1379 1.5172 0.0000
0.1379 1.5517 0.0000
0.1379 1.5862 0.0000
0.1379 1.6207 0.0000
0.1379 1.6552 0.0000
0.1379 1.6897 0.0000
0.1379 1.7241 0.0000
0.1379 1.7586 0.0000
0.1379 1.7931 0.0000
0.1379 1.8276 0.0000
0.1379 1.8621 0.0000
0.1379 1.8966 0.0000
0.1379 1.9310 0.0000
0.1379 1.9655 0.0000
0.1379 2.0000 0.0000
0.2069 1.0000 0.0000
0.2069 1.0345 0.0000
0.2069 1.0690 0.0000
0.2069 1.1034 0.0000
0.2069 1.1379 0.0000
0.2069 1.1724 0.0000
0.2069 1.2069 0.0000
0.2069 1.2414 0.0000
0.2069 1.2759 0.0000
0.2069 1.3103 0.0000
0.2069 1.3448 0.0000
0.2069 1.3793 0.0000
0.2069 1.4138 0.0000
0.2069 1.4483 0.0000
0.2069 1.4828 0.0000
0.2069 1.5172 0.0000
0.2069 1.5517 0.0000
0.2069 1.5862 0.0000
0.2069 1.6207 0.0000
0.2069 1.6552 0.0000
0.2069 1.6897 0.0000
0.2069 1.7241 0.0000
0.2069 1.7586 0.0000
0.2069 1.7931 0.0000
0.2069 1.8276 0.0000
0.2069 1.8621 0.0000
0.2069 1.8966 0.0000
0.2069 1.9310 0.0000
0.2069 1.9655 0.0000
0.2069 2.0000 0.0000
0.2759 1.0000 0.0000
0.2759 1.0345 0.0000
0.2759 1.0690 0.0000
0.2759 1.1034 0.0000
0.2759 1.1379 0.0000
0.2759 1.1724 0.0000
0.2759 1.2069 0.0000
0.2759 1.2414 0.0000
0.2759 1.2759 0.0000
0.2759 1.3103 0.0000
0.2759 1.3448 0.0000
0.2759 1.3793 0.0000
0.2759 1.4138 0.0000
0.2759 1.4483 0.0000
0.2759 1.4828 0.0000
0.2759 1.5172 0.0000
0.2759 1.5517 0.0000
0.2759 1.5862 0.0000
0.2759 1.6207 0.0000
0.2759 1.6552 0.0000
0.2759 1.6897 0.0000
0.2759 1.7241 0.0000
0.2759 1.7586 0.0000
0.2759 1.7931 0.0000
0.2759 1.8276 0.0000
0.2759 1.8621 0.0000
0.2759 1.8966 0.0000
0.2759 1.9310 0.0000
0.2759 1.9655 0.0000
0.2759 2.0000 0.0000
0.3448 1.0000 0.0000
0.3448 1.0345 0.0000
0.3448 1.0690 0.0000
0.3448 1.1034 0.0000
0.3448 1.1379 0.0000
0.3448 1.1724 0.0000
0.3448 1.2069 0.0000
0.3448 1.2414 0.0000
0.3448 1.2759 0.0000
0.3448 1.3103 0.0000
0.3448 1.3448 0.0000
0.3448 1.3793 0.0000
0.3448 1.4138 0.0000
0.3448 1.4483 0.0000
0.3448 1.4828 0.0000
0.3448 1.5172 0.0000
0.3448 1.5517 0.0000
0.3448 1.5862 0.0000
0.3448 1.6207 0.0000
0.3448 1.6552 0.0000
0.3448 1.6897 0.0000
0.3448 1.7241 0.0000
0.3448 1.7586 0.0000
0.3448 1.7931 0.0000
0.3448 1.8276 0.0000
0.3448 1.8621 0.0000
0.3448 1.8966 0.0000
0.3448 1.9310 0.0000
0.3448 1.9655 0.0000
0.3448 2.0000 0.0000
0.4138 1.0000 0.0000
0.4138 1.0345 0.0000
0.4138 1.0690 0.0000
0.4138 1.1034 0.0000
0.4138 1.1379 0.0000
0.4138 1.1724 0.0000
0.4138 1.2069 0.0000
0.4138 1.2414 0.0000
0.4138 1.2759 0.0000
0.4138 1.3103 0.0000
0.4138 1.3448 0.0000
0.4138 1.3793 0.0000
0.4138 1.4138 0.0000
0.4138 1.4483 0.0000
0.4138 1.4828 0.0000
0.4138 1.5172 0.0000
0.4138 1.5517 0.0000
0.4138 1.5862 0.0000
0.4138 1.6207 0.0000
0.4138 1.6552 0.0000
0.4138 1.6897 0.0000
0.4138 1.7241 0.0000
0.4138 1.7586 0.0000
0.4138 1.7931 0.0000
0.4138 1.8276 0.0000
0.4138 1.8621 0.0000
0.4138 1.8966 0.0000
0.4138 1.9310 0.0000
0.4138 1.9655 0.0000
0.4138 2.0000 0.0000
0.4828 1.0000 0.0000
0.4828 1.0345 0.0000
0.4828 1.0690 0.0000
0.4828 1.1034 0.0000
0.4828 1.1379 0.0000
0.4828 1.1724 0.0000
0.4828 1.2069 0.0000
0.4828 1.2414 0.0000
0.4828 1.2759 0.0000
0.4828 1.3103 0.0000
0.4828 1.3448 0.0000
0.4828 1.3793 0.0000
0.4828 1.4138 0.0000
0.4828 1.4483 0.0000
0.4828 1.4828 0.0000
0.4828 1.5172 0.0000
0.4828 1.5517 0.0000
0.4828 1.5862 0.0000
0.4828 1.6207 0.0000
0.4828 1.6552 0.0000
0.4828 1.6897 0.0000
0.4828 1.7241 0.0000
0.4828 1.7586 0.0000
0.4828 1.7931 0.0000
0.4828 1.8276 0.0000
0.4828 1.8621 0.0000
0.4828 1.8966 0.0000
0.4828 1.9310 0.0000
0.4828 1.9655 0.0000
0.4828 2.0000 0.0000
0.5517 1.0000 0.0000
0.5517 1.0345 0.0000
0.5517 1.0690 0.0000
0.5517 1.1034 0.0000
0.5517 1.1379 0.0000
0.5517 1.1724 0.0000
0.5517 1.2069 0.0000
0.5517 1.2414 0.0000
0.5517 1.2759 0.0000
0.5517 1.3103 0.0000
0.5517 1.3448 0.0000
0.5517 1.3793 0.0000
0.5517 1.4138 0.0000
0.5517 1.4483 0.0000
0.5517 1.4828 0.0000
0.5517 1.5172 0.0000
0.5517 1.5517 0.0000
0.5517 1.5862 0.0000
0.5517 1.6207 0.0000
0.5517 1.6552 0.0000
0.5517 1.6897 0.0000
0.5517 1.7241 0.0000
0.5517 1.7586 0.0000
0.5517 1.7931 0.0000
0.5517 1.8276 0.0000
0.5517 1.8621 0.0000
0.5517 1.8966 0.0000
0.5517 1.9310 0.0000
0.5517 1.9655 0.0000
0.5517 2.0000 0.0000
0.6207 1.0000 0.0000
0.6207 1.0345 0.0000
0.6207 1.0690 0.0000
0.6207 1.1034 0.0000
0.6207 1.1379 0.0000
0.6207 1.1724 0.0000
0.6207 1.2069 0.0000
0.6207 1.2414 0.0000
0.6207 1.2759 0.0000
0.6207 1.3103 0.0000
0.6207 1.3448 0.0000
0.6207 1.3793 0.0000
0.6207 1.4138 0.0000
0.6207 1.4483 0.0000
0.6207 1.4828 0.0000
0.6207 1.5172 0.0000
0.6207 1.5517 0.0000
0.6207 1.5862 0.0000
0.6207 1.6207 0.0000
0.6207 1.6552 0.0000
0.6207 1.6897 0.0000
0.6207 1.7241 0.0000
0.6207 1.7586 0.0000
0.6207 1.7931 0.0000
0.6207 1.8276 0.0000
0.6207 1.8621 0.0000
0.6207 1.8966 0.0000
0.6207 1.9310 0.0000
0.6207 1.9655 0.0000
0.6207 2.0000 0.0000
0.6897 1.0000 0.0000
0.6897 1.0345 0.0000
0.6897 1.0690 0.0000
0.6897 1.1034 0.0000
0.6897 1.1379 0.0000
0.6897 1.1724 0.0000
0.6897 1.2069 0.0000
0.6897 1.2414 0.0000
0.6897 1.2759 0.0000
0.6897 1.3103 0.0000
0.6897 1.3448 0.0000
0.6897 1.3793 0.0000
0.6897 1.4138 0.0000
0.6897 1.4483 0.0000
0.6897 1.4828 0.0000
0.6897 1.5172 0.0000
0.6897 1.5517 0.0000
0.6897 1.5862 0.0000
0.6897 1.6207 0.0000
0.6897 1.6552 0.0000
0.6897 1.6897 0.0000
0.6897 1.7241 0.0000
0.6897 1.7586 0.0000
0.6897 1.7931 0.0000
0.6897 1.8276 0.0000
0.6897 1.8621 0.0000
0.6897 1.8966 0.0000
0.6897 1.9310 0.0000
0.6897 1.9655 0.0000
0.6897 2.0000 0.0000
0.7586 1.0000 0.0000
0.7586 1.0345 0.0000
0.7586 1.0690 0.0000
0.7586 1.1034 0.0000
0.7586 1.1379 0.0000
0.7586 1.1724 0.0000
0.7586 1.2069 0.0000
0.7586 1.2414 0.0000
0.7586 1.2759 0.0000
0.7586 1.3103 0.0000
0.7586 1.3448 0.0000
0.7586 1.3793 0.0000
0.7586 1.4138 0.0000
0.7586 1.4483 0.0000
0.7586 1.4828 0.0000
0.7586 1.5172 0.0000
0.7586 1.5517 0.0000
0.7586 1.5862 0.0000
0.7586 1.6207 0.0000
0.7586 1.6552 0.0000
0.7586 1.6897 0.0000
0.7586 1.7241 0.0000
0.7586 1.7586 0.0000
0.7586 1.7931 0.0000
0.7586 1.8276 0.0000
0.7586 1.8621 0.0000
0.7586 1.8966 0.0000
0.7586 1.9310 0.0000
0.7586 1.9655 0.0000
0.7586 2.0000 0.0000
0.8276 1.0000 0.0000
0.8276 1.0345 0.0000
0.8276 1.0690 0.0000
0.8276 1.1034 0.0000
0.8276 1.1379 0.0000
0.8276 1.1724 0.0000
0.8276 1.2069 0.0000
0.8276 1.2414 0.0000
0.8276 1.2759 0.0000
0.8276 1.3103 0.0000
0.8276 1.3448 0.0000
0.8276 1.3793 0.0000
0.8276 1.4138 0.0000
0.8276 1.4483 0.0000
0.8276 1.4828 0.0000
0.8276 1.5172 0.0000
0.8276 1.5517 0.0000
0.8276 1.5862 0.0000
0.8276 1.6207 0.0000
0.8276 1.6552 0.0000
0.8276 1.6897 0.0000
0.8276 1.7241 0.0000
0.8276 1.7586 0.0000
0.8276 1.7931 0.0000
0.8276 1.8276 0.0000
0.8276 1.8621 0.0000
0.8276 1.8966 0.0000
0.8276 1.9310 0.0000
0.8276 1.9655 0.0000
0.8276 2.0000 0.0000
0.8966 1.0000 0.0000
0.8966 1.0345 0.0000
0.8966 1.0690 0.0000
0.8966 1.1034 0.0000
0.8966 1.1379 0.0000
0.8966 1.1724 0.0000
0.8966 1.2069 0.0000
0.8966 1.2414 0.0000
0.8966 1.2759 0.0000
0.8966 1.3103 0.0000
0.8966 1.3448 0.0000
0.8966 1.3793 0.0000
0.8966 1.4138 0.0000
0.8966 1.4483 0.0000
0.8966 1.4828 0.0000
0.8966 1.5172 0.0000
0.8966 1.5517 0.0000
0.8966 1.5862 0.0000
0.8966 1.6207 0.0000
0.8966 1.6552 0.0000
0.8966 1.6897 0.0000
0.8966 1.7241 0.0000
0.8966 1.7586 0.0000
0.8966 1.7931 0.0000
0.8966 1.8276 0.0000
0.8966 1.8621 0.0000
0.8966 1.8966 0.0000
0.8966 1.9310 0.0000
0.8966 1.9655 0.0000
0.8966 2.0000 0.0000
0.9655 1.0000 0.0000
0.9655 1.0345 0.0000
0.9655 1.0690 0.0000
0.9655 1.1034 0.0000
0.9655 1.1379 0.0000
0.9655 1.1724 0.0000
0.9655 1.2069 0.0000
0.9655 1.2414 0.0000
0.9655 1.2759 0.0000
0.9655 1.3103 0.0000
0.9655 1.3448 0.0000
0.9655 1.3793 0.0000
0.9655 1.4138 0.0000
0.9655 1.4483 0.0000
0.9655 1.4828 0.0000
0.9655 1.5172 0.0000
0.9655 1.5517 0.0000
0.9655 1.5862 0.0000
0.9655 1.6207 0.0000
0.9655 1.6552 0.0000
0.9655 1.6897 0.0000
0.9655 1.7241 0.0000
0.9655 1.7586 0.0000
0.9655 1.7931 0.0000
0.9655 1.8276 0.0000
0.9655 1.8621 0.0000
0.9655 1.8966 0.0000
0.9655 1.9310 0.0000
0.9655 1.9655 0.0000
0.9655 2.0000 0.0000
1.0345 1.0000 0.0000
1.0345 1.0345 0.0000
1.0345 1.0690 0.0000
1.0345 1.1034 0.0000
1.0345 1.1379 0.0000
1.0345 1.1724 0.0000
1.0345 1.2069 0.0000
1.0345 1.2414 0.0000
1.0345 1.2759 0.0000
1.0345 1.3103 0.0000
1.0345 1.3448 0.0000
[...]
         <PointData>
            <DataArray Name="fValues" NumberOfComponents="3" format="ascii" type="Float64">
-1.39074e-23 -9.15909e-22        00000 
 1.26884e-23  1.01321e-21        00000 
-9.18167e-24 -1.20506e-21        00000 
 4.30268e-24  1.28462e-21        00000 
 8.21337e-26 -1.13038e-21        00000 
-2.38367e-24  8.07803e-22        00000 
 2.53515e-24 -4.51301e-22        00000 
-1.64841e-24  2.04633e-22        00000 
 7.73328e-25 -7.68103e-23        00000 
-2.79590e-25  2.46184e-23        00000 
 8.23251e-26 -6.97953e-24        00000 
-2.09737e-26  1.80664e-24        00000 
 4.87921e-27 -4.35699e-25        00000 
-1.07205e-27  9.86430e-26        00000 
 2.26791e-28 -2.12207e-26        00000 
-4.66943e-29  4.38784e-27        00000 
 9.41490e-30 -8.79885e-28        00000 
-1.86606e-30  1.72249e-28        00000 
 3.64500e-31 -3.30796e-29        00000 
-7.02993e-32  6.25486e-30        00000 
 1.34073e-32 -1.16770e-30        00000 
-2.53172e-33  2.15696e-31        00000 
 4.73863e-34 -3.94893e-32        00000 
-8.79972e-35  7.17524e-33        00000 
 1.62267e-35 -1.29536e-33        00000 
-2.97347e-36  2.32559e-34        00000 
 5.41834e-37 -4.15527e-35        00000 
-9.83325e-38  7.40019e-36        00000 
 1.82992e-38 -1.35139e-36        00000 
-6.37319e-39  4.63168e-37        00000 
 4.40992e-23  2.48834e-21        00000 
-4.05642e-23 -2.90981e-21        00000 
 2.93208e-23  3.75604e-21        00000 
-1.23464e-23 -4.15108e-21        00000 
-2.87558e-24  3.59106e-21        00000 
 9.66410e-24 -2.39965e-21        00000 
-8.55035e-24  1.21144e-21        00000 
 4.69523e-24 -4.83242e-22        00000 
-1.82841e-24  1.58826e-22        00000 
 5.46565e-25 -4.51988e-23        00000 
-1.37065e-25  1.16435e-23        00000 
 3.12931e-26 -2.80264e-24        00000 
-6.77574e-27  6.29012e-25        00000 
 1.41852e-27 -1.33841e-25        00000 
-2.89854e-28  2.73875e-26        00000 
 5.81004e-29 -5.44223e-27        00000 
-1.14595e-29  1.05719e-27        00000 
 2.22885e-30 -2.01705e-28        00000 
-4.28209e-31  3.79289e-29        00000 
 8.13784e-32 -7.04760e-30        00000 
-1.53169e-32  1.29658e-30        00000 
 2.85832e-33 -2.36555e-31        00000 
-5.29340e-34  4.28538e-32        00000 
 9.73654e-35 -7.71638e-33        00000 
-1.78007e-35  1.38220e-33        00000 
 3.23679e-36 -2.46468e-34        00000 
-5.85722e-37  4.37774e-35        00000 
 1.05630e-37 -7.75578e-36        00000 
-1.95404e-38  1.40954e-36        00000 
 6.77268e-39 -4.81251e-37        00000 
-2.62049e-22 -1.18057e-20        00000 
 2.47615e-22  1.52824e-20        00000 
-1.83213e-22 -2.24680e-20        00000 
 6.57664e-23  2.61210e-20        00000 
 3.96427e-23 -2.19214e-20        00000 
-7.41165e-23  1.31312e-20        00000 
 5.24825e-23 -5.62534e-21        00000 
-2.25072e-23  1.85757e-21        00000 
 6.60653e-24 -5.12407e-22        00000 
-1.51683e-24  1.24992e-22        00000 
 3.17858e-25 -2.92092e-23        00000 
-6.43521e-26  6.22066e-24        00000 
 1.28114e-26 -1.24982e-24        00000 
-2.51837e-27  2.42399e-25        00000 
 4.89070e-28 -4.59272e-26        00000 
-9.38549e-29  8.55758e-27        00000 
 1.78093e-29 -1.57452e-27        00000 
-3.34458e-30  2.86845e-28        00000 
 6.22310e-31 -5.18435e-29        00000 
-1.14843e-31  9.30923e-30        00000 
 2.10409e-32 -1.66258e-30        00000 
-3.83067e-33  2.95581e-31        00000 
 6.93542e-34 -5.23463e-32        00000 
-1.24954e-34  9.23954e-33        00000 
 2.24161e-35 -1.62616e-33        00000 
-4.00603e-36  2.85484e-34        00000 
 7.13530e-37 -5.00096e-35        00000 
-1.26822e-37  8.75088e-36        00000 
 2.31364e-38 -1.57211e-36        00000 
-7.92786e-39  5.31768e-37        00000 
 1.53164e-21  5.08483e-20        00000 
-1.55715e-21 -7.84682e-20        00000 
 1.24222e-21  1.39511e-19        00000 
-3.50049e-22 -1.74234e-19        00000 
-4.39141e-22  1.38982e-19        00000 
 5.61995e-22 -6.93643e-20        00000 
-2.97126e-22  2.32465e-20        00000 
 8.85555e-23 -6.36887e-21        00000 
-1.80184e-23  1.41548e-21        00000 
 3.44376e-24 -3.36341e-22        00000 
-6.57933e-25  6.75222e-23        00000 
 1.26052e-25 -1.27570e-23        00000 
-2.40562e-26  2.34643e-24        00000 
 4.55126e-27 -4.24601e-25        00000 
-8.52040e-28  7.59580e-26        00000 
 1.57835e-28 -1.34735e-26        00000 
-2.89554e-29  2.37468e-27        00000 
 5.26672e-30 -4.16484e-28        00000 
-9.50929e-31  7.27689e-29        00000 
 1.70618e-31 -1.26768e-29        00000 
-3.04499e-32  2.20323e-30        00000 
 5.40981e-33 -3.82211e-31        00000 
-9.57433e-34  6.62058e-32        00000 
 1.68893e-34 -1.14540e-32        00000 
-2.97095e-35  1.97962e-33        00000 
 5.21353e-36 -3.41853e-34        00000 
-9.13003e-37  5.89924e-35        00000 
 1.59735e-37 -1.01823e-35        00000 
-2.86964e-38  1.80555e-36        00000 
 9.70778e-39 -6.04205e-37        00000 
-7.90322e-21 -1.62079e-19        00000 
 9.91573e-21  3.65772e-19        00000 
-9.37728e-21 -8.57927e-19        00000 
 1.61775e-21  1.23295e-18        00000 
 4.69266e-21 -9.01101e-19        00000 
-4.01683e-21  2.86044e-19        00000 
 1.29664e-21 -8.64106e-20        00000 
-2.06728e-22  1.43314e-20        00000 
 3.50651e-23 -4.07833e-21        00000 
-6.42036e-24  7.27507e-22        00000 
 1.20889e-24 -1.26615e-22        00000 
-2.27452e-25  2.20577e-23        00000 
 4.23236e-26 -3.82775e-24        00000 
-7.77358e-27  6.61030e-25        00000 
 1.41077e-27 -1.13675e-25        00000 
-2.53439e-28  1.94848e-26        00000 
 4.51504e-29 -3.33194e-27        00000 
-7.98917e-30  5.68828e-28        00000 
 1.40591e-30 -9.70033e-29        00000 
-2.46309e-31  1.65308e-29        00000 
 4.29970e-32 -2.81600e-30        00000 
-7.48382e-33  4.79625e-31        00000 
 1.29948e-33 -8.16899e-32        00000 
-2.25200e-34  1.39149e-32        00000 
 3.89644e-35 -2.37068e-33        00000 
-6.73279e-36  4.03986e-34        00000 
 1.16214e-36 -6.88627e-35        00000 
-2.00581e-37  1.17508e-35        00000 
 3.55575e-38 -2.06070e-36        00000 
-1.18943e-38  6.83210e-37        00000 
 2.31870e-20  1.61800e-19        00000 
-6.45379e-20 -8.22749e-19        00000 
 8.49286e-20  5.13683e-18        00000 
-7.10000e-22 -7.57243e-18        00000 
-5.19240e-20  5.03913e-18        00000 
 2.23682e-20 -7.42275e-19        00000 
-1.97206e-21  1.78086e-19        00000 
 3.01650e-22 -3.54912e-20        00000 
-5.73721e-23  7.31990e-21        00000 
 1.10965e-23 -1.14656e-21        00000 
-2.09310e-24  1.91609e-22        00000 
 3.84835e-25 -3.21708e-23        00000 
-6.93673e-26  5.39534e-24        00000 
 1.23236e-26 -9.03849e-25        00000 
-2.16641e-27  1.51346e-25        00000 
 3.77918e-28 -2.53441e-26        00000 
-6.55513e-29  4.24589e-27        00000 
 1.13219e-29 -7.11783e-28        00000 
-1.94926e-30  1.19420e-28        00000 
 3.34788e-31 -2.00535e-29        00000 
-5.73949e-32  3.37062e-30        00000 
 9.82591e-33 -5.67075e-31        00000 
-1.68042e-33  9.54953e-32        00000 
 2.87157e-34 -1.60964e-32        00000 
-4.90422e-35  2.71561e-33        00000 
 8.37221e-36 -4.58550e-34        00000 
-1.42888e-36  7.74962e-35        00000 
 2.44014e-37 -1.31178e-35        00000 
-4.28079e-38  2.28223e-36        00000 
 1.41936e-38 -7.51575e-37        00000 
-3.41326e-20  1.22769e-19        00000 
 1.43590e-19  2.14615e-19        00000 
-1.23240e-18 -1.03817e-17        00000 
-3.91182e-19  1.79791e-01        00000 
 5.04091e-19 -4.16792e-18        00000 
 5.91785e-22  2.11138e-18        00000 
 1.58812e-21 -3.99006e-19        00000 
-4.76519e-22  4.82788e-20        00000 
 1.01011e-22 -8.22674e-21        00000 
-1.91046e-23  1.47436e-21        00000 
 3.43589e-24 -2.45100e-22        00000 
-6.02204e-25  4.02555e-23        00000 
 1.04035e-25 -6.60287e-24        00000 
-1.78198e-26  1.08472e-24        00000 
 3.03629e-27 -1.78620e-25        00000 
-5.15651e-28  2.94871e-26        00000 
 8.73915e-29 -4.87959e-27        00000 
-1.47920e-29  8.09304e-28        00000 
 2.50180e-30 -1.34506e-28        00000 
-4.22964e-31  2.23974e-29        00000 
 7.14964e-32 -3.73606e-30        00000 
-1.20856e-32  6.24211e-31        00000 
 2.04319e-33 -1.04448e-31        00000 
-3.45497e-34  1.75012e-32        00000 
 5.84386e-35 -2.93627e-33        00000 
-9.88766e-36  4.93228e-34        00000 
 1.67359e-36 -8.29465e-35        00000 
-2.83598e-37  1.39746e-35        00000 
 4.93760e-38 -2.41996e-36        00000 
-1.62663e-38  7.93735e-37        00000 
 2.00057e-20 -6.35337e-19        00000 
-8.29454e-20  2.49721e-18        00000 
 3.19848e-18 -1.79791e-01        00000 
 6.25988e-18  8.25149e-01        00000 
-3.12287e-18 -1.79791e-01        00000 
 6.84338e-21 -2.36826e-18        00000 
-5.10955e-21  4.91443e-19        00000 
 1.02154e-21 -6.76915e-20        00000 
-1.78916e-22  1.08840e-20        00000 
 3.02114e-23 -1.69042e-21        00000 
-5.03794e-24  2.68988e-22        00000 
 8.36508e-25 -4.32117e-23        00000 
-1.38755e-25  6.99231e-24        00000 
 2.30253e-26 -1.13816e-24        00000 
-3.82479e-27  1.86168e-25        00000 
 6.36158e-28 -3.05763e-26        00000 
-1.05953e-28  5.03934e-27        00000 
 1.76703e-29 -8.33026e-28        00000 
-2.95083e-30  1.38061e-28        00000 
 4.93378e-31 -2.29336e-29        00000 
-8.25890e-32  3.81727e-30        00000 
 1.38401e-32 -6.36530e-31        00000 
-2.32169e-33  1.06315e-31        00000 
 3.89840e-34 -1.77836e-32        00000 
-6.55182e-35  2.97874e-33        00000 
 1.10207e-35 -4.99565e-34        00000 
-1.85529e-36  8.38811e-35        00000 
 3.12807e-37 -1.41103e-35        00000 
-5.41946e-38  2.43955e-36        00000 
 1.77796e-38 -7.99024e-37        00000 
 6.37497e-21  7.45364e-19        00000 
-5.71587e-20 -3.24678e-18        00000 
 1.27929e-18  4.15288e-18        00000 
-6.85731e-19  1.79791e-01        00000 
 1.75779e-18 -5.09756e-18        00000 
-9.90128e-20  1.66941e-18        00000 
 1.17983e-20 -2.41059e-19        00000 
-1.66724e-21  6.77851e-20        00000 
 2.51108e-22 -1.02889e-20        00000 
-3.90332e-23  1.53730e-21        00000 
 6.18176e-24 -2.41706e-22        00000 
-9.91192e-25  3.88635e-23        00000 
 1.60341e-25 -6.32020e-24        00000 
-2.61113e-26  1.03501e-24        00000 
 4.27455e-27 -1.70322e-25        00000 
-7.02736e-28  2.81323e-26        00000 
 1.15936e-28 -4.66046e-27        00000 
-1.91835e-29  7.73977e-28        00000 
 3.18228e-30 -1.28809e-28        00000 
-5.29057e-31  2.14764e-29        00000 
 8.81257e-32 -3.58661e-30        00000 
-1.47042e-32  5.99845e-31        00000 
 2.45721e-33 -1.00453e-31        00000 
-4.11185e-34  1.68425e-32        00000 
 6.88923e-35 -2.82702e-33        00000 
-1.15556e-35  4.74996e-34        00000 
 1.94034e-36 -7.98858e-35        00000 
-3.26365e-37  1.34574e-35        00000 
 5.64121e-38 -2.32971e-36        00000 
-1.84706e-38  7.63829e-37        00000 
-1.49637e-20 -3.60092e-19        00000 
 6.29196e-20  4.54605e-19        00000 
-1.38563e-19 -1.27507e-19        00000 
 1.83676e-19  6.01203e-18        00000 
-1.76254e-19 -1.53013e-19        00000 
 8.59133e-20 -2.99183e-19        00000 
-1.16633e-20  1.03996e-19        00000 
 1.66932e-21 -2.28995e-20        00000 
-2.50420e-22  5.32288e-21        00000 
 3.87234e-23 -9.79276e-22        00000 
-6.10821e-24  1.68051e-22        00000 
 9.76756e-25 -2.84385e-23        00000 
-1.57735e-25  4.79429e-24        00000 
 2.56610e-26 -8.07163e-25        00000 
-4.19856e-27  1.35826e-25        00000 
 6.90093e-28 -2.28537e-26        00000 
-1.13850e-28  3.84574e-27        00000 
 1.88411e-29 -6.47313e-28        00000 
-3.12621e-30  1.08992e-28        00000 
 5.19888e-31 -1.83589e-29        00000 
-8.66266e-32  3.09375e-30        00000 
 1.44590e-32 -5.21577e-31        00000 
-2.41707e-33  8.79733e-32        00000 
 4.04604e-34 -1.48451e-32        00000 
-6.78115e-35  2.50620e-33        00000 
 1.13778e-35 -4.23298e-34        00000 
-1.91101e-36  7.15291e-35        00000 
 3.21514e-37 -1.21017e-35        00000 
-5.55866e-38  2.10359e-36        00000 
 1.82037e-38 -6.92024e-37        00000 
 7.64818e-21  7.03893e-20        00000 
-1.24705e-20 -6.95454e-20        00000 
 2.21221e-20  1.52445e-19        00000 
-2.83768e-20 -2.71229e-19        00000 
 2.58856e-20  2.26619e-19        00000 
-1.54541e-20  2.49338e-21        00000 
 5.33285e-21 -1.93506e-20        00000 
-1.01172e-21  7.20481e-21        00000 
 1.73285e-22 -1.87070e-21        00000 
-2.88889e-23  4.36727e-22        00000 
 4.78110e-24 -8.85298e-23        00000 
-7.90439e-25  1.66440e-23        00000 
 1.30820e-25 -3.01538e-24        00000 
-2.16892e-26  5.35279e-25        00000 
 3.60278e-27 -9.38489e-26        00000 
-5.99559e-28  1.63208e-26        00000 
 9.99472e-29 -2.82236e-27        00000 
-1.66874e-29  4.86108e-28        00000 
 2.79013e-30 -8.34769e-29        00000 
-4.67113e-31  1.43033e-29        00000 
 7.82939e-32 -2.44666e-30        00000 
-1.31371e-32  4.17978e-31        00000 
 2.20644e-33 -7.13348e-32        00000 
-3.70916e-34  1.21652e-32        00000 
 6.24048e-35 -2.07339e-33        00000 
-1.05073e-35  3.53225e-34        00000 
 1.77044e-36 -6.01568e-35        00000 
-2.98739e-37  1.02508e-35        00000 
 5.17943e-38 -1.79406e-36        00000 
-1.70015e-38  5.93549e-37        00000 
-1.84036e-21 -1.32289e-20        00000 
 2.40984e-21  1.84342e-20        00000 
-3.60686e-21 -5.46985e-20        00000 
 4.37790e-21  4.12882e-20        00000 
-4.00247e-21 -4.42230e-20        00000 
 2.65530e-21  1.08425e-20        00000 
-1.22242e-21  9.10237e-22        00000 
 3.78722e-22 -1.36826e-21        00000 
-8.34932e-23  5.27608e-22        00000 
 1.61686e-23 -1.48381e-22        00000 
-2.95203e-24  3.60469e-23        00000 
 5.22938e-25 -7.80209e-24        00000 
-9.10875e-26  1.56751e-24        00000 
 1.57082e-26 -3.00704e-25        00000 
-2.69219e-27  5.59906e-26        00000 
 4.59585e-28 -1.02169e-26        00000 
-7.82532e-29  1.83787e-27        00000 
 1.33014e-29 -3.27166e-28        00000 
-2.25839e-30  5.77824e-29        00000 
 3.83160e-31 -1.01434e-29        00000 
-6.49766e-32  1.77213e-30        00000 
 1.10157e-32 -3.08428e-31        00000 
-1.86724e-33  5.35152e-32        00000 
 3.16495e-34 -9.26211e-33        00000 
-5.36467e-35  1.59972e-33        00000 
 9.09388e-36 -2.75826e-34        00000 
-1.54174e-36  4.74913e-35        00000 
 2.61621e-37 -8.17385e-36        00000 
-4.56050e-38  1.44431e-36        00000 
 1.50375e-38 -4.81643e-37        00000 
 3.78591e-22  4.84519e-21        00000 
-4.48145e-22 -3.55696e-21        00000 
 5.95028e-22  6.41832e-21        00000 
-6.87103e-22 -1.10963e-20        00000 
 6.32086e-22  8.09262e-21        00000 
-4.49258e-22 -3.03487e-21        00000 
 2.41288e-22  5.20200e-22        00000 
-9.63542e-23  1.10983e-22        00000 
 2.88185e-23 -1.02906e-22        00000 
-6.86173e-24  4.00067e-23        00000 
 1.44365e-24 -1.17662e-23        00000 
-2.83173e-25  2.97652e-24        00000 
 5.32377e-26 -6.77431e-25        00000 
-9.74077e-27  1.43321e-25        00000 
 1.75010e-27 -2.88379e-26        00000 
-3.10479e-28  5.60183e-27        00000 
 5.45830e-29 -1.06086e-27        00000 
-9.53195e-30  1.97149e-28        00000 
 1.65625e-30 -3.61155e-29        00000 
-2.86685e-31  6.54246e-30        00000 
 4.94755e-32 -1.17475e-30        00000 
-8.51843e-33  2.09438e-31        00000 
 1.46394e-33 -3.71229e-32        00000 
-2.51211e-34  6.54856e-33        00000 
 4.30559e-35 -1.15057e-33        00000 
-7.37232e-36  2.01474e-34        00000 
 1.26136e-36 -3.51803e-35        00000 
-2.15845e-37  6.13328e-36        00000 
 3.79288e-38 -1.09715e-36        00000 
-1.25903e-38  3.69623e-37        00000 
-7.26327e-23 -7.37572e-22        00000 
 8.11441e-23  8.16101e-22        00000 
-9.90079e-23 -1.17626e-21        00000 
 1.09650e-22  1.51557e-21        00000 
-1.01213e-22 -1.26357e-21        00000 
 7.54863e-23  6.45998e-22        00000 
-4.47844e-23 -1.97552e-22        00000 
 2.09289e-23  2.29534e-23        00000 
-7.70179e-24  1.12177e-23        00000 
 2.27646e-24 -8.04899e-24        00000 
-5.67058e-25  3.11032e-24        00000 
 1.26394e-25 -9.40134e-25        00000 
-2.62156e-26  2.46073e-25        00000 
 5.18184e-27 -5.82989e-26        00000 
-9.90656e-28  1.28607e-26        00000 
 1.84928e-28 -2.69387e-27        00000 
-3.39207e-29  5.43097e-28        00000 
 6.14030e-30 -1.06379e-28        00000 
-1.10028e-30  2.03802e-29        00000 
 1.95599e-31 -3.83720e-30        00000 
-3.45532e-32  7.12536e-31        00000 
 6.07298e-33 -1.30838e-31        00000 
-1.06296e-33  2.38054e-32        00000 
 1.85417e-34 -4.29845e-33        00000 
-3.22517e-35  7.71217e-34        00000 
 5.59662e-36 -1.37626e-34        00000 
-9.69258e-37  2.44479e-35        00000 
 1.67717e-37 -4.32969e-36        00000 
-2.97877e-38  7.86259e-37        00000 
 9.97587e-39 -2.68199e-37        00000 
 1.33996e-23  1.36906e-22        00000 
-1.44342e-23 -1.54758e-22        00000 
 1.65776e-23  1.99326e-22        00000 
-1.77395e-23 -2.28528e-22        00000 
 1.63825e-23  1.96511e-22        00000 
-1.26489e-23 -1.18819e-22        00000 
 8.05111e-24  4.89796e-23        00000 
-4.19351e-24 -1.24940e-23        00000 
 1.78419e-24  7.30464e-25        00000 
-6.24693e-25  1.05756e-24        00000 
 1.83917e-25 -6.45569e-25        00000 
-4.71869e-26  2.46466e-25        00000 
 1.09667e-26 -7.58133e-26        00000 
-2.37652e-27  2.03928e-26        00000 
 4.89790e-28 -4.99160e-27        00000 
-9.72993e-29  1.13989e-27        00000 
 1.88040e-29 -2.47078e-28        00000 
-3.55837e-30  5.14608e-29        00000 
 6.62422e-31 -1.03908e-29        00000 
-1.21726e-31  2.04728e-30        00000 
 2.21366e-32 -3.95525e-31        00000 
-3.99170e-33  7.52031e-32        00000 
 7.14787e-34 -1.41121e-32        00000 
-1.27256e-34  2.61937e-33        00000 
 2.25459e-35 -4.81741e-34        00000 
-3.97804e-36  8.79119e-35        00000 
 6.99457e-37 -1.59368e-35        00000 
-1.22722e-37  2.87527e-36        00000 
 2.20883e-38 -5.31514e-37        00000 
-7.47938e-39  1.83982e-37        00000 
-2.41263e-24 -2.55159e-23        00000 
 2.53675e-24  2.79789e-23        00000 
-2.78807e-24 -3.32641e-23        00000 
 2.90118e-24  3.58512e-23        00000 
-2.67525e-24 -3.11727e-23        00000 
 2.11865e-24  2.07138e-23        00000 
-1.42089e-24 -1.02210e-23        00000 
 8.01610e-25  3.59158e-24        00000 
-3.79561e-25 -7.66055e-25        00000 
 1.51282e-25 -1.25193e-26        00000 
-5.12874e-26  9.64714e-26        00000 
 1.50824e-26 -5.26573e-26        00000 
-3.95148e-27  1.98246e-26        00000 
 9.47682e-28 -6.16823e-27        00000 
-2.12665e-28  1.69542e-27        00000 
 4.53866e-29 -4.26245e-28        00000 
-9.32155e-30  1.00202e-28        00000 
 1.85828e-30 -2.23665e-29        00000 
-3.61862e-31  4.79369e-30        00000 
 6.91559e-32 -9.94688e-31        00000 
-1.30174e-32  2.01078e-31        00000 
 2.42000e-33 -3.97903e-32        00000 
-4.45282e-34  7.73638e-33        00000 
 8.12296e-35 -1.48221e-33        00000 
-1.47108e-35  2.80477e-34        00000 
 2.64774e-36 -5.25180e-35        00000 
-4.74055e-37  9.74572e-36        00000 
 8.45657e-38 -1.79629e-36        00000 
-1.54650e-38  3.38944e-37        00000 
 5.30606e-39 -1.19320e-37        00000 
 4.27498e-25  4.64945e-24        00000 
-4.42053e-25 -4.95097e-24        00000 
 4.70365e-25  5.55039e-24        00000 
-4.78493e-25 -5.74657e-24        00000 
 4.40085e-25  5.02362e-24        00000 
-3.55162e-25 -3.54216e-24        00000 
 2.47943e-25  1.96435e-24        00000 
-1.48727e-25 -8.35369e-25        00000 
 7.64542e-26  2.57008e-25        00000 
-3.37126e-26 -4.46867e-26        00000 
 1.28205e-26 -5.86183e-27        00000 
-4.25139e-27  8.64523e-27        00000 
 1.25014e-27 -4.34672e-27        00000 
-3.32696e-28  1.61375e-27        00000 
 8.17617e-29 -5.05886e-28        00000 
-1.88746e-29  1.41452e-28        00000 
 4.14823e-30 -3.63575e-29        00000 