<?xml version="1.0" encoding="utf-8"?>
<VTKFile byte_order="LittleEndian" type="UnstructuredGrid" version="0.1">
   <UnstructuredGrid>
      <Piece NumberOfCells="3364" NumberOfPoints="1741">
         <Points>
            <DataArray Name="Points" NumberOfComponents="3" format="ascii" type="Float32">
0.0000 1.0000 0.0000
0.0000 1.0345 0.0000
0.0000 1.0690 0.0000
0.0000 1.1034 0.0000
0.0000 1.1379 0.0000
0.0000 1.1724 0.0000
0.0000 1.2069 0.0000
0.0000 1.2414 0.0000
0.0000 1.2759 0.0000
0.0000 1.3103 0.0000
0.0000 1.3448 0.0000
0.0000 1.3793 0.0000
0.0000 1.4138 0.0000
0.0000 1.4483 0.0000
0.0000 1.4828 0.0000
0.0000 1.5172 0.0000
0.0000 1.5517 0.0000
0.0000 1.5862 0.0000
0.0000 1.6207 0.0000
0.0000 1.6552 0.0000
0.0000 1.6897 0.0000
0.0000 1.7241 0.0000
0.0000 1.7586 0.0000
0.0000 1.7931 0.0000
0.0000 1.8276 0.0000
0.0000 1.8621 0.0000
0.0000 1.8966 0.0000
0.0000 1.9310 0.0000
0.0000 1.9655 0.0000
0.0000 2.0000 0.0000
0.0690 1.0000 0.0000
0.0690 1.0345 0.0000
0.0690 1.0690 0.0000
0.0690 1.1034 0.0000
0.0690 1.1379 0.0000
0.0690 1.1724 0.0000
0.0690 1.2069 0.0000
0.0690 1.2414 0.0000
0.0690 1.2759 0.0000
0.0690 1.3103 0.0000
0.0690 1.3448 0.0000
0.0690 1.3793 0.0000
0.0690 1.4138 0.0000
0.0690 1.4483 0.0000
0.0690 1.4828 0.0000
0.0690 1.5172 0.0000
0.0690 1.5517 0.0000
0.0690 1.5862 0.0000
0.0690 1.6207 0.0000
0.0690 1.6552 0.0000
0.0690 1.6897 0.0000
0.0690 1.7241 0.0000
0.0690 1.7586 0.0000
0.0690 1.7931 0.0000
0.0690 1.8276 0.0000
0.0690 1.8621 0.0000
0.0690 1.8966 0.0000
0.0690 1.9310 0.0000
0.0690 1.9655 0.0000
0.0690 2.0000 0.0000
0.1379 1.0000 0.0000
0.1379 1.0345 0.0000
0.1379 1.0690 0.0000
0.1379 1.1034 0.0000
0.1379 1.1379 0.0000
0.1379 1.1724 0.0000
0.1379 1.2069 0.0000
0.1379 1.2414 0.0000
0.1379 1.2759 0.0000
0.1379 1.3103 0.0000
0.1379 1.3448 0.0000
0.1379 1.3793 0.0000
0.1379 1.4138 0.0000
0.1379 1.4483 0.0000
0.1379 1.4828 0.0000
0.1379 1.5172 0.0000
0.1379 1.5517 0.0000
0.1379 1.5862 0.0000
0.1379 1.6207 0.0000
0.1379 1.6552 0.0000
0.1379 1.6897 0.0000
0.1379 1.7241 0.0000
0.1379 1.7586 0.0000
0.1379 1.7931 0.0000
0.1379 1.8276 0.0000
0.1379 1.8621 0.0000
0.1379 1.8966 0.0000
0.1379 1.9310 0.0000
0.1379 1.9655 0.0000
0.1379 2.0000 0.0000
0.2069 1.0000 0.0000
0.2069 1.0345 0.0000
0.2069 1.0690 0.0000
0.2069 1.1034 0.0000
0.2069 1.1379 0.0000
0.2069 1.1724 0.0000
0.2069 1.2069 0.0000
0.2069 1.2414 0.0000
0.2069 1.2759 0.0000
0.2069 1.3103 0.0000
0.2069 1.3448 0.0000
0.2069 1.3793 0.0000
0.2069 1.4138 0.0000
0.2069 1.4483 0.0000
0.2069 1.4828 0.0000
0.2069 1.5172 0.0000
0.2069 1.5517 0.0000
0.2069 1.5862 0.0000
0.2069 1.6207 0.0000
0.2069 1.6552 0.0000
0.2069 1.6897 0.0000
0.2069 1.7241 0.0000
0.2069 1.7586 0.0000
0.2069 1.7931 0.0000
0.2069 1.8276 0.0000
0.2069 1.8621 0.0000
0.2069 1.8966 0.0000
0.2069 1.9310 0.0000
0.2069 1.9655 0.0000
0.2069 2.0000 0.0000
0.2759 1.0000 0.0000
0.2759 1.0345 0.0000
0.2759 1.0690 0.0000
0.2759 1.1034 0.0000
0.2759 1.1379 0.0000
0.2759 1.1724 0.0000
0.2759 1.2069 0.0000
0.2759 1.2414 0.0000
0.2759 1.2759 0.0000
0.2759 1.3103 0.0000
0.2759 1.3448 0.0000
0.2759 1.3793 0.0000
0.2759 1.4138 0.0000
0.2759 1.4483 0.0000
0.2759 1.4828 0.0000
0.2759 1.5172 0.0000
0.2759 1.5517 0.0000
0.2759 1.5862 0.0000
0.2759 1.6207 0.0000
0.2759 1.6552 0.0000
0.2759 1.6897 0.0000
0.2759 1.7241 0.0000
0.2759 1.7586 0.0000
0.2759 1.7931 0.0000
0.2759 1.8276 0.0000
0.2759 1.8621 0.0000
0.2759 1.8966 0.0000
0.2759 1.9310 0.0000
0.2759 1.9655 0.0000
0.2759 2.0000 0.0000
0.3448 1.0000 0.0000
0.3448 1.0345 0.0000
0.3448 1.0690 0.0000
0.3448 1.1034 0.0000
0.3448 1.1379 0.0000
0.3448 1.1724 0.0000
0.3448 1.2069 0.0000
0.3448 1.2414 0.0000
0.3448 1.2759 0.0000
0.3448 1.3103 0.0000
0.3448 1.3448 0.0000
0.3448 1.3793 0.0000
0.3448 1.4138 0.0000
0.3448 1.4483 0.0000
0.3448 1.4828 0.0000
0.3448 1.5172 0.0000
0.3448 1.5517 0.0000
0.3448 1.5862 0.0000
0.3448 1.6207 0.0000
0.3448 1.6552 0.0000
0.3448 1.6897 0.0000
0.3448 1.7241 0.0000
0.3448 1.7586 0.0000
0.3448 1.7931 0.0000
0.3448 1.8276 0.0000
0.3448 1.8621 0.0000
0.3448 1.8966 0.0000
0.3448 1.9310 0.0000
0.3448 1.9655 0.0000
0.3448 2.0000 0.0000
0.4138 1.0000 0.0000
0.4138 1.0345 0.0000
0.4138 1.0690 0.0000
0.4138 1.1034 0.0000
0.4138 1.1379 0.0000
0.4138 1.1724 0.0000
0.4138 1.2069 0.0000
0.4138 1.2414 0.0000
0.4138 1.2759 0.0000
0.4138 1.3103 0.0000
0.4138 1.3448 0.0000
0.4138 1.3793 0.0000
0.4138 1.4138 0.0000
0.4138 1.4483 0.0000
0.4138 1.4828 0.0000
0.4138 1.5172 0.0000
0.4138 1.5517 0.0000
0.4138 1.5862 0.0000
0.4138 1.6207 0.0000
0.4138 1.6552 0.0000
0.4138 1.6897 0.0000
0.4138 1.7241 0.0000
0.4138 1.7586 0.0000
0.4138 1.7931 0.0000
0.4138 1.8276 0.0000
0.4138 1.8621 0.0000
0.4138 1.8966 0.0000
0.4138 1.9310 0.0000
0.4138 1.9655 0.0000
0.4138 2.0000 0.0000
0.4828 1.0000 0.0000
0.4828 1.0345 0.0000
0.4828 1.0690 0.0000
0.4828 1.1034 0.0000
0.4828 1.1379 0.0000
0.4828 1.1724 0.0000
0.4828 1.2069 0.0000
0.4828 1.2414 0.0000
0.4828 1.2759 0.0000
0.4828 1.3103 0.0000
0.4828 1.3448 0.0000
0.4828 1.3793 0.0000
0.4828 1.4138 0.0000
0.4828 1.4483 0.0000
0.4828 1.4828 0.0000
0.4828 1.5172 0.0000
0.4828 1.5517 0.0000
0.4828 1.5862 0.0000
0.4828 1.6207 0.0000
0.4828 1.6552 0.0000
0.4828 1.6897 0.0000
0.4828 1.7241 0.0000
0.4828 1.7586 0.0000
0.4828 1.7931 0.0000
0.4828 1.8276 0.0000
0.4828 1.8621 0.0000
0.4828 1.8966 0.0000
0.4828 1.9310 0.0000
0.4828 1.9655 0.0000
0.4828 2.0000 0.0000
0.5517 1.0000 0.0000
0.5517 1.0345 0.0000
0.5517 1.0690 0.0000
0.5517 1.1034 0.0000
0.5517 1.1379 0.0000
0.5517 1.1724 0.0000
0.5517 1.2069 0.0000
0.5517 1.2414 0.0000
0.5517 1.2759 0.0000
0.5517 1.3103 0.0000
0.5517 1.3448 0.0000
0.5517 1.3793 0.0000
0.5517 1.4138 0.0000
0.5517 1.4483 0.0000
0.5517 1.4828 0.0000
0.5517 1.5172 0.0000
0.5517 1.5517 0.0000
0.5517 1.5862 0.0000
0.5517 1.6207 0.0000
0.5517 1.6552 0.0000
0.5517 1.6897 0.0000
0.5517 1.7241 0.0000
0.5517 1.7586 0.0000
0.5517 1.7931 0.0000
0.5517 1.8276 0.0000
0.5517 1.8621 0.0000
0.5517 1.8966 0.0000
0.5517 1.9310 0.0000
0.5517 1.9655 0.0000
0.5517 2.0000 0.0000
0.6207 1.0000 0.0000
0.6207 1.0345 0.0000
0.6207 1.0690 0.0000
0.6207 1.1034 0.0000
0.6207 1.1379 0.0000
0.6207 1.1724 0.0000
0.6207 1.2069 0.0000
0.6207 1.2414 0.0000
0.6207 1.2759 0.0000
0.6207 1.3103 0.0000
0.6207 1.3448 0.0000
0.6207 1.3793 0.0000
0.6207 1.4138 0.0000
0.6207 1.4483 0.0000
0.6207 1.4828 0.0000
0.6207 1.5172 0.0000
0.6207 1.5517 0.0000
0.6207 1.5862 0.0000
0.6207 1.6207 0.0000
0.6207 1.6552 0.0000
0.6207 1.6897 0.0000
0.6207 1.7241 0.0000
0.6207 1.7586 0.0000
0.6207 1.7931 0.0000
0.6207 1.8276 0.0000
0.6207 1.8621 0.0000
0.6207 1.8966 0.0000
0.6207 1.9310 0.0000
0.6207 1.9655 0.0000
0.6207 2.0000 0.0000
0.6897 1.0000 0.0000
0.6897 1.0345 0.0000
0.6897 1.0690 0.0000
0.6897 1.1034 0.0000
0.6897 1.1379 0.0000
0.6897 1.1724 0.0000
0.6897 1.2069 0.0000
0.6897 1.2414 0.0000
0.6897 1.2759 0.0000
0.6897 1.3103 0.0000
0.6897 1.3448 0.0000
0.6897 1.3793 0.0000
0.6897 1.4138 0.0000
0.6897 1.4483 0.0000
0.6897 1.4828 0.0000
0.6897 1.5172 0.0000
0.6897 1.5517 0.0000
0.6897 1.5862 0.0000
0.6897 1.6207 0.0000
0.6897 1.6552 0.0000
0.6897 1.6897 0.0000
0.6897 1.7241 0.0000
0.6897 1.7586 0.0000
0.6897 1.7931 0.0000
0.6897 1.8276 0.0000
0.6897 1.8621 0.0000
0.6897 1.8966 0.0000
0.6897 1.9310 0.0000
0.6897 1.9655 0.0000
0.6897 2.0000 0.0000
0.7586 1.0000 0.0000
0.7586 1.0345 0.0000
0.7586 1.0690 0.0000
0.7586 1.1034 0.0000
0.7586 1.1379 0.0000
0.7586 1.1724 0.0000
0.7586 1.2069 0.0000
0.7586 1.2414 0.0000
0.7586 1.2759 0.0000
0.7586 1.3103 0.0000
0.7586 1.3448 0.0000
0.7586 1.3793 0.0000
0.7586 1.4138 0.0000
0.7586 1.4483 0.0000
0.7586 1.4828 0.0000
0.7586 1.5172 0.0000
0.7586 1.5517 0.0000
0.7586 1.5862 0.0000
0.7586 1.6207 0.0000
0.7586 1.6552 0.0000
0.7586 1.6897 0.0000
0.7586 1.7241 0.0000
0.7586 1.7586 0.0000
0.7586 1.7931 0.0000
0.7586 1.8276 0.0000
0.7586 1.8621 0.0000
0.7586 1.8966 0.0000
0.7586 1.9310 0.0000
0.7586 1.9655 0.0000
0.7586 2.0000 0.0000
0.8276 1.0000 0.0000
0.8276 1.0345 0.0000
0.8276 1.0690 0.0000
0.8276 1.1034 0.0000
0.8276 1.1379 0.0000
0.8276 1.1724 0.0000
0.8276 1.2069 0.0000
0.8276 1.2414 0.0000
0.8276 1.2759 0.0000
0.8276 1.3103 0.0000
0.8276 1.3448 0.0000
0.8276 1.3793 0.0000
0.8276 1.4138 0.0000
0.8276 1.4483 0.0000
0.8276 1.4828 0.0000
0.8276 1.5172 0.0000
0.8276 1.5517 0.0000
0.8276 1.5862 0.0000
0.8276 1.6207 0.0000
0.8276 1.6552 0.0000
0.8276 1.6897 0.0000
0.8276 1.7241 0.0000
0.8276 1.7586 0.0000
0.8276 1.7931 0.0000
0.8276 1.8276 0.0000
0.8276 1.8621 0.0000
0.8276 1.8966 0.0000
0.8276 1.9310 0.0000
0.8276 1.9655 0.0000
0.8276 2.0000 0.0000
0.8966 1.0000 0.0000
0.8966 1.0345 0.0000
0.8966 1.0690 0.0000
0.8966 1.1034 0.0000
0.8966 1.1379 0.0000
0.8966 1.1724 0.0000
0.8966 1.2069 0.0000
0.8966 1.2414 0.0000
0.8966 1.2759 0.0000
0.8966 1.3103 0.0000
0.8966 1.3448 0.0000
0.8966 1.3793 0.0000
0.8966 1.4138 0.0000
0.8966 1.4483 0.0000
0.8966 1.4828 0.0000
0.8966 1.5172 0.0000
0.8966 1.5517 0.0000
0.8966 1.5862 0.0000
0.8966 1.6207 0.0000
0.8966 1.6552 0.0000
0.8966 1.6897 0.0000
0.8966 1.7241 0.0000
0.8966 1.7586 0.0000
0.8966 1.7931 0.0000
0.8966 1.8276 0.0000
0.8966 1.8621 0.0000
0.8966 1.8966 0.0000
0.8966 1.9310 0.0000
0.8966 1.9655 0.0000
0.8966 2.0000 0.0000
0.9655 1.0000 0.0000
0.9655 1.0345 0.0000
0.9655 1.0690 0.0000
0.9655 1.1034 0.0000
0.9655 1.1379 0.0000
0.9655 1.1724 0.0000
0.9655 1.2069 0.0000
0.9655 1.2414 0.0000
0.9655 1.2759 0.0000
0.9655 1.3103 0.0000
0.9655 1.3448 0.0000
0.9655 1.3793 0.0000
0.9655 1.4138 0.0000
0.9655 1.4483 0.0000
0.9655 1.4828 0.0000
0.9655 1.5172 0.0000
0.9655 1.5517 0.0000
0.9655 1.5862 0.0000
0.9655 1.6207 0.0000
0.9655 1.6552 0.0000
0.9655 1.6897 0.0000
0.9655 1.7241 0.0000
0.9655 1.7586 0.0000
0.9655 1.7931 0.0000
0.9655 1.8276 0.0000
0.9655 1.8621 0.0000
0.9655 1.8966 0.0000
0.9655 1.9310 0.0000
0.9655 1.9655 0.0000
0.9655 2.0000 0.0000
1.0345 1.0000 0.0000
1.0345 1.0345 0.0000
1.0345 1.0690 0.0000
1.0345 1.1034 0.0000
1.0345 1.1379 0.0000
1.0345 1.1724 0.0000
1.0345 1.2069 0.0000
1.0345 1.2414 0.0000
1.0345 1.2759 0.0000
1.0345 1.3103 0.0000
1.0345 1.3448 0.0000
[...]
         <PointData>
            <DataArray Name="fValues" NumberOfComponents="3" format="ascii" type="Float64">
-6.03479e-26  9.58797e-25        00000 
 1.28792e-25 -1.77253e-24        00000 
-4.38309e-25  5.09548e-24        00000 
 1.31917e-24 -1.39734e-23        00000 
-3.17646e-24  3.47899e-23        00000 
 5.78021e-24 -7.71000e-23        00000 
-7.33461e-24  1.46404e-22        00000 
 5.00051e-24 -2.33285e-22        00000 
 2.24697e-24  3.05248e-22        00000 
-1.12619e-23 -3.26755e-22        00000 
 1.67277e-23  2.89506e-22        00000 
-1.60140e-23 -2.17604e-22        00000 
 1.11089e-23  1.42907e-22        00000 
-5.81696e-24 -8.33927e-23        00000 
 2.35169e-24  4.28950e-23        00000 
-7.51249e-25 -1.90216e-23        00000 
 1.96268e-25  7.17561e-24        00000 
-4.39501e-26 -2.32195e-24        00000 
 8.83673e-27  6.60938e-25        00000 
-1.64865e-27 -1.70251e-25        00000 
 2.91654e-28  4.06362e-26        00000 
-4.96195e-29 -9.18728e-27        00000 
 8.19458e-30  1.97479e-27        00000 
-1.32179e-30 -4.09040e-28        00000 
 2.09070e-31  8.23948e-29        00000 
-3.25071e-32 -1.62244e-29        00000 
 4.97465e-33  3.13615e-30        00000 
-7.49715e-34 -5.97646e-31        00000 
 1.13331e-34  1.16027e-31        00000 
-3.22934e-35 -4.17142e-32        00000 
 8.79816e-26 -1.64497e-24        00000 
-2.05662e-25  3.29409e-24        00000 
 8.05121e-25 -1.05279e-23        00000 
-2.87247e-24  3.12409e-23        00000 
 8.30349e-24 -8.27327e-23        00000 
-1.78916e-23  1.99279e-22        00000 
 2.63252e-23 -4.13667e-22        00000 
-2.13619e-23  7.12662e-22        00000 
-4.12946e-24 -9.75353e-22        00000 
 3.82991e-23  1.05006e-21        00000 
-5.79647e-23 -9.04348e-22        00000 
 5.26832e-23  6.49967e-22        00000 
-3.30282e-23 -4.09767e-22        00000 
 1.49542e-23  2.30202e-22        00000 
-5.04033e-24 -1.11524e-22        00000 
 1.32063e-24  4.48651e-23        00000 
-2.87935e-25 -1.49771e-23        00000 
 5.60531e-26  4.29570e-24        00000 
-1.01548e-26 -1.10221e-24        00000 
 1.75282e-27  2.60808e-25        00000 
-2.92291e-28 -5.81099e-26        00000 
 4.74881e-29  1.24406e-26        00000 
-7.55658e-30 -2.55020e-27        00000 
 1.18148e-30  5.09748e-28        00000 
-1.81824e-31 -9.96811e-29        00000 
 2.75595e-32  1.91516e-29        00000 
-4.11262e-33 -3.62662e-30        00000 
 6.03506e-34  6.79201e-31        00000 
-8.83941e-35 -1.29840e-31        00000 
 2.43287e-35  4.61324e-32        00000 
-1.73600e-25  4.22265e-24        00000 
 4.57678e-25 -9.48740e-24        00000 
-2.12714e-24  3.50919e-23        00000 
 9.35061e-24 -1.20104e-22        00000 
-3.51304e-23  3.45091e-22        00000 
 9.79059e-23 -8.84536e-22        00000 
-1.78695e-22  2.09724e-21        00000 
 1.77852e-22 -4.07659e-21        00000 
-4.25306e-24  6.00787e-21        00000 
-2.57353e-22 -6.52159e-21        00000 
 3.96236e-22  5.34294e-21        00000 
-3.30491e-22 -3.59083e-21        00000 
 1.76059e-22  2.17861e-21        00000 
-6.28555e-23 -1.17828e-21        00000 
 1.57146e-23  5.15321e-22        00000 
-3.02360e-24 -1.75405e-22        00000 
 5.08882e-25  4.89748e-23        00000 
-7.97160e-26 -1.19880e-23        00000 
 1.19882e-26  2.68959e-24        00000 
-1.75859e-27 -5.67741e-25        00000 
 2.53646e-28  1.14812e-25        00000 
-3.60865e-29 -2.25050e-26        00000 
 5.06439e-30  4.32024e-27        00000 
-6.99258e-31 -8.13312e-28        00000 
 9.44662e-32  1.51072e-28        00000 
-1.23647e-32 -2.77605e-29        00000 
 1.54027e-33  5.05680e-30        00000 
-1.75941e-34 -9.15396e-31        00000 
 1.65653e-35  1.69626e-31        00000 
-1.62465e-36 -5.88057e-32        00000 
 3.14817e-25 -1.00415e-23        00000 
-9.06584e-25  2.51617e-23        00000 
 4.78111e-24 -1.07892e-22        00000 
-2.47860e-23  4.26854e-22        00000 
 1.18095e-22 -1.48520e-21        00000 
-4.70790e-22  3.86003e-21        00000 
 1.18363e-21 -9.99494e-21        00000 
-1.52198e-21  2.32113e-20        00000 
 3.21463e-22 -3.87023e-20        00000 
 1.86162e-21  4.26947e-20        00000 
-2.88145e-21 -3.18316e-20        00000 
 2.08747e-21  1.95110e-20        00000 
-8.56417e-22 -1.20325e-20        00000 
 2.08968e-22  6.18698e-21        00000 
-3.40753e-23 -2.21593e-21        00000 
 4.77495e-24  6.04656e-22        00000 
-6.19265e-25 -1.41288e-22        00000 
 7.60128e-26  3.01615e-23        00000 
-8.82247e-27 -6.05413e-24        00000 
 9.46863e-28  1.16645e-24        00000 
-8.78193e-29 -2.18982e-25        00000 
 5.34896e-30  4.03585e-26        00000 
 3.39927e-31 -7.30470e-27        00000 
-2.20580e-31  1.31127e-27        00000 
 5.87590e-32 -2.33505e-28        00000 
-1.27785e-32  4.13220e-29        00000 
 2.54096e-33 -7.27740e-30        00000 
-4.81577e-34  1.27793e-30        00000 
 9.12406e-35 -2.30115e-31        00000 
-3.18677e-35  7.79407e-32        00000 
-4.83090e-25  2.03583e-23        00000 
 1.47990e-24 -5.61893e-23        00000 
-8.53354e-24  2.77634e-22        00000 
 4.98762e-23 -1.30572e-21        00000 
-2.84011e-22  5.25627e-21        00000 
 1.52010e-21 -1.94988e-20        00000 
-6.84482e-21  3.57238e-20        00000 
 1.33132e-20 -1.25614e-19        00000 
-5.59541e-21  2.49313e-19        00000 
-1.47528e-20 -3.04999e-19        00000 
 2.21886e-20  1.70679e-19        00000 
-1.22722e-20 -9.97191e-20        00000 
 3.00706e-21  7.37607e-20        00000 
-3.54987e-22 -2.91476e-20        00000 
 3.56043e-23  7.63203e-21        00000 
-3.11691e-24 -1.66671e-21        00000 
 2.00900e-25  3.35382e-22        00000 
 2.29835e-27 -6.36002e-23        00000 
-4.42328e-27  1.16146e-23        00000 
 1.19624e-27 -2.09540e-24        00000 
-2.51663e-28  3.68963e-25        00000 
 4.78808e-29 -6.46950e-26        00000 
-8.64697e-30  1.12909e-26        00000 
 1.51452e-30 -1.95639e-27        00000 
-2.60211e-31  3.37614e-28        00000 
 4.41481e-32 -5.81031e-29        00000 
-7.42802e-33  9.98068e-30        00000 
 1.24376e-33 -1.71352e-30        00000 
-2.12923e-34  3.02008e-31        00000 
 6.89333e-35 -1.00500e-31        00000 
 6.17927e-25 -3.45839e-23        00000 
-1.96413e-24  1.02850e-22        00000 
 1.19486e-23 -5.68774e-22        00000 
-7.51107e-23  3.14175e-21        00000 
 4.76825e-22 -1.61932e-20        00000 
-3.05184e-21  8.44542e-20        00000 
 1.94814e-20 -3.35125e-19        00000 
-1.15614e-19  5.89501e-19        00000 
 9.26308e-20 -1.53957e-18        00000 
 1.41628e-19  1.60710e-19        00000 
-1.82983e-19 -4.51131e-20        00000 
 4.99258e-20  8.87815e-19        00000 
-2.48415e-21 -4.05446e-19        00000 
 3.99694e-23  9.92914e-20        00000 
 1.82068e-23 -1.98351e-20        00000 
-4.73708e-24  3.62483e-21        00000 
 9.00434e-25 -6.38355e-22        00000 
-1.55574e-25  1.10533e-22        00000 
 2.58397e-26 -1.89488e-23        00000 
-4.21402e-27  3.22666e-24        00000 
 6.81231e-28 -5.47367e-25        00000 
-1.09679e-28  9.26471e-26        00000 
 1.76303e-29 -1.56382e-26        00000 
-2.83327e-30  2.63889e-27        00000 
 4.55555e-31 -4.45280e-28        00000 
-7.33196e-32  7.51506e-29        00000 
 1.18156e-32 -1.26879e-29        00000 
-1.90812e-33  2.14469e-30        00000 
 3.16306e-34 -3.72477e-31        00000 
-9.98054e-35  1.22449e-31        00000 
-6.54853e-25  4.90036e-23        00000 
 2.10487e-24 -1.52923e-22        00000 
-1.30216e-23  9.07865e-22        00000 
 8.38404e-23 -5.55065e-21        00000 
-5.52553e-22  3.42905e-20        00000 
 3.77026e-21 -2.08753e-19        00000 
-2.72730e-20  1.13031e-18        00000 
 2.21308e-19 -5.34964e-18        00000 
-2.50400e-18  3.90756e-19        00000 
-2.59337e-18  1.79791e-01        00000 
 1.05604e-18  1.28504e-17        00000 
 3.64498e-20 -4.67963e-18        00000 
-5.89133e-21  1.30416e-18        00000 
 7.84351e-22 -2.24651e-19        00000 
-1.05341e-22  3.64521e-20        00000 
 1.45324e-23 -5.91570e-21        00000 
-2.05670e-24  9.64237e-22        00000 
 2.97449e-25 -1.57969e-22        00000 
-4.37994e-26  2.59436e-23        00000 
 6.54653e-27 -4.26489e-24        00000 
-9.90779e-28  7.06491e-25        00000 
 1.51532e-28 -1.16359e-25        00000 
-2.33830e-29  1.92546e-26        00000 
 3.63573e-30 -3.19699e-27        00000 
-5.69001e-31  5.32146e-28        00000 
 8.95533e-32 -8.87532e-29        00000 
-1.41642e-32  1.48279e-29        00000 
 2.25140e-33 -2.48286e-30        00000 
-3.67989e-34  4.27365e-31        00000 
 1.14818e-34 -1.39452e-31        00000 
 5.71102e-25 -5.79428e-23        00000 
-1.80504e-24  1.84826e-22        00000 
 1.09074e-23 -1.13146e-21        00000 
-6.81225e-23  7.18318e-21        00000 
 4.30237e-22 -4.64783e-20        00000 
-2.75408e-21  3.09257e-19        00000 
 1.79159e-20 -2.33248e-18        00000 
-1.17272e-19  1.62686e-17        00000 
-4.79701e-18 -1.79791e-01        00000 
 1.75134e-17  8.25149e-01        00000 
-1.12002e-18 -1.79791e-01        00000 
-1.23883e-19  1.58040e-17        00000 
 1.02312e-20 -2.30772e-18        00000 
-1.07742e-21  3.15080e-19        00000 
 1.28354e-22 -4.72655e-20        00000 
-1.64763e-23  7.32774e-21        00000 
 2.22349e-24 -1.16280e-21        00000 
-3.10999e-25  1.85899e-22        00000 
 4.46842e-26 -2.98035e-23        00000 
-6.55570e-27  4.79107e-24        00000 
 9.77970e-28 -7.81470e-25        00000 
-1.47889e-28  1.27875e-25        00000 
 2.26171e-29 -2.10513e-26        00000 
-3.49177e-30  3.47683e-27        00000 
 5.43420e-31 -5.75799e-28        00000 
-8.51544e-32  9.55850e-29        00000 
 1.34232e-32 -1.59010e-29        00000 
-2.12819e-33  2.65206e-30        00000 
 3.47175e-34 -4.54758e-31        00000 
-1.08182e-34  1.47918e-31        00000 
-4.05607e-25  5.73068e-23        00000 
 1.22001e-24 -1.82313e-22        00000 
-6.85243e-24  1.11167e-21        00000 
 3.86383e-23 -7.01999e-21        00000 
-2.07757e-22  4.44582e-20        00000 
 9.88869e-22 -3.21476e-19        00000 
-2.87037e-21  1.63175e-18        00000 
-2.47599e-20 -8.99119e-18        00000 
 7.56028e-19  5.20840e-17        00000 
 3.24944e-18  1.79791e-01        00000 
 1.84163e-18  4.65429e-17        00000 
-1.52571e-20 -1.01591e-17        00000 
-1.24884e-21  1.71752e-18        00000 
 2.93367e-22 -2.80542e-19        00000 
-4.79158e-23  4.37570e-20        00000 
 7.34548e-24 -7.09348e-21        00000 
-1.11267e-24  1.12835e-21        00000 
 1.68889e-25 -1.78876e-22        00000 
-2.57973e-26  2.77308e-23        00000 
 3.96966e-27 -4.66056e-24        00000 
-6.15331e-28  7.48099e-25        00000 
 9.60366e-29 -1.24175e-25        00000 
-1.50826e-29  2.05442e-26        00000 
 2.38210e-30 -3.40366e-27        00000 
-3.78124e-31  5.64954e-28        00000 
 6.02933e-32 -9.39475e-29        00000 
-9.65297e-33  1.56502e-29        00000 
 1.55203e-33 -2.61318e-30        00000 
-2.56556e-34  4.48522e-31        00000 
 8.08323e-35 -1.45994e-31        00000 
 2.30485e-25 -4.75460e-23        00000 
-6.31854e-25  1.47352e-22        00000 
 3.06140e-24 -8.65507e-22        00000 
-1.36544e-23  5.21295e-21        00000 
 4.48941e-23 -3.21525e-20        00000 
 2.39406e-23  1.60630e-19        00000 
-2.31926e-21 -8.19351e-19        00000 
 2.32827e-20  4.05146e-18        00000 
 7.11819e-20 -1.69464e-17        00000 
-1.45152e-19  3.49920e-17        00000 
-1.00701e-20 -1.55170e-17        00000 
 6.83718e-20  3.82256e-18        00000 
-5.82214e-21 -8.68343e-19        00000 
 5.12282e-22  1.63755e-19        00000 
-4.68944e-23 -2.91863e-20        00000 
 4.31956e-24  5.00605e-21        00000 
-3.80160e-25 -8.45305e-22        00000 
 2.85140e-26  1.41939e-22        00000 
-1.02207e-27 -2.35501e-23        00000 
-2.43012e-28  3.88247e-24        00000 
 8.76210e-29 -6.48048e-25        00000 
-2.01027e-29  1.07650e-25        00000 
 4.00524e-30 -1.79839e-26        00000 
-7.46871e-31  3.00798e-27        00000 
 1.34239e-31 -5.03560e-28        00000 
-2.35908e-32  8.43718e-29        00000 
 4.08579e-33 -1.41488e-29        00000 
-7.01216e-34  2.37644e-30        00000 
 1.22739e-34 -4.10118e-31        00000 
-4.04436e-35  1.34086e-31        00000 
-1.01403e-25  3.32258e-23        00000 
 2.36066e-25 -9.80932e-23        00000 
-8.36546e-25  5.36744e-22        00000 
 1.67441e-24 -2.91635e-21        00000 
 9.65872e-24  1.39475e-20        00000 
-1.47770e-22 -7.11008e-20        00000 
 8.72264e-22  3.19322e-19        00000 
 1.59653e-21 -1.23173e-18        00000 
-1.07159e-20  3.42837e-18        00000 
 1.36993e-20 -4.41990e-18        00000 
-2.69202e-21  2.94025e-18        00000 
-5.52624e-21 -1.21660e-18        00000 
 3.36668e-21  3.08806e-19        00000 
-5.26012e-22 -7.20497e-20        00000 
 7.06037e-23  1.48253e-20        00000 
-9.16490e-24 -2.84427e-21        00000 
 1.18468e-24  5.19997e-22        00000 
-1.53759e-25 -9.31982e-23        00000 
 2.00692e-26  1.63658e-23        00000 
-2.63177e-27 -2.83090e-24        00000 
 3.45983e-28  4.85187e-25        00000 
-4.54651e-29 -8.29221e-26        00000 
 5.94973e-30  1.41204e-26        00000 
-7.71615e-31 -2.40189e-27        00000 
 9.85048e-32  4.08144e-28        00000 
-1.22528e-32 -6.92960e-29        00000 
 1.45969e-33  1.17581e-29        00000 
-1.60954e-34 -1.99577e-30        00000 
 1.49963e-35  3.47817e-31        00000 
-1.65906e-36 -1.14630e-31        00000 
 3.20868e-26 -1.97402e-23        00000 
-5.30800e-26  5.43364e-23        00000 
 4.01151e-26 -2.70500e-22        00000 
 9.40065e-25  1.31327e-21        00000 
-8.89636e-24 -6.34853e-21        00000 
 3.90226e-23  2.55368e-20        00000 
 3.54816e-23 -9.40984e-20        00000 
-5.92336e-22  2.70829e-19        00000 
 1.49795e-21 -4.88449e-19        00000 
-1.63302e-21  6.24536e-19        00000 
 5.85460e-22 -4.83681e-19        00000 
 4.13613e-22  2.50555e-19        00000 
-5.07687e-22 -8.93833e-20        00000 
 2.05280e-22  2.48461e-20        00000 
-4.19111e-23 -6.01423e-21        00000 
 7.05741e-24  1.31047e-21        00000 
-1.10098e-24 -2.70300e-22        00000 
 1.65968e-25  5.20312e-23        00000 
-2.46233e-26 -9.72709e-24        00000 
 3.62728e-27  1.77703e-24        00000 
-5.32934e-28 -3.18925e-25        00000 
 7.82744e-29  5.65099e-26        00000 
-1.15057e-29 -9.92686e-27        00000 
 1.69338e-30  1.73233e-27        00000 
-2.49567e-31 -3.00895e-28        00000 
 3.68254e-32  5.20750e-29        00000 
-5.43887e-33 -8.98690e-30        00000 
 8.04050e-34  1.54861e-30        00000 
-1.21341e-34 -2.73724e-31        00000 
 3.50753e-35  9.12546e-32        00000 
-5.65853e-27  9.73232e-24        00000 
-7.28167e-29 -2.66385e-23        00000 
 7.37566e-26  1.11774e-22        00000 
-5.38794e-25 -5.00669e-22        00000 
 1.98464e-24  2.10338e-21        00000 
 7.48187e-25 -7.22739e-21        00000 
-3.21467e-23  2.21088e-20        00000 
 1.17588e-22 -4.91100e-20        00000 
-2.14505e-22  8.66346e-20        00000 
 2.17559e-22 -8.93836e-20        00000 
-1.01534e-22  6.89422e-20        00000 
-2.36963e-23 -4.86311e-20        00000 
 6.37111e-23  2.09631e-20        00000 
-4.07047e-23 -7.12322e-21        00000 
 1.42226e-23  1.95462e-21        00000 
-3.30172e-24 -5.08357e-22        00000 
 6.39077e-25  1.19100e-22        00000 
-1.12810e-25 -2.49719e-23        00000 
 1.89211e-26  5.01714e-24        00000 
-3.07969e-27 -9.75085e-25        00000 
 4.92190e-28  1.84645e-25        00000 
-7.77742e-29 -3.42592e-26        00000 
 1.22030e-29  6.25724e-27        00000 
-1.90633e-30 -1.12919e-27        00000 
 2.97024e-31  2.01872e-28        00000 
-4.62106e-32 -3.58256e-29        00000 
 7.18417e-33  6.32080e-30        00000 
-1.11724e-33 -1.11085e-30        00000 
 1.77751e-34  1.99992e-31        00000 
-5.39650e-35 -6.76778e-32        00000 
-5.55589e-28 -4.48561e-24        00000 
 5.24609e-27  1.04385e-23        00000 
-3.31568e-26 -4.25690e-23        00000 
 1.09137e-25  1.69724e-22        00000 
 1.83741e-26 -5.94126e-22        00000 
-1.83905e-24  1.80800e-21        00000 
 8.38868e-24 -4.48361e-21        00000 
-2.05413e-23  8.87476e-21        00000 
 3.15898e-23 -1.33925e-20        00000 
-3.08766e-23  1.40281e-20        00000 
 1.67909e-23 -1.16942e-20        00000 
-4.40030e-25  8.02272e-21        00000 
-7.35931e-24 -4.30550e-21        00000 
 6.56443e-24  1.73659e-21        00000 
-3.21860e-24 -5.73407e-22        00000 
 1.05812e-24  1.63529e-22        00000 
-2.62955e-25 -4.39675e-23        00000 
 5.57255e-26  1.03307e-23        00000 
-1.07456e-26 -2.26059e-24        00000 
 1.95338e-27  4.71622e-25        00000 
-3.41683e-28 -9.49040e-26        00000 
 5.82349e-29  1.85634e-26        00000 
-9.74860e-30 -3.54992e-27        00000 
 1.61139e-30  6.66733e-28        00000 
-2.63954e-31 -1.23431e-28        00000 
 4.29553e-32  2.25865e-29        00000 
-6.95751e-33 -4.09431e-30        00000 
 1.12374e-33  7.37133e-31        00000 
-1.85474e-34 -1.35742e-31        00000 
 5.81181e-35  4.67842e-32        00000 
 7.62234e-28  1.74254e-24        00000 
-2.10956e-27 -3.80834e-24        00000 
 6.24061e-27  1.40254e-23        00000 
 1.34545e-27 -4.88946e-23        00000 
-1.13277e-25  1.50568e-22        00000 
 5.86635e-25 -3.95251e-22        00000 
-1.73438e-24  8.60333e-22        00000 
 3.43718e-24 -1.50460e-21        00000 
-4.76120e-24  1.90799e-21        00000 
 4.56091e-24 -2.21898e-21        00000 
-2.74324e-24  1.92251e-21        00000 
 5.31953e-25 -1.37217e-21        00000 
 7.79806e-25  8.02496e-22        00000 
-9.61047e-25 -3.77724e-22        00000 
 6.03039e-25  1.44669e-22        00000 
-2.57028e-25 -4.72815e-23        00000 
 8.20512e-26  1.44093e-23        00000 
-2.12292e-26 -3.71925e-24        00000 
 4.78601e-27  8.94591e-25        00000 
-9.85283e-28 -2.02165e-25        00000 
 1.90708e-28  4.35514e-26        00000 
-3.53553e-29 -9.03713e-27        00000 
 6.35491e-30  1.81993e-27        00000 
-1.11666e-30 -3.57725e-28        00000 
 1.92925e-31  6.89375e-29        00000 
-3.29072e-32 -1.30713e-29        00000 
 5.55821e-33  2.44558e-30        00000 
-9.32361e-34 -4.52947e-31        00000 
 1.59496e-34  8.56599e-32        00000 
-5.14942e-35 -3.01654e-32        00000 
-2.62426e-28 -6.13795e-25        00000 
 3.88059e-28  1.24098e-24        00000 
 1.81176e-28 -4.07013e-24        00000 
-7.51316e-27  1.26249e-23        00000 
 4.14490e-26 -3.43988e-23        00000 
-1.38712e-25  8.02282e-23        00000 
 3.26439e-25 -1.56641e-22        00000 
-5.65791e-25  2.46136e-22        00000 
 7.30857e-25 -3.17713e-22        00000 
-6.92280e-25  3.48032e-22        00000 
 4.47344e-25 -3.13872e-22        00000 
-1.39611e-25  2.33172e-22        00000 
-7.03413e-26 -1.45433e-22        00000 
 1.32281e-25  7.57467e-23        00000 
-1.01937e-25 -3.29159e-23        00000 
 5.30406e-26  1.22029e-23        00000 
-2.07952e-26 -3.97155e-24        00000 
 6.53113e-27  1.17851e-24        00000 
-1.73464e-27 -3.13233e-25        00000 
 4.08706e-28  7.72149e-26        00000 
-8.84333e-29 -1.79289e-26        00000 
 1.79937e-29  3.97043e-27        00000 
-3.49933e-30 -8.46505e-28        00000 
 6.57842e-31  1.74987e-28        00000 
-1.20511e-31 -3.52652e-29        00000 
 2.16387e-32  6.95881e-30        00000 
-3.82493e-33 -1.34928e-30        00000 
 6.68264e-34  2.58069e-31        00000 
-1.18768e-34 -5.03121e-32        00000 
 3.95677e-35  1.81575e-32        00000 
 4.11733e-29  1.95663e-25        00000 
 1.51187e-29 -3.64648e-25        00000 
-5.29742e-28  1.06988e-24        00000 
 2.99345e-27 -2.97371e-24        00000 
-1.08645e-26  7.15858e-24        00000 
 2.88650e-26 -1.48879e-23        00000 
-5.86256e-26  2.59730e-23        00000 
 9.25793e-26 -4.58605e-23        00000 
-1.13823e-25  4.78783e-23        00000 
 1.07146e-25 -5.75844e-23        00000 
-7.30603e-26  5.02227e-23        00000 
 2.92311e-26 -3.17982e-23        00000 
 3.74905e-27  2.70281e-23        00000 
-1.72441e-26 -1.35582e-23        00000 
 1.61496e-26  7.45315e-24        00000 
-9.89607e-27 -2.93791e-24        00000 
 4.58269e-27  9.35176e-25        00000 