<?xml version="1.0" encoding="utf-8"?>
<VTKFile byte_order="LittleEndian" type="UnstructuredGrid" version="0.1">
   <UnstructuredGrid>
      <Piece NumberOfCells="3364" NumberOfPoints="1741">
         <Points>
            <DataArray Name="Points" NumberOfComponents="3" format="ascii" type="Float32">
0.0000 1.0000 0.0000
0.0000 1.0345 0.0000
0.0000 1.0690 0.0000
0.0000 1.1034 0.0000
0.0000 1.1379 0.0000
0.0000 1.1724 0.0000
0.0000 1.2069 0.0000
0.0000 1.2414 0.0000
0.0000 1.2759 0.0000
0.0000 1.3103 0.0000
0.0000 1.3448 0.0000
0.0000 1.3793 0.0000
0.0000 1.4138 0.0000
0.0000 1.4483 0.0000
0.0000 1.4828 0.0000
0.0000 1.5172 0.0000
0.0000 1.5517 0.0000
0.0000 1.5862 0.0000
0.0000 1.6207 0.0000
0.0000 1.6552 0.0000
0.0000 1.6897 0.0000
0.0000 1.7241 0.0000
0.0000 1.7586 0.0000
0.0000 1.7931 0.0000
0.0000 1.8276 0.0000
0.0000 1.8621 0.0000
0.0000 1.8966 0.0000
0.0000 1.9310 0.0000
0.0000 1.9655 0.0000
0.0000 2.0000 0.0000
0.0690 1.0000 0.0000
0.0690 1.0345 0.0000
0.0690 1.0690 0.0000
0.0690 1.1034 0.0000
0.0690 1.1379 0.0000
0.0690 1.1724 0.0000
0.0690 1.2069 0.0000
0.0690 1.2414 0.0000
0.0690 1.2759 0.0000
0.0690 1.3103 0.0000
0.0690 1.3448 0.0000
0.0690 1.3793 0.0000
0.0690 1.4138 0.0000
0.0690 1.4483 0.0000
0.0690 1.4828 0.0000
0.0690 1.5172 0.0000
0.0690 1.5517 0.0000
0.0690 1.5862 0.0000
0.0690 1.6207 0.0000
0.0690 1.6552 0.0000
0.0690 1.6897 0.0000
0.0690 1.7241 0.0000
0.0690 1.7586 0.0000
0.0690 1.7931 0.0000
0.0690 1.8276 0.0000
0.0690 1.8621 0.0000
0.0690 1.8966 0.0000
0.0690 1.9310 0.0000
0.0690 1.9655 0.0000
0.0690 2.0000 0.0000
0.1379 1.0000 0.0000
0.1379 1.0345 0.0000
0.1379 1.0690 0.0000
0.1379 1.1034 0.0000
0.1379 1.1379 0.0000
0.1379 1.1724 0.0000
0.1379 1.2069 0.0000
0.1379 1.2414 0.0000
0.1379 1.2759 0.0000
0.1379 1.3103 0.0000
0.1379 1.3448 0.0000
0.1379 1.3793 0.0000
0.1379 1.4138 0.0000
0.1379 1.4483 0.0000
0.1379 1.4828 0.0000
0.1379 1.5172 0.0000
0.1379 1.5517 0.0000
0.1379 1.5862 0.0000
0.1379 1.6207 0.0000
0.1379 1.6552 0.0000
0.1379 1.6897 0.0000
0.1379 1.7241 0.0000
0.1379 1.7586 0.0000
0.1379 1.7931 0.0000
0.1379 1.8276 0.0000
0.1379 1.8621 0.0000
0.1379 1.8966 0.0000
0.1379 1.9310 0.0000
0.1379 1.9655 0.0000
0.1379 2.0000 0.0000
0.2069 1.0000 0.0000
0.2069 1.0345 0.0000
0.2069 1.0690 0.0000
0.2069 1.1034 0.0000
0.2069 1.1379 0.0000
0.2069 1.1724 0.0000
0.2069 1.2069 0.0000
0.2069 1.2414 0.0000
0.2069 1.2759 0.0000
0.2069 1.3103 0.0000
0.2069 1.3448 0.0000
0.2069 1.3793 0.0000
0.2069 1.4138 0.0000
0.2069 1.4483 0.0000
0.2069 1.4828 0.0000
0.2069 1.5172 0.0000
0.2069 1.5517 0.0000
0.2069 1.5862 0.0000
0.2069 1.6207 0.0000
0.2069 1.6552 0.0000
0.2069 1.6897 0.0000
0.2069 1.7241 0.0000
0.2069 1.7586 0.0000
0.2069 1.7931 0.0000
0.2069 1.8276 0.0000
0.2069 1.8621 0.0000
0.2069 1.8966 0.0000
0.2069 1.9310 0.0000
0.2069 1.9655 0.0000
0.2069 2.0000 0.0000
0.2759 1.0000 0.0000
0.2759 1.0345 0.0000
0.2759 1.0690 0.0000
0.2759 1.1034 0.0000
0.2759 1.1379 0.0000
0.2759 1.1724 0.0000
0.2759 1.2069 0.0000
0.2759 1.2414 0.0000
0.2759 1.2759 0.0000
0.2759 1.3103 0.0000
0.2759 1.3448 0.0000
0.2759 1.3793 0.0000
0.2759 1.4138 0.0000
0.2759 1.4483 0.0000
0.2759 1.4828 0.0000
0.2759 1.5172 0.0000
0.2759 1.5517 0.0000
0.2759 1.5862 0.0000
0.2759 1.6207 0.0000
0.2759 1.6552 0.0000
0.2759 1.6897 0.0000
0.2759 1.7241 0.0000
0.2759 1.7586 0.0000
0.2759 1.7931 0.0000
0.2759 1.8276 0.0000
0.2759 1.8621 0.0000
0.2759 1.8966 0.0000
0.2759 1.9310 0.0000
0.2759 1.9655 0.0000
0.2759 2.0000 0.0000
0.3448 1.0000 0.0000
0.3448 1.0345 0.0000
0.3448 1.0690 0.0000
0.3448 1.1034 0.0000
0.3448 1.1379 0.0000
0.3448 1.1724 0.0000
0.3448 1.2069 0.0000
0.3448 1.2414 0.0000
0.3448 1.2759 0.0000
0.3448 1.3103 0.0000
0.3448 1.3448 0.0000
0.3448 1.3793 0.0000
0.3448 1.4138 0.0000
0.3448 1.4483 0.0000
0.3448 1.4828 0.0000
0.3448 1.5172 0.0000
0.3448 1.5517 0.0000
0.3448 1.5862 0.0000
0.3448 1.6207 0.0000
0.3448 1.6552 0.0000
0.3448 1.6897 0.0000
0.3448 1.7241 0.0000
0.3448 1.7586 0.0000
0.3448 1.7931 0.0000
0.3448 1.8276 0.0000
0.3448 1.8621 0.0000
0.3448 1.8966 0.0000
0.3448 1.9310 0.0000
0.3448 1.9655 0.0000
0.3448 2.0000 0.0000
0.4138 1.0000 0.0000
0.4138 1.0345 0.0000
0.4138 1.0690 0.0000
0.4138 1.1034 0.0000
0.4138 1.1379 0.0000
0.4138 1.1724 0.0000
0.4138 1.2069 0.0000
0.4138 1.2414 0.0000
0.4138 1.2759 0.0000
0.4138 1.3103 0.0000
0.4138 1.3448 0.0000
0.4138 1.3793 0.0000
0.4138 1.4138 0.0000
0.4138 1.4483 0.0000
0.4138 1.4828 0.0000
0.4138 1.5172 0.0000
0.4138 1.5517 0.0000
0.4138 1.5862 0.0000
0.4138 1.6207 0.0000
0.4138 1.6552 0.0000
0.4138 1.6897 0.0000
0.4138 1.7241 0.0000
0.4138 1.7586 0.0000
0.4138 1.7931 0.0000
0.4138 1.8276 0.0000
0.4138 1.8621 0.0000
0.4138 1.8966 0.0000
0.4138 1.9310 0.0000
0.4138 1.9655 0.0000
0.4138 2.0000 0.0000
0.4828 1.0000 0.0000
0.4828 1.0345 0.0000
0.4828 1.0690 0.0000
0.4828 1.1034 0.0000
0.4828 1.1379 0.0000
0.4828 1.1724 0.0000
0.4828 1.2069 0.0000
0.4828 1.2414 0.0000
0.4828 1.2759 0.0000
0.4828 1.3103 0.0000
0.4828 1.3448 0.0000
0.4828 1.3793 0.0000
0.4828 1.4138 0.0000
0.4828 1.4483 0.0000
0.4828 1.4828 0.0000
0.4828 1.5172 0.0000
0.4828 1.5517 0.0000
0.4828 1.5862 0.0000
0.4828 1.6207 0.0000
0.4828 1.6552 0.0000
0.4828 1.6897 0.0000
0.4828 1.7241 0.0000
0.4828 1.7586 0.0000
0.4828 1.7931 0.0000
0.4828 1.8276 0.0000
0.4828 1.8621 0.0000
0.4828 1.8966 0.0000
0.4828 1.9310 0.0000
0.4828 1.9655 0.0000
0.4828 2.0000 0.0000
0.5517 1.0000 0.0000
0.5517 1.0345 0.0000
0.5517 1.0690 0.0000
0.5517 1.1034 0.0000
0.5517 1.1379 0.0000
0.5517 1.1724 0.0000
0.5517 1.2069 0.0000
0.5517 1.2414 0.0000
0.5517 1.2759 0.0000
0.5517 1.3103 0.0000
0.5517 1.3448 0.0000
0.5517 1.3793 0.0000
0.5517 1.4138 0.0000
0.5517 1.4483 0.0000
0.5517 1.4828 0.0000
0.5517 1.5172 0.0000
0.5517 1.5517 0.0000
0.5517 1.5862 0.0000
0.5517 1.6207 0.0000
0.5517 1.6552 0.0000
0.5517 1.6897 0.0000
0.5517 1.7241 0.0000
0.5517 1.7586 0.0000
0.5517 1.7931 0.0000
0.5517 1.8276 0.0000
0.5517 1.8621 0.0000
0.5517 1.8966 0.0000
0.5517 1.9310 0.0000
0.5517 1.9655 0.0000
0.5517 2.0000 0.0000
0.6207 1.0000 0.0000
0.6207 1.0345 0.0000
0.6207 1.0690 0.0000
0.6207 1.1034 0.0000
0.6207 1.1379 0.0000
0.6207 1.1724 0.0000
0.6207 1.2069 0.0000
0.6207 1.2414 0.0000
0.6207 1.2759 0.0000
0.6207 1.3103 0.0000
0.6207 1.3448 0.0000
0.6207 1.3793 0.0000
0.6207 1.4138 0.0000
0.6207 1.4483 0.0000
0.6207 1.4828 0.0000
0.6207 1.5172 0.0000
0.6207 1.5517 0.0000
0.6207 1.5862 0.0000
0.6207 1.6207 0.0000
0.6207 1.6552 0.0000
0.6207 1.6897 0.0000
0.6207 1.7241 0.0000
0.6207 1.7586 0.0000
0.6207 1.7931 0.0000
0.6207 1.8276 0.0000
0.6207 1.8621 0.0000
0.6207 1.8966 0.0000
0.6207 1.9310 0.0000
0.6207 1.9655 0.0000
0.6207 2.0000 0.0000
0.6897 1.0000 0.0000
0.6897 1.0345 0.0000
0.6897 1.0690 0.0000
0.6897 1.1034 0.0000
0.6897 1.1379 0.0000
0.6897 1.1724 0.0000
0.6897 1.2069 0.0000
0.6897 1.2414 0.0000
0.6897 1.2759 0.0000
0.6897 1.3103 0.0000
0.6897 1.3448 0.0000
0.6897 1.3793 0.0000
0.6897 1.4138 0.0000
0.6897 1.4483 0.0000
0.6897 1.4828 0.0000
0.6897 1.5172 0.0000
0.6897 1.5517 0.0000
0.6897 1.5862 0.0000
0.6897 1.6207 0.0000
0.6897 1.6552 0.0000
0.6897 1.6897 0.0000
0.6897 1.7241 0.0000
0.6897 1.7586 0.0000
0.6897 1.7931 0.0000
0.6897 1.8276 0.0000
0.6897 1.8621 0.0000
0.6897 1.8966 0.0000
0.6897 1.9310 0.0000
0.6897 1.9655 0.0000
0.6897 2.0000 0.0000
0.7586 1.0000 0.0000
0.7586 1.0345 0.0000
0.7586 1.0690 0.0000
0.7586 1.1034 0.0000
0.7586 1.1379 0.0000
0.7586 1.1724 0.0000
0.7586 1.2069 0.0000
0.7586 1.2414 0.0000
0.7586 1.2759 0.0000
0.7586 1.3103 0.0000
0.7586 1.3448 0.0000
0.7586 1.3793 0.0000
0.7586 1.4138 0.0000
0.7586 1.4483 0.0000
0.7586 1.4828 0.0000
0.7586 1.5172 0.0000
0.7586 1.5517 0.0000
0.7586 1.5862 0.0000
0.7586 1.6207 0.0000
0.7586 1.6552 0.0000
0.7586 1.6897 0.0000
0.7586 1.7241 0.0000
0.7586 1.7586 0.0000
0.7586 1.7931 0.0000
0.7586 1.8276 0.0000
0.7586 1.8621 0.0000
0.7586 1.8966 0.0000
0.7586 1.9310 0.0000
0.7586 1.9655 0.0000
0.7586 2.0000 0.0000
0.8276 1.0000 0.0000
0.8276 1.0345 0.0000
0.8276 1.0690 0.0000
0.8276 1.1034 0.0000
0.8276 1.1379 0.0000
0.8276 1.1724 0.0000
0.8276 1.2069 0.0000
0.8276 1.2414 0.0000
0.8276 1.2759 0.0000
0.8276 1.3103 0.0000
0.8276 1.3448 0.0000
0.8276 1.3793 0.0000
0.8276 1.4138 0.0000
0.8276 1.4483 0.0000
0.8276 1.4828 0.0000
0.8276 1.5172 0.0000
0.8276 1.5517 0.0000
0.8276 1.5862 0.0000
0.8276 1.6207 0.0000
0.8276 1.6552 0.0000
0.8276 1.6897 0.0000
0.8276 1.7241 0.0000
0.8276 1.7586 0.0000
0.8276 1.7931 0.0000
0.8276 1.8276 0.0000
0.8276 1.8621 0.0000
0.8276 1.8966 0.0000
0.8276 1.9310 0.0000
0.8276 1.9655 0.0000
0.8276 2.0000 0.0000
0.8966 1.0000 0.0000
0.8966 1.0345 0.0000
0.8966 1.0690 0.0000
0.8966 1.1034 0.0000
0.8966 1.1379 0.0000
0.8966 1.1724 0.0000
0.8966 1.2069 0.0000
0.8966 1.2414 0.0000
0.8966 1.2759 0.0000
0.8966 1.3103 0.0000
0.8966 1.3448 0.0000
0.8966 1.3793 0.0000
0.8966 1.4138 0.0000
0.8966 1.4483 0.0000
0.8966 1.4828 0.0000
0.8966 1.5172 0.0000
0.8966 1.5517 0.0000
0.8966 1.5862 0.0000
0.8966 1.6207 0.0000
0.8966 1.6552 0.0000
0.8966 1.6897 0.0000
0.8966 1.7241 0.0000
0.8966 1.7586 0.0000
0.8966 1.7931 0.0000
0.8966 1.8276 0.0000
0.8966 1.8621 0.0000
0.8966 1.8966 0.0000
0.8966 1.9310 0.0000
0.8966 1.9655 0.0000
0.8966 2.0000 0.0000
0.9655 1.0000 0.0000
0.9655 1.0345 0.0000
0.9655 1.0690 0.0000
0.9655 1.1034 0.0000
0.9655 1.1379 0.0000
0.9655 1.1724 0.0000
0.9655 1.2069 0.0000
0.9655 1.2414 0.0000
0.9655 1.2759 0.0000
0.9655 1.3103 0.0000
0.9655 1.3448 0.0000
0.9655 1.3793 0.0000
0.9655 1.4138 0.0000
0.9655 1.4483 0.0000
0.9655 1.4828 0.0000
0.9655 1.5172 0.0000
0.9655 1.5517 0.0000
0.9655 1.5862 0.0000
0.9655 1.6207 0.0000
0.9655 1.6552 0.0000
0.9655 1.6897 0.0000
0.9655 1.7241 0.0000
0.9655 1.7586 0.0000
0.9655 1.7931 0.0000
0.9655 1.8276 0.0000
0.9655 1.8621 0.0000
0.9655 1.8966 0.0000
0.9655 1.9310 0.0000
0.9655 1.9655 0.0000
0.9655 2.0000 0.0000
1.0345 1.0000 0.0000
1.0345 1.0345 0.0000
1.0345 1.0690 0.0000
1.0345 1.1034 0.0000
1.0345 1.1379 0.0000
1.0345 1.1724 0.0000
1.0345 1.2069 0.0000
1.0345 1.2414 0.0000
1.0345 1.2759 0.0000
1.0345 1.3103 0.0000
1.0345 1.3448 0.0000
[...]
         <PointData>
            <DataArray Name="fValues" NumberOfComponents="3" format="ascii" type="Float64">
-1.47776e-35  1.33208e-34        00000 
 4.22987e-35 -3.87350e-34        00000 
-2.25864e-34  2.11106e-33        00000 
 1.23217e-33 -1.17851e-32        00000 
-6.66193e-33  6.54769e-32        00000 
 3.55912e-32 -3.61371e-31        00000 
-1.87396e-31  1.97874e-30        00000 
 9.69157e-31 -1.07336e-29        00000 
-4.90161e-30  5.75711e-29        00000 
 2.41016e-29 -3.04603e-28        00000 
-1.14305e-28  1.58490e-27        00000 
 5.17178e-28 -8.07707e-27        00000 
-2.19849e-27  4.00962e-26        00000 
 8.59465e-27 -1.92365e-25        00000 
-3.00173e-26  8.81137e-25        00000 
 9.05159e-26 -3.77636e-24        00000 
-2.29965e-25  1.46394e-23        00000 
 4.84461e-25 -4.92315e-23        00000 
-8.14864e-25  1.38904e-22        00000 
 9.59174e-25 -3.21675e-22        00000 
-3.35672e-25  6.02209e-22        00000 
-1.63499e-24 -9.01572e-22        00000 
 4.72506e-24  1.07004e-21        00000 
-7.51994e-24 -1.00096e-21        00000 
 8.39015e-24  7.34847e-22        00000 
-6.98938e-24 -4.22718e-22        00000 
 4.46592e-24  1.91083e-22        00000 
-2.23935e-24 -6.88574e-23        00000 
 9.55774e-25  2.12640e-23        00000 
-5.67406e-25 -1.00888e-23        00000 
 1.57374e-35 -1.38978e-34        00000 
-4.54070e-35  4.06129e-34        00000 
 2.44989e-34 -2.22739e-33        00000 
-1.35224e-33  1.25215e-32        00000 
 7.41309e-33 -7.01327e-32        00000 
-4.02652e-32  3.90734e-31        00000 
 2.16276e-31 -2.16337e-30        00000 
-1.14597e-30  1.18899e-29        00000 
 5.97098e-30 -6.47769e-29        00000 
-3.04638e-29  3.49214e-28        00000 
 1.51317e-28 -1.85877e-27        00000 
-7.25894e-28  9.74020e-27        00000 
 3.32459e-27 -5.00588e-26        00000 
-1.42920e-26  2.51046e-25        00000 
 5.62008e-26 -1.21973e-24        00000 
-1.94438e-25  5.67669e-24        00000 
 5.62163e-25 -2.47754e-23        00000 
-1.32577e-24  9.67163e-23        00000 
 2.52391e-24 -3.17489e-22        00000 
-3.59087e-24  8.42054e-22        00000 
 2.57225e-24 -1.76075e-21        00000 
 3.36015e-24  2.84413e-21        00000 
-1.43524e-23 -3.49881e-21        00000 
 2.49309e-23  3.23632e-21        00000 
-2.79497e-23 -2.23707e-21        00000 
 2.21225e-23  1.15373e-21        00000 
-1.28006e-23 -4.47591e-22        00000 
 5.57052e-24  1.34674e-22        00000 
-1.98750e-24 -3.47187e-23        00000 
 1.02857e-24  1.46387e-23        00000 
-1.83964e-35  1.54893e-34        00000 
 5.40364e-35 -4.57982e-34        00000 
-2.98235e-34  2.54904e-33        00000 
 1.68769e-33 -1.45610e-32        00000 
-9.52087e-33  8.30528e-32        00000 
 5.34550e-32 -4.72428e-31        00000 
-2.98377e-31  2.67869e-30        00000 
 1.65350e-30 -1.51308e-29        00000 
-9.08001e-30  8.50802e-29        00000 
 4.92804e-29 -4.75776e-28        00000 
-2.63359e-28  2.64260e-27        00000 
 1.37828e-27 -1.45542e-26        00000 
-7.00615e-27  7.93043e-26        00000 
 3.41533e-26 -4.26276e-25        00000 
-1.56408e-25  2.25191e-24        00000 
 6.50048e-25 -1.16357e-23        00000 
-2.31002e-24  5.83604e-23        00000 
 6.39516e-24 -2.78283e-22        00000 
-1.38354e-23  1.15660e-21        00000 
 2.36970e-23 -3.77197e-21        00000 
-2.60538e-23  9.33604e-21        00000 
-4.23849e-24 -1.70568e-20        00000 
 8.04413e-23  2.22423e-20        00000 
-1.61559e-22 -2.02216e-20        00000 
 1.81746e-22  1.26529e-20        00000 
-1.32144e-22 -5.43720e-21        00000 
 6.50596e-23  1.63647e-21        00000 
-2.26069e-23 -3.71844e-22        00000 
 6.22468e-24  7.60301e-23        00000 
-2.67713e-24 -2.81209e-23        00000 
 2.21307e-35 -1.77063e-34        00000 
-6.62018e-35  5.30366e-34        00000 
 3.73681e-34 -2.99921e-33        00000 
-2.16593e-33  1.74240e-32        00000 
 1.25491e-32 -1.01255e-31        00000 
-7.25911e-32  5.88044e-31        00000 
 4.18994e-31 -3.41217e-30        00000 
-2.41128e-30  1.97771e-29        00000 
 1.38205e-29 -1.14458e-28        00000 
-7.87686e-29  6.61081e-28        00000 
 4.45401e-28 -3.80776e-27        00000 
-2.49036e-27  2.18495e-26        00000 
 1.36990e-26 -1.24718e-25        00000 
-7.35536e-26  7.06672e-25        00000 
 3.80550e-25 -3.96337e-24        00000 
-1.85522e-24  2.19288e-23        00000 
 8.17026e-24 -1.19406e-22        00000 
-2.97497e-23  6.41568e-22        00000 
 7.33664e-23 -3.42377e-21        00000 
-1.40759e-22  1.52213e-20        00000 
 2.16574e-22 -4.70011e-20        00000 
-1.11306e-22  1.03320e-19        00000 
-4.30589e-22 -1.49754e-19        00000 
 1.11389e-21  1.32322e-19        00000 
-1.24874e-21 -6.98078e-20        00000 
 7.87169e-22  2.21607e-20        00000 
-2.98343e-22 -4.54172e-21        00000 
 7.50181e-23  7.75359e-22        00000 
-1.61165e-23 -1.42528e-22        00000 
 5.89789e-24  4.97466e-23        00000 
-2.60284e-35  1.99949e-34        00000 
 7.89652e-35 -6.05327e-34        00000 
-4.53363e-34  3.46718e-33        00000 
 2.67493e-33 -2.04124e-32        00000 
-1.58028e-32  1.20347e-31        00000 
 9.33950e-32 -7.10009e-31        00000 
-5.52064e-31  4.19141e-30        00000 
 3.26287e-30 -2.47570e-29        00000 
-1.92736e-29  1.46294e-28        00000 
 1.13709e-28 -8.64702e-28        00000 
-6.69387e-28  5.11090e-27        00000 
 3.92621e-27 -3.01945e-26        00000 
-2.28933e-26  1.78180e-25        00000 
 1.32227e-25 -1.04906e-24        00000 
-7.51936e-25  6.15056e-24        00000 
 4.16473e-24 -3.57873e-23        00000 
-2.19967e-23  2.05659e-22        00000 
 1.05734e-22 -1.16264e-21        00000 
-4.07519e-22  6.57507e-21        00000 
 7.34708e-22 -4.34635e-20        00000 
-1.39715e-21  2.13809e-19        00000 
 1.95937e-21 -5.68364e-19        00000 
 1.70843e-21  1.09300e-18        00000 
-8.26715e-21 -8.85691e-19        00000 
 9.00231e-21  3.26170e-19        00000 
-4.23361e-21 -5.66576e-20        00000 
 9.65928e-22  7.15237e-21        00000 
-1.78901e-22 -1.25170e-21        00000 
 3.13594e-23  2.29604e-22        00000 
-1.00764e-23 -7.76408e-23        00000 
 2.90857e-35 -2.17632e-34        00000 
-8.90484e-35  6.63579e-34        00000 
 5.16844e-34 -3.83309e-33        00000 
-3.08414e-33  2.27630e-32        00000 
 1.84461e-32 -1.35458e-31        00000 
-1.10506e-31  8.07211e-31        00000 
 6.63143e-31 -4.81734e-30        00000 
-3.98660e-30  2.87943e-29        00000 
 2.40107e-29 -1.72394e-28        00000 
-1.44889e-28  1.03395e-27        00000 
 8.75995e-28 -6.21261e-27        00000 
-5.30619e-27  3.74016e-26        00000 
 3.21950e-26 -2.25624e-25        00000 
-1.95569e-25  1.36391e-24        00000 
 1.18801e-24 -8.26141e-24        00000 
-7.19882e-24  5.00939e-23        00000 
 4.32682e-23 -3.02750e-22        00000 
-2.54431e-22  1.80367e-21        00000 
 1.40835e-21 -1.02562e-20        00000 
-6.34128e-21  4.98232e-20        00000 
 2.30010e-21 -5.85440e-19        00000 
-2.21054e-20  4.53763e-18        00000 
 8.96549e-21 -8.87708e-18        00000 
 7.33932e-20  6.77658e-18        00000 
-6.83306e-20 -7.29818e-19        00000 
 1.26101e-20  3.06745e-20        00000 
-1.93248e-21 -9.92962e-21        00000 
 2.87050e-22  1.89460e-21        00000 
-4.35731e-23 -3.29978e-22        00000 
 1.27630e-23  1.05511e-22        00000 
-3.04555e-35  2.25228e-34        00000 
 9.36537e-35 -6.89180e-34        00000 
-5.46411e-34  3.99739e-33        00000 
 3.27816e-33 -2.38373e-32        00000 
-1.97215e-32  1.42472e-31        00000 
 1.18913e-31 -8.52978e-31        00000 
-7.18784e-31  5.11610e-30        00000 
 4.35691e-30 -3.07478e-29        00000 
-2.64932e-29  1.85206e-28        00000 
 1.61685e-28 -1.11835e-27        00000 
-9.90927e-28  6.77199e-27        00000 
 6.10347e-27 -4.11386e-26        00000 
-3.78182e-26  2.50844e-25        00000 
 2.36031e-25 -1.53641e-24        00000 
-1.48635e-24  9.46479e-24        00000 
 9.46590e-24 -5.88004e-23        00000 
-6.11584e-23  3.70157e-22        00000 
 4.02574e-22 -2.36061e-21        00000 
-2.71355e-21  1.51876e-20        00000 
 1.87572e-20 -9.34069e-20        00000 
-1.26637e-19 -3.05655e-19        00000 
-2.70010e-19 -4.23853e-18        00000 
-1.00620e-18  1.79791e-01        00000 
-1.37905e-18 -6.74225e-18        00000 
 1.57135e-19 -1.29204e-18        00000 
-1.74269e-20 -1.03818e-19        00000 
 2.13215e-21  1.71552e-20        00000 
-2.79445e-22 -2.54836e-21        00000 
 3.91794e-23  3.92286e-22        00000 
-1.09202e-23 -1.17665e-22        00000 
 2.96777e-35 -2.20088e-34        00000 
-9.12578e-35  6.73536e-34        00000 
 5.32353e-34 -3.90676e-33        00000 
-3.19303e-33  2.32942e-32        00000 
 1.92029e-32 -1.39192e-31        00000 
-1.15739e-31  8.33020e-31        00000 
 6.99273e-31 -4.99377e-30        00000 
-4.23661e-30  2.99926e-29        00000 
 2.57500e-29 -1.80514e-28        00000 
-1.57093e-28  1.08903e-27        00000 
 9.62627e-28 -6.58784e-27        00000 
-5.93023e-27  3.99765e-26        00000 
 3.67726e-26 -2.43468e-25        00000 
-2.29900e-25  1.48906e-24        00000 
 1.45261e-24 -9.15178e-24        00000 
-9.30851e-24  5.65671e-23        00000 
 6.08324e-23 -3.53682e-22        00000 
-4.09215e-22  2.30238e-21        00000 
 2.88292e-21 -1.58568e-20        00000 
-2.20723e-20  1.27562e-19        00000 
 2.03082e-19 -2.23000e-18        00000 
-1.21235e-17 -1.79791e-01        00000 
-1.38522e-19  8.25149e-01        00000 
 2.32274e-18 -1.79791e-01        00000 
-6.12503e-20 -4.28192e-18        00000 
 5.98147e-21  1.78129e-19        00000 
-7.23465e-22 -1.74104e-20        00000 
 9.70382e-23  2.23518e-21        00000 
-1.41085e-23 -3.29442e-22        00000 
 4.07902e-24  9.78145e-23        00000 
-2.68051e-35  2.02370e-34        00000 
 8.20581e-35 -6.17381e-34        00000 
-4.76061e-34  3.56720e-33        00000 
 2.83849e-33 -2.11807e-32        00000 
-1.69570e-32  1.25968e-31        00000 
 1.01432e-31 -7.49878e-31        00000 
-6.07580e-31  4.46839e-30        00000 
 3.64495e-30 -2.66547e-29        00000 
-2.19031e-29  1.59182e-28        00000 
 1.31861e-28 -9.51833e-28        00000 
-7.95442e-28  5.69931e-27        00000 
 4.80915e-27 -3.41772e-26        00000 
-2.91462e-26  2.05283e-25        00000 
 1.77099e-25 -1.23504e-24        00000 
-1.07887e-24  7.43937e-24        00000 
 6.58669e-24 -4.47574e-23        00000 
-4.02394e-23  2.64033e-22        00000 
 2.44837e-22 -1.45265e-21        00000 
-1.46077e-21  8.59741e-21        00000 
 8.00531e-21 -3.94716e-20        00000 
-2.17595e-20 -9.03861e-19        00000 
-1.58552e-18        00000        00000 
 4.43536e-20  1.79791e-01        00000 
 2.25430e-18  7.70358e-18        00000 
-1.26709e-19 -2.50609e-18        00000 
 1.13412e-20  2.02623e-20        00000 
-1.19588e-21  2.79554e-21        00000 
 1.37710e-22 -7.58454e-22        00000 
-1.69994e-23  1.48763e-22        00000 
 4.21093e-24 -5.18048e-23        00000 
 2.23665e-35 -1.74813e-34        00000 
-6.78528e-35  5.29983e-34        00000 
 3.89277e-34 -3.03884e-33        00000 
-2.29323e-33  1.78965e-32        00000 
 1.35145e-32 -1.05469e-31        00000 
-7.95959e-32  6.21450e-31        00000 
 4.68362e-31 -3.66051e-30        00000 
-2.75226e-30  2.15502e-29        00000 
 1.61420e-29 -1.26775e-28        00000 
-9.44079e-29  7.44981e-28        00000 
 5.49899e-28 -4.37119e-27        00000 
-3.18357e-27  2.55942e-26        00000 
 1.82602e-26 -1.49428e-25        00000 
-1.03199e-25  8.69069e-25        00000 
 5.68895e-25 -5.03094e-24        00000 
-2.99620e-24  2.90268e-23        00000 
 1.43273e-23 -1.71211e-22        00000 
-5.20185e-23  7.65747e-22        00000 
-2.71353e-23 -3.10510e-21        00000 
 3.84390e-21  3.83153e-22        00000 
-6.46864e-20 -3.27506e-19        00000 
 1.17791e-19  4.08443e-18        00000 
 2.54735e-20  2.39503e-18        00000 
-1.75431e-19  2.45283e-18        00000 
 1.05583e-19  3.93515e-20        00000 
-1.41299e-20 -8.55113e-20        00000 
 1.83899e-21  5.97564e-21        00000 
-2.44434e-22 -4.38976e-22        00000 
 3.39019e-23  8.54840e-24        00000 
-9.23990e-24  9.03259e-24        00000 
-1.71787e-35  1.41786e-34        00000 
 5.13834e-35 -4.25878e-34        00000 
-2.89664e-34  2.41434e-33        00000 
 1.67420e-33 -1.40477e-32        00000 
-9.65467e-33  8.16791e-32        00000 
 5.54588e-32 -4.74041e-31        00000 
-3.16959e-31  2.74477e-30        00000 
 1.79950e-30 -1.58460e-29        00000 
-1.01261e-29  9.11387e-29        00000 
 5.62916e-29 -5.21655e-28        00000 
-3.07562e-28  2.96692e-27        00000 
 1.63789e-27 -1.67318e-26        00000 
-8.37641e-27  9.32720e-26        00000 
 3.99306e-26 -5.11600e-25        00000 
-1.64798e-25  2.74199e-24        00000 
 4.39223e-25 -1.42078e-23        00000 
 1.43370e-24  6.81206e-23        00000 
-3.83391e-23 -4.13789e-22        00000 
 4.30436e-22  2.22585e-21        00000 
-3.44850e-21 -2.16604e-20        00000 
 1.01055e-20  1.20280e-19        00000 
-1.02990e-20  2.06084e-20        00000 
-4.60272e-21  2.04333e-19        00000 
 1.89945e-20  4.91058e-20        00000 
-1.64201e-20  2.20346e-19        00000 
 6.29804e-21 -8.38814e-21        00000 
-1.18983e-21 -2.57598e-21        00000 
 1.94601e-22  3.83588e-22        00000 
-3.10409e-23 -4.66507e-23        00000 
 9.30367e-24  1.03639e-23        00000 
 1.20855e-35 -1.07994e-34        00000 
-3.54304e-35  3.20451e-34        00000 
 1.94755e-34 -1.78980e-33        00000 
-1.09485e-33  1.02503e-32        00000 
 6.11440e-33 -5.85578e-32        00000 
-3.38232e-32  3.33187e-31        00000 
 1.84789e-31 -1.88642e-30        00000 
-9.92941e-31  1.06149e-29        00000 
 5.21422e-30 -5.92687e-29        00000 
-2.64844e-29  3.27649e-28        00000 
 1.27748e-28 -1.78773e-27        00000 
-5.63622e-28  9.58209e-27        00000 
 2.06085e-27 -5.00735e-26        00000 
-3.81437e-27  2.51703e-25        00000 
-3.15344e-26 -1.18231e-24        00000 
 5.21888e-25  4.76279e-24        00000 
-4.97721e-24 -1.10895e-23        00000 
 3.75368e-23  2.73804e-22        00000 
-2.20935e-22 -1.63165e-21        00000 
 7.52974e-22  7.27914e-21        00000 
-1.35766e-21 -1.39143e-20        00000 
 9.84092e-22  1.23667e-20        00000 
 7.55165e-22 -1.37436e-20        00000 
-2.37151e-21  1.21417e-20        00000 
 2.38395e-21  1.72971e-21        00000 
-1.31279e-21  8.33234e-21        00000 
 4.34337e-22 -7.42097e-22        00000 
-9.61581e-23 -5.14868e-23        00000 
 1.86720e-23  1.95980e-23        00000 
-6.35587e-24 -6.87275e-24        00000 
-7.73049e-36  7.73137e-35        00000 
 2.20440e-35 -2.26036e-34        00000 
-1.16943e-34  1.23977e-33        00000 
 6.31714e-34 -6.96523e-33        00000 
-3.36443e-33  3.89531e-32        00000 
 1.75642e-32 -2.16426e-31        00000 
-8.92192e-32  1.19295e-30        00000 
 4.35695e-31 -6.51171e-30        00000 
-2.00160e-30  3.51153e-29        00000 
 8.26132e-30 -1.86475e-28        00000 
-2.68420e-29  9.70752e-28        00000 
 2.54796e-29 -4.92165e-27        00000 
 6.33322e-28  2.40593e-26        00000 
-8.13245e-27 -1.11572e-25        00000 
 7.03884e-26  4.77265e-25        00000 
-5.06657e-25 -1.80614e-24        00000 
 3.12122e-24  5.44661e-24        00000 
-1.57281e-23 -1.58506e-22        00000 
 5.60801e-23  9.37049e-22        00000 
-1.29570e-22 -2.02164e-21        00000 
 1.77887e-22  1.91743e-21        00000 
-9.65648e-23 -3.34625e-21        00000 
-1.22234e-22 -1.05489e-21        00000 
 3.20914e-22  4.38338e-21        00000 
-3.48065e-22 -7.04566e-22        00000 
 2.32024e-22 -5.22417e-22        00000 
-1.03394e-22  3.94069e-22        00000 
 3.24356e-23 -5.38729e-23        00000 
-8.07223e-24  1.36187e-24        00000 
 3.22143e-24  1.36974e-24        00000 
 4.44084e-36 -5.21090e-35        00000 
-1.21821e-35  1.49766e-34        00000 
 6.13798e-35 -8.04493e-34        00000 
-3.12153e-34  4.42204e-33        00000 
 1.54070e-33 -2.41440e-32        00000 
-7.27183e-33  1.30641e-31        00000 
 3.19958e-32 -6.99337e-31        00000 
-1.24013e-31  3.69594e-30        00000 
 3.52904e-31 -1.92352e-29        00000 
 8.47035e-32  9.82868e-29        00000 
-1.24848e-29 -4.91467e-28        00000 
 1.36455e-28  2.39838e-27        00000 
-1.10405e-27 -1.14325e-26        00000 
 7.67418e-27  5.39782e-26        00000 
-4.73678e-26 -2.66185e-25        00000 
 2.57745e-25  1.56255e-24        00000 
-1.18779e-24 -1.35356e-23        00000 
 4.27837e-24  6.06361e-23        00000 
-1.12532e-23 -1.74351e-22        00000 
 2.04797e-23  2.92172e-22        00000 
-2.32572e-23 -3.77160e-22        00000 
 9.18089e-24  2.91710e-22        00000 
 1.97949e-23  1.23627e-22        00000 
-4.56976e-23 -4.23240e-22        00000 
 5.16640e-23  4.67412e-22        00000 
-3.87366e-23 -5.34888e-24        00000 
 2.07521e-23 -4.97041e-23        00000 
-8.26204e-24  2.22381e-23        00000 
 2.66089e-24 -3.87303e-24        00000 
-1.26684e-24  6.97620e-25        00000 
-2.23887e-36  3.31468e-35        00000 
 5.79429e-36 -9.34970e-35        00000 
-2.68679e-35  4.90941e-34        00000 
 1.22790e-34 -2.63600e-33        00000 
-5.18862e-34  1.40338e-32        00000 
 1.88637e-33 -7.39059e-32        00000 
-4.53449e-33  3.84399e-31        00000 
-9.34092e-33 -1.97154e-30        00000 
 2.45502e-31  9.95822e-30        00000 
-2.39718e-30 -4.95141e-29        00000 
 1.84342e-29  2.42821e-28        00000 
-1.24654e-28 -1.18295e-27        00000 
 7.64409e-28  5.82459e-27        00000 
-4.26518e-27 -2.99129e-26        00000 
 2.13518e-26  1.66035e-25        00000 
-9.29253e-26 -9.85913e-25        00000 
 3.34410e-25  4.47362e-24        00000 
-9.47029e-25 -1.39305e-23        00000 
 2.02623e-24  3.01962e-23        00000 
-3.11730e-24 -4.76298e-23        00000 
 3.04427e-24  5.45582e-23        00000 
-7.65253e-25 -3.32193e-23        00000 
-3.21716e-24 -1.52333e-23        00000 
 6.73707e-24  5.43397e-23        00000 
-7.79698e-24 -1.85183e-23        00000 
 6.32448e-24  1.66636e-23        00000 
-3.83987e-24  3.15618e-24        00000 
 1.80815e-24 -3.86084e-24        00000 
-7.17312e-25  1.45737e-24        00000 
 4.02938e-25 -5.71115e-25        00000 
 9.40744e-37 -1.99659e-35        00000 
-2.19199e-36  5.52208e-35        00000 
 8.51689e-36 -2.83199e-34        00000 
-2.88123e-35  1.48495e-33        00000 
 5.41438e-35 -7.71280e-33        00000 
 2.92665e-34  3.95999e-32        00000 
-4.83718e-33 -2.00824e-31        00000 
 4.34346e-32  1.00577e-30        00000 
-3.20830e-31 -4.97923e-30        00000 
 2.12104e-30  2.44414e-29        00000 
-1.28974e-29 -1.19700e-28        00000 
 7.26302e-29  5.90622e-28        00000 
-3.77020e-28 -2.96609e-27        00000 
 1.77839e-27  1.51324e-26        00000 
-7.43841e-27 -7.50377e-26        00000 
 2.66604e-26  3.03227e-25        00000 
-7.89744e-26 -7.17855e-25        00000 
 1.87271e-25  2.78717e-24        00000 
-3.44245e-25 -5.26459e-24        00000 
 4.65554e-25  7.54907e-24        00000 
-3.98053e-25 -7.90986e-24        00000 
 3.78579e-26  4.36006e-24        00000 
 5.25015e-25  2.09251e-24        00000 
-1.01825e-24 -5.68408e-24        00000 
 1.19401e-24  3.03022e-24        00000 
-1.02388e-24 -2.02787e-24        00000 
 6.80592e-25  3.63833e-25        00000 
-3.63140e-25  4.36670e-25        00000 
 1.69968e-25 -3.13703e-25        00000 
-1.08812e-25  1.96519e-25        00000 
-2.79845e-37  1.14337e-35        00000 
 4.73440e-37 -3.10033e-35        00000 
-5.38265e-37  1.55330e-34        00000 
-7.40612e-36 -7.96180e-34        00000 
 9.56143e-35  4.04228e-33        00000 
-8.04523e-34 -2.02986e-32        00000 
 5.75000e-33  1.00838e-31        00000 
-3.72964e-32 -4.96110e-31        00000 
 2.24841e-31  2.42265e-30        00000 
-1.26980e-30 -1.17805e-29        00000 
 6.71405e-30  5.72109e-29        00000 
-3.30071e-29 -2.77153e-28        00000 
 1.48930e-28  1.32102e-27        00000 
-6.05012e-28 -5.94017e-27        00000 
 2.15839e-27  2.28120e-26        00000 
-6.58206e-27 -6.48758e-26        00000 
 1.67300e-26  1.40533e-25        00000 