<?xml version="1.0" encoding="utf-8"?>
<VTKFile byte_order="LittleEndian" type="UnstructuredGrid" version="0.1">
   <UnstructuredGrid>
      <Piece NumberOfCells="3364" NumberOfPoints="1741">
         <Points>
            <DataArray Name="Points" NumberOfComponents="3" format="ascii" type="Float32">
0.0000 1.0000 0.0000
0.0000 1.0345 0.0000
0.0000 1.0690 0.0000
0.0000 1.1034 0.0000
0.0000 1.1379 0.0000
0.0000 1.1724 0.0000
0.0000 1.2069 0.0000
0.0000 1.2414 0.0000
0.0000 1.2759 0.0000
0.0000 1.3103 0.0000
0.0000 1.3448 0.0000
0.0000 1.3793 0.0000
0.0000 1.4138 0.0000
0.0000 1.4483 0.0000
0.0000 1.4828 0.0000
0.0000 1.5172 0.0000
0.0000 1.5517 0.0000
0.0000 1.5862 0.0000
0.0000 1.6207 0.0000
0.0000 1.6552 0.0000
0.0000 1.6897 0.0000
0.0000 1.7241 0.0000
0.0000 1.7586 0.0000
0.0000 1.7931 0.0000
0.0000 1.8276 0.0000
0.0000 1.8621 0.0000
0.0000 1.8966 0.0000
0.0000 1.9310 0.0000
0.0000 1.9655 0.0000
0.0000 2.0000 0.0000
0.0690 1.0000 0.0000
0.0690 1.0345 0.0000
0.0690 1.0690 0.0000
0.0690 1.1034 0.0000
0.0690 1.1379 0.0000
0.0690 1.1724 0.0000
0.0690 1.2069 0.0000
0.0690 1.2414 0.0000
0.0690 1.2759 0.0000
0.0690 1.3103 0.0000
0.0690 1.3448 0.0000
0.0690 1.3793 0.0000
0.0690 1.4138 0.0000
0.0690 1.4483 0.0000
0.0690 1.4828 0.0000
0.0690 1.5172 0.0000
0.0690 1.5517 0.0000
0.0690 1.5862 0.0000
0.0690 1.6207 0.0000
0.0690 1.6552 0.0000
0.0690 1.6897 0.0000
0.0690 1.7241 0.0000
0.0690 1.7586 0.0000
0.0690 1.7931 0.0000
0.0690 1.8276 0.0000
0.0690 1.8621 0.0000
0.0690 1.8966 0.0000
0.0690 1.9310 0.0000
0.0690 1.9655 0.0000
0.0690 2.0000 0.0000
0.1379 1.0000 0.0000
0.1379 1.0345 0.0000
0.1379 1.0690 0.0000
0.1379 1.1034 0.0000
0.1379 1.1379 0.0000
0.1379 1.1724 0.0000
0.1379 1.2069 0.0000
0.1379 1.2414 0.0000
0.1379 1.2759 0.0000
0.1379 1.3103 0.0000
0.1379 1.3448 0.0000
0.1379 1.3793 0.0000
0.1379 1.4138 0.0000
0.1379 1.4483 0.0000
0.1379 1.4828 0.0000
0.1379 1.5172 0.0000
0.1379 1.5517 0.0000
0.1379 1.5862 0.0000
0.1379 1.6207 0.0000
0.1379 1.6552 0.0000
0.1379 1.6897 0.0000
0.1379 1.7241 0.0000
0.1379 1.7586 0.0000
0.1379 1.7931 0.0000
0.1379 1.8276 0.0000
0.1379 1.8621 0.0000
0.1379 1.8966 0.0000
0.1379 1.9310 0.0000
0.1379 1.9655 0.0000
0.1379 2.0000 0.0000
0.2069 1.0000 0.0000
0.2069 1.0345 0.0000
0.2069 1.0690 0.0000
0.2069 1.1034 0.0000
0.2069 1.1379 0.0000
0.2069 1.1724 0.0000
0.2069 1.2069 0.0000
0.2069 1.2414 0.0000
0.2069 1.2759 0.0000
0.2069 1.3103 0.0000
0.2069 1.3448 0.0000
0.2069 1.3793 0.0000
0.2069 1.4138 0.0000
0.2069 1.4483 0.0000
0.2069 1.4828 0.0000
0.2069 1.5172 0.0000
0.2069 1.5517 0.0000
0.2069 1.5862 0.0000
0.2069 1.6207 0.0000
0.2069 1.6552 0.0000
0.2069 1.6897 0.0000
0.2069 1.7241 0.0000
0.2069 1.7586 0.0000
0.2069 1.7931 0.0000
0.2069 1.8276 0.0000
0.2069 1.8621 0.0000
0.2069 1.8966 0.0000
0.2069 1.9310 0.0000
0.2069 1.9655 0.0000
0.2069 2.0000 0.0000
0.2759 1.0000 0.0000
0.2759 1.0345 0.0000
0.2759 1.0690 0.0000
0.2759 1.1034 0.0000
0.2759 1.1379 0.0000
0.2759 1.1724 0.0000
0.2759 1.2069 0.0000
0.2759 1.2414 0.0000
0.2759 1.2759 0.0000
0.2759 1.3103 0.0000
0.2759 1.3448 0.0000
0.2759 1.3793 0.0000
0.2759 1.4138 0.0000
0.2759 1.4483 0.0000
0.2759 1.4828 0.0000
0.2759 1.5172 0.0000
0.2759 1.5517 0.0000
0.2759 1.5862 0.0000
0.2759 1.6207 0.0000
0.2759 1.6552 0.0000
0.2759 1.6897 0.0000
0.2759 1.7241 0.0000
0.2759 1.7586 0.0000
0.2759 1.7931 0.0000
0.2759 1.8276 0.0000
0.2759 1.8621 0.0000
0.2759 1.8966 0.0000
0.2759 1.9310 0.0000
0.2759 1.9655 0.0000
0.2759 2.0000 0.0000
0.3448 1.0000 0.0000
0.3448 1.0345 0.0000
0.3448 1.0690 0.0000
0.3448 1.1034 0.0000
0.3448 1.1379 0.0000
0.3448 1.1724 0.0000
0.3448 1.2069 0.0000
0.3448 1.2414 0.0000
0.3448 1.2759 0.0000
0.3448 1.3103 0.0000
0.3448 1.3448 0.0000
0.3448 1.3793 0.0000
0.3448 1.4138 0.0000
0.3448 1.4483 0.0000
0.3448 1.4828 0.0000
0.3448 1.5172 0.0000
0.3448 1.5517 0.0000
0.3448 1.5862 0.0000
0.3448 1.6207 0.0000
0.3448 1.6552 0.0000
0.3448 1.6897 0.0000
0.3448 1.7241 0.0000
0.3448 1.7586 0.0000
0.3448 1.7931 0.0000
0.3448 1.8276 0.0000
0.3448 1.8621 0.0000
0.3448 1.8966 0.0000
0.3448 1.9310 0.0000
0.3448 1.9655 0.0000
0.3448 2.0000 0.0000
0.4138 1.0000 0.0000
0.4138 1.0345 0.0000
0.4138 1.0690 0.0000
0.4138 1.1034 0.0000
0.4138 1.1379 0.0000
0.4138 1.1724 0.0000
0.4138 1.2069 0.0000
0.4138 1.2414 0.0000
0.4138 1.2759 0.0000
0.4138 1.3103 0.0000
0.4138 1.3448 0.0000
0.4138 1.3793 0.0000
0.4138 1.4138 0.0000
0.4138 1.4483 0.0000
0.4138 1.4828 0.0000
0.4138 1.5172 0.0000
0.4138 1.5517 0.0000
0.4138 1.5862 0.0000
0.4138 1.6207 0.0000
0.4138 1.6552 0.0000
0.4138 1.6897 0.0000
0.4138 1.7241 0.0000
0.4138 1.7586 0.0000
0.4138 1.7931 0.0000
0.4138 1.8276 0.0000
0.4138 1.8621 0.0000
0.4138 1.8966 0.0000
0.4138 1.9310 0.0000
0.4138 1.9655 0.0000
0.4138 2.0000 0.0000
0.4828 1.0000 0.0000
0.4828 1.0345 0.0000
0.4828 1.0690 0.0000
0.4828 1.1034 0.0000
0.4828 1.1379 0.0000
0.4828 1.1724 0.0000
0.4828 1.2069 0.0000
0.4828 1.2414 0.0000
0.4828 1.2759 0.0000
0.4828 1.3103 0.0000
0.4828 1.3448 0.0000
0.4828 1.3793 0.0000
0.4828 1.4138 0.0000
0.4828 1.4483 0.0000
0.4828 1.4828 0.0000
0.4828 1.5172 0.0000
0.4828 1.5517 0.0000
0.4828 1.5862 0.0000
0.4828 1.6207 0.0000
0.4828 1.6552 0.0000
0.4828 1.6897 0.0000
0.4828 1.7241 0.0000
0.4828 1.7586 0.0000
0.4828 1.7931 0.0000
0.4828 1.8276 0.0000
0.4828 1.8621 0.0000
0.4828 1.8966 0.0000
0.4828 1.9310 0.0000
0.4828 1.9655 0.0000
0.4828 2.0000 0.0000
0.5517 1.0000 0.0000
0.5517 1.0345 0.0000
0.5517 1.0690 0.0000
0.5517 1.1034 0.0000
0.5517 1.1379 0.0000
0.5517 1.1724 0.0000
0.5517 1.2069 0.0000
0.5517 1.2414 0.0000
0.5517 1.2759 0.0000
0.5517 1.3103 0.0000
0.5517 1.3448 0.0000
0.5517 1.3793 0.0000
0.5517 1.4138 0.0000
0.5517 1.4483 0.0000
0.5517 1.4828 0.0000
0.5517 1.5172 0.0000
0.5517 1.5517 0.0000
0.5517 1.5862 0.0000
0.5517 1.6207 0.0000
0.5517 1.6552 0.0000
0.5517 1.6897 0.0000
0.5517 1.7241 0.0000
0.5517 1.7586 0.0000
0.5517 1.7931 0.0000
0.5517 1.8276 0.0000
0.5517 1.8621 0.0000
0.5517 1.8966 0.0000
0.5517 1.9310 0.0000
0.5517 1.9655 0.0000
0.5517 2.0000 0.0000
0.6207 1.0000 0.0000
0.6207 1.0345 0.0000
0.6207 1.0690 0.0000
0.6207 1.1034 0.0000
0.6207 1.1379 0.0000
0.6207 1.1724 0.0000
0.6207 1.2069 0.0000
0.6207 1.2414 0.0000
0.6207 1.2759 0.0000
0.6207 1.3103 0.0000
0.6207 1.3448 0.0000
0.6207 1.3793 0.0000
0.6207 1.4138 0.0000
0.6207 1.4483 0.0000
0.6207 1.4828 0.0000
0.6207 1.5172 0.0000
0.6207 1.5517 0.0000
0.6207 1.5862 0.0000
0.6207 1.6207 0.0000
0.6207 1.6552 0.0000
0.6207 1.6897 0.0000
0.6207 1.7241 0.0000
0.6207 1.7586 0.0000
0.6207 1.7931 0.0000
0.6207 1.8276 0.0000
0.6207 1.8621 0.0000
0.6207 1.8966 0.0000
0.6207 1.9310 0.0000
0.6207 1.9655 0.0000
0.6207 2.0000 0.0000
0.6897 1.0000 0.0000
0.6897 1.0345 0.0000
0.6897 1.0690 0.0000
0.6897 1.1034 0.0000
0.6897 1.1379 0.0000
0.6897 1.1724 0.0000
0.6897 1.2069 0.0000
0.6897 1.2414 0.0000
0.6897 1.2759 0.0000
0.6897 1.3103 0.0000
0.6897 1.3448 0.0000
0.6897 1.3793 0.0000
0.6897 1.4138 0.0000
0.6897 1.4483 0.0000
0.6897 1.4828 0.0000
0.6897 1.5172 0.0000
0.6897 1.5517 0.0000
0.6897 1.5862 0.0000
0.6897 1.6207 0.0000
0.6897 1.6552 0.0000
0.6897 1.6897 0.0000
0.6897 1.7241 0.0000
0.6897 1.7586 0.0000
0.6897 1.7931 0.0000
0.6897 1.8276 0.0000
0.6897 1.8621 0.0000
0.6897 1.8966 0.0000
0.6897 1.9310 0.0000
0.6897 1.9655 0.0000
0.6897 2.0000 0.0000
0.7586 1.0000 0.0000
0.7586 1.0345 0.0000
0.7586 1.0690 0.0000
0.7586 1.1034 0.0000
0.7586 1.1379 0.0000
0.7586 1.1724 0.0000
0.7586 1.2069 0.0000
0.7586 1.2414 0.0000
0.7586 1.2759 0.0000
0.7586 1.3103 0.0000
0.7586 1.3448 0.0000
0.7586 1.3793 0.0000
0.7586 1.4138 0.0000
0.7586 1.4483 0.0000
0.7586 1.4828 0.0000
0.7586 1.5172 0.0000
0.7586 1.5517 0.0000
0.7586 1.5862 0.0000
0.7586 1.6207 0.0000
0.7586 1.6552 0.0000
0.7586 1.6897 0.0000
0.7586 1.7241 0.0000
0.7586 1.7586 0.0000
0.7586 1.7931 0.0000
0.7586 1.8276 0.0000
0.7586 1.8621 0.0000
0.7586 1.8966 0.0000
0.7586 1.9310 0.0000
0.7586 1.9655 0.0000
0.7586 2.0000 0.0000
0.8276 1.0000 0.0000
0.8276 1.0345 0.0000
0.8276 1.0690 0.0000
0.8276 1.1034 0.0000
0.8276 1.1379 0.0000
0.8276 1.1724 0.0000
0.8276 1.2069 0.0000
0.8276 1.2414 0.0000
0.8276 1.2759 0.0000
0.8276 1.3103 0.0000
0.8276 1.3448 0.0000
0.8276 1.3793 0.0000
0.8276 1.4138 0.0000
0.8276 1.4483 0.0000
0.8276 1.4828 0.0000
0.8276 1.5172 0.0000
0.8276 1.5517 0.0000
0.8276 1.5862 0.0000
0.8276 1.6207 0.0000
0.8276 1.6552 0.0000
0.8276 1.6897 0.0000
0.8276 1.7241 0.0000
0.8276 1.7586 0.0000
0.8276 1.7931 0.0000
0.8276 1.8276 0.0000
0.8276 1.8621 0.0000
0.8276 1.8966 0.0000
0.8276 1.9310 0.0000
0.8276 1.9655 0.0000
0.8276 2.0000 0.0000
0.8966 1.0000 0.0000
0.8966 1.0345 0.0000
0.8966 1.0690 0.0000
0.8966 1.1034 0.0000
0.8966 1.1379 0.0000
0.8966 1.1724 0.0000
0.8966 1.2069 0.0000
0.8966 1.2414 0.0000
0.8966 1.2759 0.0000
0.8966 1.3103 0.0000
0.8966 1.3448 0.0000
0.8966 1.3793 0.0000
0.8966 1.4138 0.0000
0.8966 1.4483 0.0000
0.8966 1.4828 0.0000
0.8966 1.5172 0.0000
0.8966 1.5517 0.0000
0.8966 1.5862 0.0000
0.8966 1.6207 0.0000
0.8966 1.6552 0.0000
0.8966 1.6897 0.0000
0.8966 1.7241 0.0000
0.8966 1.7586 0.0000
0.8966 1.7931 0.0000
0.8966 1.8276 0.0000
0.8966 1.8621 0.0000
0.8966 1.8966 0.0000
0.8966 1.9310 0.0000
0.8966 1.9655 0.0000
0.8966 2.0000 0.0000
0.9655 1.0000 0.0000
0.9655 1.0345 0.0000
0.9655 1.0690 0.0000
0.9655 1.1034 0.0000
0.9655 1.1379 0.0000
0.9655 1.1724 0.0000
0.9655 1.2069 0.0000
0.9655 1.2414 0.0000
0.9655 1.2759 0.0000
0.9655 1.3103 0.0000
0.9655 1.3448 0.0000
0.9655 1.3793 0.0000
0.9655 1.4138 0.0000
0.9655 1.4483 0.0000
0.9655 1.4828 0.0000
0.9655 1.5172 0.0000
0.9655 1.5517 0.0000
0.9655 1.5862 0.0000
0.9655 1.6207 0.0000
0.9655 1.6552 0.0000
0.9655 1.6897 0.0000
0.9655 1.7241 0.0000
0.9655 1.7586 0.0000
0.9655 1.7931 0.0000
0.9655 1.8276 0.0000
0.9655 1.8621 0.0000
0.9655 1.8966 0.0000
0.9655 1.9310 0.0000
0.9655 1.9655 0.0000
0.9655 2.0000 0.0000
1.0345 1.0000 0.0000
1.0345 1.0345 0.0000
1.0345 1.0690 0.0000
1.0345 1.1034 0.0000
1.0345 1.1379 0.0000
1.0345 1.1724 0.0000
1.0345 1.2069 0.0000
1.0345 1.2414 0.0000
1.0345 1.2759 0.0000
1.0345 1.3103 0.0000
1.0345 1.3448 0.0000
[...]
         <PointData>
            <DataArray Name="fValues" NumberOfComponents="3" format="ascii" type="Float64">
 4.90732e-24 -1.45652e-24        00000 
-5.33590e-24  1.46405e-24        00000 
 6.29626e-24 -1.41956e-24        00000 
-6.97905e-24  1.20142e-24        00000 
 6.51252e-24 -7.83878e-25        00000 
-5.30618e-24  2.92432e-25        00000 
 3.21381e-24  9.14760e-26        00000 
-1.68959e-24 -2.68555e-25        00000 
 6.27568e-25  2.67659e-25        00000 
-1.44085e-25 -1.84347e-25        00000 
 5.70961e-27  9.88212e-26        00000 
 1.06258e-26 -4.33120e-26        00000 
-5.41261e-27  1.60348e-26        00000 
 1.69810e-27 -5.15975e-27        00000 
-3.95329e-28  1.48238e-27        00000 
 6.53977e-29 -3.89332e-28        00000 
-4.05523e-30  9.52838e-29        00000 
-2.22506e-30 -2.20542e-29        00000 
 1.24351e-30  4.88261e-30        00000 
-4.30427e-31 -1.04292e-30        00000 
 1.23444e-31  2.16356e-31        00000 
-3.17767e-32 -4.38171e-32        00000 
 7.60886e-33  8.69823e-33        00000 
-1.72864e-33 -1.69795e-33        00000 
 3.77281e-34  3.26767e-34        00000 
-7.97760e-35 -6.21272e-35        00000 
 1.64429e-35  1.16898e-35        00000 
-3.32272e-36 -2.18206e-36        00000 
 6.82640e-37  4.16756e-37        00000 
-2.57000e-37 -1.48171e-37        00000 
-1.36829e-23  4.30710e-24        00000 
 1.53325e-23 -4.42446e-24        00000 
-1.91512e-23  4.46468e-24        00000 
 2.21978e-23 -3.85460e-24        00000 
-2.13510e-23  2.44262e-24        00000 
 1.39902e-23 -7.40582e-25        00000 
-9.80957e-24 -5.22136e-25        00000 
 4.38820e-24  1.00085e-24        00000 
-1.22694e-24 -8.76792e-25        00000 
 1.10208e-25  5.39885e-25        00000 
 6.34329e-26 -2.57820e-25        00000 
-3.68671e-26  1.00314e-25        00000 
 1.18914e-26 -3.30648e-26        00000 
-2.80269e-27  9.57198e-27        00000 
 4.68681e-28 -2.51063e-27        00000 
-3.10468e-29  6.10990e-28        00000 
-1.45902e-29 -1.40380e-28        00000 
 8.26578e-30  3.08379e-29        00000 
-2.84073e-30 -6.53742e-30        00000 
 8.06431e-31  1.34673e-30        00000 
-2.05435e-31 -2.71012e-31        00000 
 4.87095e-32  5.34923e-32        00000 
-1.09674e-32 -1.03888e-32        00000 
 2.37446e-33  1.99026e-33        00000 
-4.98485e-34 -3.76877e-34        00000 
 1.02085e-34  7.06564e-35        00000 
-2.04852e-35 -1.31331e-35        00000 
 4.04639e-36  2.42528e-36        00000 
-8.14486e-37 -4.58646e-37        00000 
 3.01877e-37  1.61793e-37        00000 
 6.92865e-23 -2.34799e-23        00000 
-8.13655e-23  2.50500e-23        00000 
 1.09748e-22 -2.69571e-23        00000 
-1.35404e-22  2.39839e-23        00000 
 1.33211e-22 -1.45830e-23        00000 
-9.83150e-23  2.99145e-24        00000 
 5.36299e-23  4.94786e-24        00000 
-1.89129e-23 -7.03593e-24        00000 
 2.12033e-24  5.31003e-24        00000 
 8.84951e-25 -2.82450e-24        00000 
-5.13070e-25  1.15334e-24        00000 
 1.56589e-25 -3.82064e-25        00000 
-3.44268e-26  1.08069e-25        00000 
 5.02889e-27 -2.72992e-26        00000 
-6.64367e-29  6.36061e-27        00000 
-2.60338e-28 -1.39743e-27        00000 
 1.14811e-28  2.93900e-28        00000 
-3.54113e-29 -5.97966e-29        00000 
 9.30807e-30  1.18577e-29        00000 
-2.22605e-30 -2.30423e-30        00000 
 4.99761e-31  4.40544e-31        00000 
-1.07229e-31 -8.31190e-32        00000 
 2.22377e-32  1.55117e-32        00000 
-4.49177e-33 -2.86846e-33        00000 
 8.88477e-34  5.26356e-34        00000 
-1.72781e-34 -9.59499e-35        00000 
 3.31348e-35  1.73922e-35        00000 
-6.28735e-36 -3.14003e-36        00000 
 1.21905e-36  5.81308e-37        00000 
-4.38619e-37 -2.01569e-37        00000 
-3.44546e-22  1.26416e-22        00000 
 4.33719e-22 -1.43470e-22        00000 
-6.44683e-22  1.69548e-22        00000 
 8.40492e-22 -1.56956e-22        00000 
-8.94837e-22  9.03927e-23        00000 
 5.53416e-22 -7.15203e-24        00000 
-3.13653e-22 -4.36083e-23        00000 
 4.84623e-23  4.90820e-23        00000 
 1.23306e-23 -3.13173e-23        00000 
-7.43997e-24  1.39490e-23        00000 
 2.16656e-24 -4.72976e-24        00000 
-4.56263e-25  1.31607e-24        00000 
 6.13562e-26 -3.21541e-25        00000 
 1.71364e-27  7.20303e-26        00000 
-4.07214e-27 -1.51983e-26        00000 
 1.59005e-27  3.07277e-27        00000 
-4.56672e-28 -6.02084e-28        00000 
 1.13413e-28  1.15227e-28        00000 
-2.58192e-29 -2.16574e-29        00000 
 5.54616e-30  4.01360e-30        00000 
-1.14307e-30 -7.35550e-31        00000 
 2.28456e-31  1.33597e-31        00000 
-4.45965e-32 -2.40891e-32        00000 
 8.54619e-33  4.31762e-33        00000 
-1.61373e-33 -7.70041e-34        00000 
 3.01081e-34  1.36766e-34        00000 
-5.56248e-35 -2.42062e-35        00000 
 1.02029e-35  4.27526e-36        00000 
-1.91511e-36 -7.74881e-37        00000 
 6.71091e-37  2.64028e-37        00000 
 1.59068e-21 -6.33238e-22        00000 
-2.21487e-21  8.01122e-22        00000 
 3.80347e-21 -1.08922e-21        00000 
-5.24461e-21  1.06398e-21        00000 
 5.64829e-21 -5.68197e-22        00000 
-5.22629e-21 -5.37405e-23        00000 
 1.16056e-21  3.69646e-22        00000 
 1.93385e-22 -3.30199e-22        00000 
-1.13068e-22  1.70071e-22        00000 
 3.00484e-23 -6.00017e-23        00000 
-5.99732e-24  1.62896e-23        00000 
 7.60632e-25 -3.80910e-24        00000 
 5.97413e-26  8.14067e-25        00000 
-6.27453e-26 -1.64210e-25        00000 
 2.18691e-26  3.18536e-26        00000 
-5.83060e-27 -6.01107e-27        00000 
 1.36431e-27  1.11183e-27        00000 
-2.95308e-28 -2.02595e-28        00000 
 6.07107e-29  3.64978e-29        00000 
-1.20368e-29 -6.51730e-30        00000 
 2.32377e-30  1.15573e-30        00000 
-4.39656e-31 -2.03820e-31        00000 
 8.18898e-32  3.57864e-32        00000 
-1.50648e-32 -6.26087e-33        00000 
 2.74392e-33  1.09216e-33        00000 
-4.95746e-34 -1.90065e-34        00000 
 8.89737e-35  3.30120e-35        00000 
-1.58948e-35 -5.72927e-36        00000 
 2.90900e-36  1.02085e-36        00000 
-9.98372e-37 -3.42901e-37        00000 
-6.11630e-21  2.74067e-21        00000 
 1.03624e-20 -4.25253e-21        00000 
-2.18380e-20  7.15787e-21        00000 
 3.37146e-20 -7.56023e-21        00000 
-3.30659e-20  3.62451e-21        00000 
 1.92322e-20  1.26510e-21        00000 
-5.70545e-21 -3.05722e-21        00000 
-1.21284e-22  2.07351e-21        00000 
 4.13054e-22 -7.88798e-22        00000 
-7.53694e-23  2.04814e-22        00000 
 1.00538e-23 -4.49547e-23        00000 
 1.39933e-24  9.04075e-24        00000 
-9.73007e-25 -1.72778e-24        00000 
 3.00453e-25  3.19763e-25        00000 
-7.35925e-26 -5.79278e-26        00000 
 1.60971e-26  1.03397e-26        00000 
-3.29457e-27 -1.82608e-27        00000 
 6.45883e-28  3.19994e-28        00000 
-1.22916e-28 -5.57478e-29        00000 
 2.28965e-29  9.66905e-30        00000 
-4.19763e-30 -1.67130e-30        00000 
 7.60230e-31  2.88118e-31        00000 
-1.36382e-31 -4.95662e-32        00000 
 2.42826e-32  8.51325e-33        00000 
-4.29733e-33 -1.46033e-33        00000 
 7.56764e-34  2.50251e-34        00000 
-1.32732e-34 -4.28523e-35        00000 
 2.32223e-35  7.33943e-36        00000 
-4.16635e-36 -1.29102e-36        00000 
 1.40665e-36  4.28976e-37        00000 
 2.02749e-20 -8.51138e-21        00000 
-4.08229e-20  1.99186e-20        00000 
 1.22495e-19 -4.76004e-20        00000 
-2.38413e-19  5.76319e-20        00000 
 2.14940e-19 -2.34720e-20        00000 
-1.11016e-19 -1.78267e-20        00000 
 6.72710e-21  2.44673e-20        00000 
 1.02930e-20 -1.10405e-20        00000 
-7.82554e-22  2.61800e-21        00000 
 1.66253e-22 -5.22873e-22        00000 
 3.00961e-23  9.71730e-23        00000 
-1.52995e-23 -1.74123e-23        00000 
 4.10640e-24  3.05658e-24        00000 
-9.10752e-25 -5.29933e-25        00000 
 1.84469e-25  9.11566e-26        00000 
-3.54854e-26 -1.55998e-26        00000 
 6.60887e-27  2.66044e-27        00000 
-1.20450e-27 -4.52663e-28        00000 
 2.16224e-28  7.68965e-29        00000 
-3.83910e-29 -1.30489e-29        00000 
 6.76087e-30  2.21275e-30        00000 
-1.18324e-30 -3.75058e-31        00000 
 2.06086e-31  6.35557e-32        00000 
-3.57587e-32 -1.07687e-32        00000 
 6.18594e-33  1.82461e-33        00000 
-1.06753e-33 -3.09179e-34        00000 
 1.83873e-34  5.23987e-35        00000 
-3.16460e-35 -8.88899e-36        00000 
 5.58986e-36  1.54914e-36        00000 
-1.86317e-36 -5.10729e-37        00000 
-5.44421e-20  1.74127e-20        00000 
 1.31282e-19 -5.49163e-20        00000 
-4.91815e-19  2.99847e-19        00000 
 1.73674e-18 -4.96971e-19        00000 
-1.85038e-18  1.51855e-19        00000 
 5.19818e-19  2.36621e-19        00000 
 2.90100e-19 -1.73807e-19        00000 
-7.13555e-21  3.36619e-20        00000 
 4.20812e-21 -5.83862e-21        00000 
 6.93350e-22  9.82279e-22        00000 
-2.45088e-22 -1.63547e-22        00000 
 5.51517e-23  2.71370e-23        00000 
-1.08712e-23 -4.50003e-24        00000 
 2.01875e-24  7.46671e-25        00000 
-3.63056e-25 -1.24031e-25        00000 
 6.40646e-26  2.06302e-26        00000 
-1.11699e-26 -3.43616e-27        00000 
 1.93211e-27  5.73101e-28        00000 
-3.32398e-28 -9.57082e-29        00000 
 5.69684e-29  1.60028e-29        00000 
-9.73722e-30 -2.67881e-30        00000 
 1.66107e-30  4.48901e-31        00000 
-2.82961e-31 -7.52995e-32        00000 
 4.81522e-32  1.26427e-32        00000 
-8.18808e-33 -2.12454e-33        00000 
 1.39160e-33  3.57313e-34        00000 
-2.36426e-34 -6.01417e-35        00000 
 4.01887e-35  1.01380e-35        00000 
-7.01583e-36 -1.75599e-36        00000 
 2.31589e-36  5.75944e-37        00000 
 8.64781e-20 -2.29863e-20        00000 
-3.52049e-19  8.25292e-20        00000 
 1.56839e-18 -6.19142e-19        00000 
-5.94508e-18  5.79838e-18        00000 
 9.98282e-03 -6.09548e-19        00000 
 1.00894e-17 -3.37298e-18        00000 
 5.13598e-19  4.08411e-19        00000 
 6.50023e-20 -5.84326e-20        00000 
 1.98687e-20  8.79939e-21        00000 
-3.92577e-21 -1.36225e-21        00000 
 7.04619e-22  2.14669e-22        00000 
-1.21209e-22 -3.42519e-23        00000 
 2.04920e-23  5.51586e-24        00000 
-3.43847e-24 -8.94633e-25        00000 
 5.75105e-25  1.45931e-25        00000 
-9.60773e-26 -2.39148e-26        00000 
 1.60485e-26  3.93425e-27        00000 
-2.68175e-27 -6.49343e-28        00000 
 4.48425e-28  1.07473e-28        00000 
-7.50427e-29 -1.78308e-29        00000 
 1.25688e-29  2.96457e-30        00000 
-2.10695e-30 -4.93812e-31        00000 
 3.53491e-31  8.23913e-32        00000 
-5.93549e-32 -1.37672e-32        00000 
 9.97409e-33  2.30352e-33        00000 
-1.67730e-33 -3.85891e-34        00000 
 2.82269e-34  6.47184e-35        00000 
-4.75703e-35 -1.08733e-35        00000 
 8.23699e-36  1.87730e-36        00000 
-2.70073e-36 -6.14069e-37        00000 
-8.47748e-20  1.90827e-20        00000 
 2.64749e-19 -6.53382e-20        00000 
-1.97703e-18  4.49709e-19        00000 
-9.98282e-03 -1.02104e-17        00000 
 8.54322e-01  8.09218e-19        00000 
-9.98282e-03  9.79860e-18        00000 
-2.67975e-18 -4.23942e-19        00000 
 3.21232e-19  6.08313e-20        00000 
-5.44706e-20 -9.11773e-21        00000 
 7.84927e-21  1.40500e-21        00000 
-1.18214e-21 -2.20559e-22        00000 
 1.83161e-22  3.50837e-23        00000 
-2.88955e-23 -5.63576e-24        00000 
 4.61582e-24  9.12213e-25        00000 
-7.44142e-25 -1.48546e-25        00000 
 1.20817e-25  2.43084e-26        00000 
-1.97255e-26 -3.99412e-27        00000 
 3.23523e-27  6.58527e-28        00000 
-5.32629e-28 -1.08892e-28        00000 
 8.79686e-29  1.80517e-29        00000 
-1.45685e-29 -2.99915e-30        00000 
 2.41839e-30  4.99251e-31        00000 
-4.02285e-31 -8.32507e-32        00000 
 6.70395e-32  1.39035e-32        00000 
-1.11900e-32 -2.32520e-33        00000 
 1.87049e-33  3.89349e-34        00000 
-3.13080e-34 -6.52709e-35        00000 
 5.25040e-35  1.09617e-35        00000 
-9.04895e-36 -1.89182e-36        00000 
 2.95551e-36  6.18602e-37        00000 
 5.64142e-20 -9.10598e-21        00000 
-1.62407e-19  2.18602e-20        00000 
 5.49186e-19 -3.18731e-20        00000 
 2.07243e-19 -1.65927e-18        00000 
 9.98282e-03 -2.89077e-19        00000 
-1.10313e-17 -9.32910e-19        00000 
 2.28436e-18  2.18123e-19        00000 
-3.88510e-19 -3.91899e-20        00000 
 6.12133e-20  6.57797e-21        00000 
-8.76449e-21 -1.08442e-21        00000 
 1.30697e-21  1.78006e-22        00000 
-2.00321e-22 -2.92255e-23        00000 
 3.13037e-23  4.80672e-24        00000 
-4.96079e-24 -7.92336e-25        00000 
 7.94450e-25  1.30910e-25        00000 
-1.28265e-25 -2.16771e-26        00000 
 2.08423e-26  3.59685e-27        00000 
-3.40453e-27 -5.97950e-28        00000 
 5.58531e-28  9.95761e-29        00000 
-9.19635e-29 -1.66083e-29        00000 
 1.51890e-29  2.77407e-30        00000 
-2.51535e-30 -4.63953e-31        00000 
 4.17520e-31  7.76868e-32        00000 
-6.94450e-32 -1.30225e-32        00000 
 1.15714e-32  2.18512e-33        00000 
-1.93121e-33 -3.66994e-34        00000 
 3.22781e-34  6.16911e-35        00000 
-5.40599e-35 -1.03863e-35        00000 
 9.30540e-36  1.79675e-36        00000 
-3.03607e-36 -5.88668e-37        00000 
-3.30795e-20  1.59972e-21        00000 
 8.23813e-20  2.25741e-21        00000 
-5.47049e-19 -6.64250e-20        00000 
 1.90663e-18  1.20209e-19        00000 
-4.28176e-18 -8.81302e-20        00000 
 2.74428e-18  7.63365e-20        00000 
-8.14324e-19 -5.81208e-20        00000 
 1.79393e-19  1.58709e-20        00000 
-3.58095e-20 -3.33130e-21        00000 
 6.10096e-21  6.29432e-22        00000 
-1.00246e-21 -1.13211e-22        00000 
 1.63059e-22  1.98430e-23        00000 
-2.64981e-23 -3.42758e-24        00000 
 4.31570e-24  5.86937e-25        00000 
-7.05133e-25 -9.99708e-26        00000 
 1.15592e-25  1.69706e-26        00000 
-1.90085e-26 -2.87478e-27        00000 
 3.13485e-27  4.86339e-28        00000 
-5.18333e-28 -8.22105e-29        00000 
 8.59031e-29  1.38906e-29        00000 
-1.42663e-29 -2.34654e-30        00000 
 2.37371e-30  3.96383e-31        00000 
-3.95614e-31 -6.69629e-32        00000 
 6.60350e-32  1.13140e-32        00000 
-1.10376e-32 -1.91200e-33        00000 
 1.84722e-33  3.23195e-34        00000 
-3.09504e-34 -5.46465e-35        00000 
 5.19511e-35  9.24949e-36        00000 
-8.96103e-36 -1.60827e-36        00000 
 2.92872e-36  5.29155e-37        00000 
 2.89165e-20  6.27049e-22        00000 
-5.06125e-20 -3.42827e-21        00000 
 8.58642e-20  1.07730e-20        00000 
-4.81858e-19 -1.63298e-20        00000 
 5.47019e-19  1.57361e-20        00000 
-4.83857e-19 -1.27284e-20        00000 
 1.22290e-19  8.86213e-21        00000 
-3.33926e-20 -4.16913e-21        00000 
 1.10799e-20  1.19988e-21        00000 
-2.76199e-21 -2.76699e-22        00000 
 5.49623e-22  5.69894e-23        00000 
-1.00728e-22 -1.10139e-23        00000 
 1.77562e-23  2.04783e-24        00000 
-3.06684e-24 -3.71390e-25        00000 
 5.23736e-25  6.62346e-26        00000 
-8.88597e-26 -1.16751e-26        00000 
 1.50193e-26  2.04079e-27        00000 
-2.53305e-27 -3.54538e-28        00000 
 4.26688e-28  6.13102e-29        00000 
-7.18317e-29 -1.05655e-29        00000 
 1.20901e-29  1.81586e-30        00000 
-2.03498e-30 -3.11439e-31        00000 
 3.42592e-31  5.33284e-32        00000 
-5.76930e-32 -9.11987e-33        00000 
 9.71913e-33  1.55804e-33        00000 
-1.63797e-33 -2.65964e-34        00000 
 2.76170e-34  4.53731e-35        00000 
-4.66195e-35 -7.74286e-36        00000 
 8.08459e-36  1.35686e-36        00000 
-2.65398e-36 -4.49343e-37        00000 
-7.58576e-21 -4.29700e-22        00000 
 1.10032e-20  8.34761e-22        00000 
-3.16212e-20 -1.75215e-21        00000 
 6.67649e-20  2.47284e-21        00000 
-8.48781e-20 -2.54567e-21        00000 
 6.83821e-20  2.12398e-21        00000 
-3.37520e-20 -1.48179e-21        00000 
 1.02224e-20  8.08006e-22        00000 
-3.04223e-21 -3.20105e-22        00000 
 8.97993e-22  9.37290e-23        00000 
-2.24392e-22 -2.29127e-23        00000 
 4.83053e-23  5.02471e-24        00000 
-9.55439e-24 -1.02876e-24        00000 
 1.79751e-24  2.01237e-25        00000 
-3.27781e-25 -3.81419e-26        00000 
 5.85666e-26  7.06797e-27        00000 
-1.03213e-26 -1.28817e-27        00000 
 1.80157e-27  2.31853e-28        00000 
-3.12319e-28 -4.13312e-29        00000 
 5.38747e-29  7.31272e-30        00000 
-9.25928e-30 -1.28615e-30        00000 
 1.58700e-30  2.25126e-31        00000 
-2.71444e-31 -3.92530e-32        00000 
 4.63553e-32  6.82242e-33        00000 
-7.90674e-33 -1.18266e-33        00000 
 1.34741e-33  2.04565e-34        00000 
-2.29460e-34 -3.53196e-35        00000 
 3.90864e-35  6.09374e-36        00000 
-6.83657e-36 -1.07915e-36        00000 
 2.26022e-36  3.60504e-37        00000 
 1.81089e-21  1.19118e-22        00000 
-2.85425e-21 -1.71836e-22        00000 
 6.15127e-21  2.90195e-22        00000 
-1.05024e-20 -3.88506e-22        00000 
 1.26640e-20  4.07772e-22        00000 
-1.07089e-20 -3.50698e-22        00000 
 6.33249e-21  2.52340e-22        00000 
-2.64556e-21 -1.49026e-22        00000 
 8.60182e-22  6.97023e-23        00000 
-2.61309e-22 -2.54555e-23        00000 
 7.42114e-23  7.49877e-24        00000 
-1.86952e-23 -1.90390e-24        00000 
 4.21719e-24  4.37318e-25        00000 
-8.80452e-25 -9.37637e-26        00000 
 1.74384e-25  1.91465e-26        00000 
-3.33021e-26 -3.77328e-27        00000 
 6.19731e-27  7.24143e-28        00000 
-1.13180e-27 -1.36186e-28        00000 
 2.03830e-28  2.52113e-29        00000 
-3.63221e-29 -4.60937e-30        00000 
 6.41995e-30  8.34341e-31        00000 
-1.12751e-30 -1.49800e-31        00000 
 1.97024e-31  2.67166e-32        00000 
-3.42891e-32 -4.73848e-33        00000 
 5.94803e-33  8.36529e-34        00000 
-1.02903e-33 -1.47103e-34        00000 
 1.77641e-34  2.57825e-35        00000 
-3.06353e-35 -4.50987e-36        00000 
 5.42153e-36  8.09250e-37        00000 
-1.80981e-36 -2.73310e-37        00000 
-4.37182e-22 -2.63419e-23        00000 
 6.17825e-22  3.31797e-23        00000 
-1.10828e-21 -4.87269e-23        00000 
 1.67734e-21  6.22355e-23        00000 
-1.94447e-21 -6.55501e-23        00000 
 1.69930e-21  5.76915e-23        00000 
-1.11777e-21 -4.29445e-23        00000 
 5.57573e-22  2.69087e-23        00000 
-2.18241e-22 -1.39627e-23        00000 
 7.24720e-23  5.92411e-24        00000 
-2.20801e-23 -2.06652e-24        00000 
 6.19605e-24  6.10262e-25        00000 
-1.57759e-24 -1.59016e-25        00000 
 3.67437e-25  3.78252e-26        00000 
-7.98417e-26 -8.41672e-27        00000 
 1.64739e-26  1.78214e-27        00000 
-3.27071e-27 -3.63403e-28        00000 
 6.30831e-28  7.19784e-29        00000 
-1.19011e-28 -1.39345e-29        00000 
 2.20711e-29  2.64888e-30        00000 
-4.03843e-30 -4.96171e-31        00000 
 7.31041e-31  9.18247e-32        00000 
-1.31193e-31 -1.68248e-32        00000 
 2.33784e-32  3.05717e-33        00000 
-4.14185e-33 -5.51614e-34        00000 
 7.30257e-34  9.89367e-35        00000 
-1.28236e-34 -1.76552e-35        00000 
 2.24615e-35  3.13956e-36        00000 
-4.03421e-36 -5.72343e-37        00000 
 1.36320e-36  1.95844e-37        00000 
 9.61164e-23  5.28762e-24        00000 
-1.23648e-22 -6.18475e-24        00000 
 1.94108e-22  8.25136e-24        00000 
-2.70555e-22 -1.01036e-23        00000 
 3.04868e-22  1.06032e-23        00000 
-2.72289e-22 -9.49053e-24        00000 
 1.92195e-22  7.28268e-24        00000 
-1.07687e-22 -4.78784e-24        00000 
 4.86708e-23  2.67698e-24        00000 
-1.83889e-23 -1.26274e-24        00000 
 6.11480e-24  5.01959e-25        00000 
-1.85984e-24 -1.70068e-25        00000 
 5.20759e-25  5.02847e-26        00000 
-1.34074e-25 -1.33501e-26        00000 
 3.19908e-26  3.26260e-27        00000 
-7.16979e-27 -7.48243e-28        00000 
 1.52919e-27  1.63365e-28        00000 