<?xml version="1.0" encoding="utf-8"?>
<VTKFile byte_order="LittleEndian" type="UnstructuredGrid" version="0.1">
   <UnstructuredGrid>
      <Piece NumberOfCells="3364" NumberOfPoints="1741">
         <Points>
            <DataArray Name="Points" NumberOfComponents="3" format="ascii" type="Float32">
0.0000 1.0000 0.0000
0.0000 1.0345 0.0000
0.0000 1.0690 0.0000
0.0000 1.1034 0.0000
0.0000 1.1379 0.0000
0.0000 1.1724 0.0000
0.0000 1.2069 0.0000
0.0000 1.2414 0.0000
0.0000 1.2759 0.0000
0.0000 1.3103 0.0000
0.0000 1.3448 0.0000
0.0000 1.3793 0.0000
0.0000 1.4138 0.0000
0.0000 1.4483 0.0000
0.0000 1.4828 0.0000
0.0000 1.5172 0.0000
0.0000 1.5517 0.0000
0.0000 1.5862 0.0000
0.0000 1.6207 0.0000
0.0000 1.6552 0.0000
0.0000 1.6897 0.0000
0.0000 1.7241 0.0000
0.0000 1.7586 0.0000
0.0000 1.7931 0.0000
0.0000 1.8276 0.0000
0.0000 1.8621 0.0000
0.0000 1.8966 0.0000
0.0000 1.9310 0.0000
0.0000 1.9655 0.0000
0.0000 2.0000 0.0000
0.0690 1.0000 0.0000
0.0690 1.0345 0.0000
0.0690 1.0690 0.0000
0.0690 1.1034 0.0000
0.0690 1.1379 0.0000
0.0690 1.1724 0.0000
0.0690 1.2069 0.0000
0.0690 1.2414 0.0000
0.0690 1.2759 0.0000
0.0690 1.3103 0.0000
0.0690 1.3448 0.0000
0.0690 1.3793 0.0000
0.0690 1.4138 0.0000
0.0690 1.4483 0.0000
0.0690 1.4828 0.0000
0.0690 1.5172 0.0000
0.0690 1.5517 0.0000
0.0690 1.5862 0.0000
0.0690 1.6207 0.0000
0.0690 1.6552 0.0000
0.0690 1.6897 0.0000
0.0690 1.7241 0.0000
0.0690 1.7586 0.0000
0.0690 1.7931 0.0000
0.0690 1.8276 0.0000
0.0690 1.8621 0.0000
0.0690 1.8966 0.0000
0.0690 1.9310 0.0000
0.0690 1.9655 0.0000
0.0690 2.0000 0.0000
0.1379 1.0000 0.0000
0.1379 1.0345 0.0000
0.1379 1.0690 0.0000
0.1379 1.1034 0.0000
0.1379 1.1379 0.0000
0.1379 1.1724 0.0000
0.1379 1.2069 0.0000
0.1379 1.2414 0.0000
0.1379 1.2759 0.0000
0.1379 1.3103 0.0000
0.1379 1.3448 0.0000
0.1379 1.3793 0.0000
0.1379 1.4138 0.0000
0.1379 1.4483 0.0000
0.1379 1.4828 0.0000
0.1379 1.5172 0.0000
0.1379 1.5517 0.0000
0.1379 1.5862 0.0000
0.1379 1.6207 0.0000
0.1379 1.6552 0.0000
0.1379 1.6897 0.0000
0.1379 1.7241 0.0000
0.1379 1.7586 0.0000
0.1379 1.7931 0.0000
0.1379 1.8276 0.0000
0.1379 1.8621 0.0000
0.1379 1.8966 0.0000
0.1379 1.9310 0.0000
0.1379 1.9655 0.0000
0.1379 2.0000 0.0000
0.2069 1.0000 0.0000
0.2069 1.0345 0.0000
0.2069 1.0690 0.0000
0.2069 1.1034 0.0000
0.2069 1.1379 0.0000
0.2069 1.1724 0.0000
0.2069 1.2069 0.0000
0.2069 1.2414 0.0000
0.2069 1.2759 0.0000
0.2069 1.3103 0.0000
0.2069 1.3448 0.0000
0.2069 1.3793 0.0000
0.2069 1.4138 0.0000
0.2069 1.4483 0.0000
0.2069 1.4828 0.0000
0.2069 1.5172 0.0000
0.2069 1.5517 0.0000
0.2069 1.5862 0.0000
0.2069 1.6207 0.0000
0.2069 1.6552 0.0000
0.2069 1.6897 0.0000
0.2069 1.7241 0.0000
0.2069 1.7586 0.0000
0.2069 1.7931 0.0000
0.2069 1.8276 0.0000
0.2069 1.8621 0.0000
0.2069 1.8966 0.0000
0.2069 1.9310 0.0000
0.2069 1.9655 0.0000
0.2069 2.0000 0.0000
0.2759 1.0000 0.0000
0.2759 1.0345 0.0000
0.2759 1.0690 0.0000
0.2759 1.1034 0.0000
0.2759 1.1379 0.0000
0.2759 1.1724 0.0000
0.2759 1.2069 0.0000
0.2759 1.2414 0.0000
0.2759 1.2759 0.0000
0.2759 1.3103 0.0000
0.2759 1.3448 0.0000
0.2759 1.3793 0.0000
0.2759 1.4138 0.0000
0.2759 1.4483 0.0000
0.2759 1.4828 0.0000
0.2759 1.5172 0.0000
0.2759 1.5517 0.0000
0.2759 1.5862 0.0000
0.2759 1.6207 0.0000
0.2759 1.6552 0.0000
0.2759 1.6897 0.0000
0.2759 1.7241 0.0000
0.2759 1.7586 0.0000
0.2759 1.7931 0.0000
0.2759 1.8276 0.0000
0.2759 1.8621 0.0000
0.2759 1.8966 0.0000
0.2759 1.9310 0.0000
0.2759 1.9655 0.0000
0.2759 2.0000 0.0000
0.3448 1.0000 0.0000
0.3448 1.0345 0.0000
0.3448 1.0690 0.0000
0.3448 1.1034 0.0000
0.3448 1.1379 0.0000
0.3448 1.1724 0.0000
0.3448 1.2069 0.0000
0.3448 1.2414 0.0000
0.3448 1.2759 0.0000
0.3448 1.3103 0.0000
0.3448 1.3448 0.0000
0.3448 1.3793 0.0000
0.3448 1.4138 0.0000
0.3448 1.4483 0.0000
0.3448 1.4828 0.0000
0.3448 1.5172 0.0000
0.3448 1.5517 0.0000
0.3448 1.5862 0.0000
0.3448 1.6207 0.0000
0.3448 1.6552 0.0000
0.3448 1.6897 0.0000
0.3448 1.7241 0.0000
0.3448 1.7586 0.0000
0.3448 1.7931 0.0000
0.3448 1.8276 0.0000
0.3448 1.8621 0.0000
0.3448 1.8966 0.0000
0.3448 1.9310 0.0000
0.3448 1.9655 0.0000
0.3448 2.0000 0.0000
0.4138 1.0000 0.0000
0.4138 1.0345 0.0000
0.4138 1.0690 0.0000
0.4138 1.1034 0.0000
0.4138 1.1379 0.0000
0.4138 1.1724 0.0000
0.4138 1.2069 0.0000
0.4138 1.2414 0.0000
0.4138 1.2759 0.0000
0.4138 1.3103 0.0000
0.4138 1.3448 0.0000
0.4138 1.3793 0.0000
0.4138 1.4138 0.0000
0.4138 1.4483 0.0000
0.4138 1.4828 0.0000
0.4138 1.5172 0.0000
0.4138 1.5517 0.0000
0.4138 1.5862 0.0000
0.4138 1.6207 0.0000
0.4138 1.6552 0.0000
0.4138 1.6897 0.0000
0.4138 1.7241 0.0000
0.4138 1.7586 0.0000
0.4138 1.7931 0.0000
0.4138 1.8276 0.0000
0.4138 1.8621 0.0000
0.4138 1.8966 0.0000
0.4138 1.9310 0.0000
0.4138 1.9655 0.0000
0.4138 2.0000 0.0000
0.4828 1.0000 0.0000
0.4828 1.0345 0.0000
0.4828 1.0690 0.0000
0.4828 1.1034 0.0000
0.4828 1.1379 0.0000
0.4828 1.1724 0.0000
0.4828 1.2069 0.0000
0.4828 1.2414 0.0000
0.4828 1.2759 0.0000
0.4828 1.3103 0.0000
0.4828 1.3448 0.0000
0.4828 1.3793 0.0000
0.4828 1.4138 0.0000
0.4828 1.4483 0.0000
0.4828 1.4828 0.0000
0.4828 1.5172 0.0000
0.4828 1.5517 0.0000
0.4828 1.5862 0.0000
0.4828 1.6207 0.0000
0.4828 1.6552 0.0000
0.4828 1.6897 0.0000
0.4828 1.7241 0.0000
0.4828 1.7586 0.0000
0.4828 1.7931 0.0000
0.4828 1.8276 0.0000
0.4828 1.8621 0.0000
0.4828 1.8966 0.0000
0.4828 1.9310 0.0000
0.4828 1.9655 0.0000
0.4828 2.0000 0.0000
0.5517 1.0000 0.0000
0.5517 1.0345 0.0000
0.5517 1.0690 0.0000
0.5517 1.1034 0.0000
0.5517 1.1379 0.0000
0.5517 1.1724 0.0000
0.5517 1.2069 0.0000
0.5517 1.2414 0.0000
0.5517 1.2759 0.0000
0.5517 1.3103 0.0000
0.5517 1.3448 0.0000
0.5517 1.3793 0.0000
0.5517 1.4138 0.0000
0.5517 1.4483 0.0000
0.5517 1.4828 0.0000
0.5517 1.5172 0.0000
0.5517 1.5517 0.0000
0.5517 1.5862 0.0000
0.5517 1.6207 0.0000
0.5517 1.6552 0.0000
0.5517 1.6897 0.0000
0.5517 1.7241 0.0000
0.5517 1.7586 0.0000
0.5517 1.7931 0.0000
0.5517 1.8276 0.0000
0.5517 1.8621 0.0000
0.5517 1.8966 0.0000
0.5517 1.9310 0.0000
0.5517 1.9655 0.0000
0.5517 2.0000 0.0000
0.6207 1.0000 0.0000
0.6207 1.0345 0.0000
0.6207 1.0690 0.0000
0.6207 1.1034 0.0000
0.6207 1.1379 0.0000
0.6207 1.1724 0.0000
0.6207 1.2069 0.0000
0.6207 1.2414 0.0000
0.6207 1.2759 0.0000
0.6207 1.3103 0.0000
0.6207 1.3448 0.0000
0.6207 1.3793 0.0000
0.6207 1.4138 0.0000
0.6207 1.4483 0.0000
0.6207 1.4828 0.0000
0.6207 1.5172 0.0000
0.6207 1.5517 0.0000
0.6207 1.5862 0.0000
0.6207 1.6207 0.0000
0.6207 1.6552 0.0000
0.6207 1.6897 0.0000
0.6207 1.7241 0.0000
0.6207 1.7586 0.0000
0.6207 1.7931 0.0000
0.6207 1.8276 0.0000
0.6207 1.8621 0.0000
0.6207 1.8966 0.0000
0.6207 1.9310 0.0000
0.6207 1.9655 0.0000
0.6207 2.0000 0.0000
0.6897 1.0000 0.0000
0.6897 1.0345 0.0000
0.6897 1.0690 0.0000
0.6897 1.1034 0.0000
0.6897 1.1379 0.0000
0.6897 1.1724 0.0000
0.6897 1.2069 0.0000
0.6897 1.2414 0.0000
0.6897 1.2759 0.0000
0.6897 1.3103 0.0000
0.6897 1.3448 0.0000
0.6897 1.3793 0.0000
0.6897 1.4138 0.0000
0.6897 1.4483 0.0000
0.6897 1.4828 0.0000
0.6897 1.5172 0.0000
0.6897 1.5517 0.0000
0.6897 1.5862 0.0000
0.6897 1.6207 0.0000
0.6897 1.6552 0.0000
0.6897 1.6897 0.0000
0.6897 1.7241 0.0000
0.6897 1.7586 0.0000
0.6897 1.7931 0.0000
0.6897 1.8276 0.0000
0.6897 1.8621 0.0000
0.6897 1.8966 0.0000
0.6897 1.9310 0.0000
0.6897 1.9655 0.0000
0.6897 2.0000 0.0000
0.7586 1.0000 0.0000
0.7586 1.0345 0.0000
0.7586 1.0690 0.0000
0.7586 1.1034 0.0000
0.7586 1.1379 0.0000
0.7586 1.1724 0.0000
0.7586 1.2069 0.0000
0.7586 1.2414 0.0000
0.7586 1.2759 0.0000
0.7586 1.3103 0.0000
0.7586 1.3448 0.0000
0.7586 1.3793 0.0000
0.7586 1.4138 0.0000
0.7586 1.4483 0.0000
0.7586 1.4828 0.0000
0.7586 1.5172 0.0000
0.7586 1.5517 0.0000
0.7586 1.5862 0.0000
0.7586 1.6207 0.0000
0.7586 1.6552 0.0000
0.7586 1.6897 0.0000
0.7586 1.7241 0.0000
0.7586 1.7586 0.0000
0.7586 1.7931 0.0000
0.7586 1.8276 0.0000
0.7586 1.8621 0.0000
0.7586 1.8966 0.0000
0.7586 1.9310 0.0000
0.7586 1.9655 0.0000
0.7586 2.0000 0.0000
0.8276 1.0000 0.0000
0.8276 1.0345 0.0000
0.8276 1.0690 0.0000
0.8276 1.1034 0.0000
0.8276 1.1379 0.0000
0.8276 1.1724 0.0000
0.8276 1.2069 0.0000
0.8276 1.2414 0.0000
0.8276 1.2759 0.0000
0.8276 1.3103 0.0000
0.8276 1.3448 0.0000
0.8276 1.3793 0.0000
0.8276 1.4138 0.0000
0.8276 1.4483 0.0000
0.8276 1.4828 0.0000
0.8276 1.5172 0.0000
0.8276 1.5517 0.0000
0.8276 1.5862 0.0000
0.8276 1.6207 0.0000
0.8276 1.6552 0.0000
0.8276 1.6897 0.0000
0.8276 1.7241 0.0000
0.8276 1.7586 0.0000
0.8276 1.7931 0.0000
0.8276 1.8276 0.0000
0.8276 1.8621 0.0000
0.8276 1.8966 0.0000
0.8276 1.9310 0.0000
0.8276 1.9655 0.0000
0.8276 2.0000 0.0000
0.8966 1.0000 0.0000
0.8966 1.0345 0.0000
0.8966 1.0690 0.0000
0.8966 1.1034 0.0000
0.8966 1.1379 0.0000
0.8966 1.1724 0.0000
0.8966 1.2069 0.0000
0.8966 1.2414 0.0000
0.8966 1.2759 0.0000
0.8966 1.3103 0.0000
0.8966 1.3448 0.0000
0.8966 1.3793 0.0000
0.8966 1.4138 0.0000
0.8966 1.4483 0.0000
0.8966 1.4828 0.0000
0.8966 1.5172 0.0000
0.8966 1.5517 0.0000
0.8966 1.5862 0.0000
0.8966 1.6207 0.0000
0.8966 1.6552 0.0000
0.8966 1.6897 0.0000
0.8966 1.7241 0.0000
0.8966 1.7586 0.0000
0.8966 1.7931 0.0000
0.8966 1.8276 0.0000
0.8966 1.8621 0.0000
0.8966 1.8966 0.0000
0.8966 1.9310 0.0000
0.8966 1.9655 0.0000
0.8966 2.0000 0.0000
0.9655 1.0000 0.0000
0.9655 1.0345 0.0000
0.9655 1.0690 0.0000
0.9655 1.1034 0.0000
0.9655 1.1379 0.0000
0.9655 1.1724 0.0000
0.9655 1.2069 0.0000
0.9655 1.2414 0.0000
0.9655 1.2759 0.0000
0.9655 1.3103 0.0000
0.9655 1.3448 0.0000
0.9655 1.3793 0.0000
0.9655 1.4138 0.0000
0.9655 1.4483 0.0000
0.9655 1.4828 0.0000
0.9655 1.5172 0.0000
0.9655 1.5517 0.0000
0.9655 1.5862 0.0000
0.9655 1.6207 0.0000
0.9655 1.6552 0.0000
0.9655 1.6897 0.0000
0.9655 1.7241 0.0000
0.9655 1.7586 0.0000
0.9655 1.7931 0.0000
0.9655 1.8276 0.0000
0.9655 1.8621 0.0000
0.9655 1.8966 0.0000
0.9655 1.9310 0.0000
0.9655 1.9655 0.0000
0.9655 2.0000 0.0000
1.0345 1.0000 0.0000
1.0345 1.0345 0.0000
1.0345 1.0690 0.0000
1.0345 1.1034 0.0000
1.0345 1.1379 0.0000
1.0345 1.1724 0.0000
1.0345 1.2069 0.0000
1.0345 1.2414 0.0000
1.0345 1.2759 0.0000
1.0345 1.3103 0.0000
1.0345 1.3448 0.0000
[...]
         <PointData>
            <DataArray Name="fValues" NumberOfComponents="3" format="ascii" type="Float64">
 2.48545e-30 -6.25740e-31        00000 
-6.26611e-30  1.59329e-30        00000 
 2.83960e-29 -7.29474e-30        00000 
-1.29331e-28  3.34712e-29        00000 
 5.67083e-28 -1.47350e-28        00000 
-2.37358e-27  6.14673e-28        00000 
 9.47308e-27 -2.39524e-27        00000 
-3.49127e-26  8.56309e-27        00000 
 1.17797e-25 -2.74877e-26        00000 
-3.57345e-25  7.74446e-26        00000 
 9.57316e-25 -1.87560e-25        00000 
-2.23222e-24  3.83728e-25        00000 
 4.48333e-24 -6.53299e-25        00000 
-7.69878e-24  9.10703e-25        00000 
 1.12439e-23 -1.01446e-24        00000 
-1.39190e-23  8.58212e-25        00000 
 1.45763e-23 -4.71533e-25        00000 
-1.28986e-23  2.29083e-26        00000 
 9.63795e-24  2.96791e-25        00000 
-6.08312e-24 -4.02977e-25        00000 
 3.26006e-24  3.42772e-25        00000 
-1.54860e-24 -2.20230e-25        00000 
 5.88977e-25  1.13581e-25        00000 
-1.97898e-25 -4.86034e-26        00000 
 5.93538e-26  1.77157e-26        00000 
-1.62082e-26 -5.64202e-27        00000 
 4.13405e-27  1.60988e-27        00000 
-1.00477e-27 -4.21850e-28        00000 
 2.45182e-28  1.07859e-28        00000 
-1.05411e-28 -4.73908e-29        00000 
-3.10291e-30  7.70460e-31        00000 
 8.02914e-30 -2.01643e-30        00000 
-3.76829e-29  9.58219e-30        00000 
 1.78553e-28 -4.58811e-29        00000 
-8.20367e-28  2.12608e-28        00000 
 3.61697e-27 -9.43659e-28        00000 
-1.53663e-26  3.96291e-27        00000 
 6.09873e-26 -1.54861e-26        00000 
-2.24168e-25  5.50652e-26        00000 
 7.47573e-25 -1.73203e-25        00000 
-2.20840e-24  4.67706e-25        00000 
 5.64850e-24 -1.05605e-24        00000 
-1.23051e-23  1.95154e-24        00000 
 2.25771e-23 -2.89263e-24        00000 
-3.45965e-23  3.34528e-24        00000 
 4.40267e-23 -2.85032e-24        00000 
-4.63959e-23  1.48305e-24        00000 
 4.04326e-23  9.60710e-26        00000 
-2.91050e-23 -1.14493e-24        00000 
 1.73072e-23  1.38908e-24        00000 
-8.54638e-24 -1.07903e-24        00000 
 3.60918e-24  6.28474e-25        00000 
-1.25398e-24 -2.90889e-25        00000 
 3.82036e-25  1.11047e-25        00000 
-1.04191e-25 -3.61684e-26        00000 
 2.64300e-26  1.03910e-26        00000 
-6.37584e-27 -2.71211e-27        00000 
 1.48208e-27  6.59149e-28        00000 
-3.47591e-28 -1.57755e-28        00000 
 1.45102e-28  6.61218e-29        00000 
 5.02849e-30 -1.21110e-30        00000 
-1.36024e-29  3.32346e-30        00000 
 6.75973e-29 -1.67897e-29        00000 
-3.40772e-28  8.59495e-29        00000 
 1.68009e-27 -4.30014e-28        00000 
-8.04119e-27  2.08513e-27        00000 
 3.70881e-26 -9.69923e-27        00000 
-1.62598e-25  4.26501e-26        00000 
 6.69197e-25 -1.73547e-25        00000 
-2.53073e-24  6.33720e-25        00000 
 8.54645e-24 -1.99322e-24        00000 
-2.49152e-23  5.18081e-24        00000 
 6.08490e-23 -1.07677e-23        00000 
-1.22579e-22  1.74284e-23        00000 
 2.01222e-22 -2.12864e-23        00000 
-2.66366e-22  1.83828e-23        00000 
 2.83149e-22 -8.89788e-24        00000 
-2.41534e-22 -1.98592e-24        00000 
 1.64881e-22  8.51282e-24        00000 
-8.99051e-23 -9.10257e-24        00000 
 3.95420e-23  6.28271e-24        00000 
-1.43249e-23 -3.20095e-24        00000 
 4.36716e-24  1.27602e-24        00000 
-1.14534e-24 -4.16858e-25        00000 
 2.78691e-25  1.16954e-25        00000 
-6.48641e-26 -2.93980e-26        00000 
 1.45835e-26  6.82873e-27        00000 
-3.18719e-27 -1.49959e-27        00000 
 7.04776e-28  3.27110e-28        00000 
-2.80883e-28 -1.27835e-28        00000 
-8.42257e-30  1.95113e-30        00000 
 2.36396e-29 -5.57043e-30        00000 
-1.23069e-28  2.95778e-29        00000 
 6.52251e-28 -1.59778e-28        00000 
-3.40351e-27  8.49894e-28        00000 
 1.73831e-26 -4.42391e-27        00000 
-8.62531e-26  2.23645e-26        00000 
 4.11965e-25 -1.08600e-25        00000 
-1.86847e-24  4.98146e-25        00000 
 7.94507e-24 -2.10286e-24        00000 
-3.07428e-23  7.83757e-24        00000 
 1.04165e-22 -2.42385e-23        00000 
-2.93950e-22  5.86949e-23        00000 
 6.63882e-22 -1.06797e-22        00000 
-1.19431e-21  1.40514e-22        00000 
 1.66803e-21 -1.24138e-22        00000 
-1.79008e-21  5.50303e-23        00000 
 1.48691e-21  2.35723e-23        00000 
-9.46641e-22 -6.44074e-23        00000 
 4.57653e-22  6.00199e-23        00000 
-1.74285e-22 -3.58315e-23        00000 
 5.44843e-23  1.54502e-23        00000 
-1.35915e-23 -5.15048e-24        00000 
 3.17322e-24  1.42053e-24        00000 
-7.17695e-25 -3.45370e-25        00000 
 1.57484e-25  7.71476e-26        00000 
-3.35552e-26 -1.62506e-26        00000 
 6.97675e-27  3.28613e-27        00000 
-1.46835e-27 -6.65726e-28        00000 
 5.61774e-28  2.45873e-28        00000 
 1.33761e-29 -2.95185e-30        00000 
-3.86298e-29  8.68850e-30        00000 
 2.08459e-28 -4.79376e-29        00000 
-1.14902e-27  2.70065e-28        00000 
 6.27413e-27 -1.50806e-27        00000 
-3.37882e-26  8.31237e-27        00000 
 1.78682e-25 -4.50084e-26        00000 
-9.20423e-25  2.37696e-25        00000 
 4.57455e-24 -1.21082e-24        00000 
-2.15018e-23  5.84238e-24        00000 
 9.53842e-23 -2.58789e-23        00000 
-3.79769e-22  9.93682e-23        00000 
 1.29309e-21 -2.97875e-22        00000 
-3.45937e-21  6.42124e-22        00000 
 6.89312e-21 -9.42878e-22        00000 
-1.07398e-20  8.66263e-22        00000 
 1.13463e-20 -3.42428e-22        00000 
-9.30583e-21 -2.45596e-22        00000 
 5.27094e-21  4.88921e-22        00000 
-2.10790e-21 -3.84671e-22        00000 
 7.01459e-22  1.88817e-22        00000 
-1.61579e-22 -6.51685e-23        00000 
 3.57787e-23  1.75269e-23        00000 
-7.90719e-24 -4.07987e-24        00000 
 1.70218e-24  8.69866e-25        00000 
-3.54894e-25 -1.75239e-25        00000 
 7.20889e-26  3.39702e-26        00000 
-1.43339e-26 -6.41490e-27        00000 
 2.88273e-27  1.22396e-27        00000 
-1.05975e-27 -4.31861e-28        00000 
-1.97183e-29  4.09406e-30        00000 
 5.82260e-29 -1.23333e-29        00000 
-3.23025e-28  7.00687e-29        00000 
 1.83524e-27 -4.07773e-28        00000 
-1.03828e-26  2.36516e-27        00000 
 5.83578e-26 -1.36393e-26        00000 
-3.24815e-25  7.80075e-26        00000 
 1.78456e-24 -4.40813e-25        00000 
-9.63237e-24  2.44648e-24        00000 
 4.96918e-23 -1.32013e-23        00000 
-2.46404e-22  6.80167e-23        00000 
 1.13880e-21 -3.22936e-22        00000 
-4.76915e-21  1.30591e-21        00000 
 1.62895e-20 -3.67433e-21        00000 
-4.02133e-20  6.43059e-21        00000 
 6.77725e-20 -6.33635e-21        00000 
-7.66684e-20  2.13766e-21        00000 
 5.63175e-20  2.47565e-21        00000 
-2.67859e-20 -3.71353e-21        00000 
 8.17743e-21  2.31414e-21        00000 
-1.87802e-21 -8.53228e-22        00000 
 3.88495e-22  2.19464e-22        00000 
-8.56380e-23 -4.79927e-23        00000 
 1.82189e-23  9.63636e-24        00000 
-3.70817e-24 -1.84036e-24        00000 
 7.35641e-25  3.40521e-25        00000 
-1.42807e-25 -6.16902e-26        00000 
 2.72074e-26  1.10226e-26        00000 
-5.20578e-27 -2.00465e-27        00000 
 1.83514e-27  6.81901e-28        00000 
 2.68692e-29 -5.17126e-30        00000 
-8.07292e-29  1.58387e-29        00000 
 4.57418e-28 -9.18911e-29        00000 
-2.65763e-27  5.47462e-28        00000 
 1.54217e-26 -3.26422e-27        00000 
-8.93469e-26  1.94559e-26        00000 
 5.16976e-25 -1.15839e-25        00000 
-2.97410e-24  6.88145e-25        00000 
 1.69940e-23 -4.07045e-24        00000 
-9.59503e-23  2.38864e-23        00000 
 5.27442e-22 -1.38092e-22        00000 
-2.77945e-21  7.75157e-22        00000 
 1.36208e-20 -4.08345e-21        00000 
-6.14439e-20  1.82915e-20        00000 
 2.14528e-19 -4.42168e-20        00000 
-4.39365e-19  4.99157e-20        00000 
 5.30891e-19 -1.32152e-20        00000 
-3.42765e-19 -2.55186e-20        00000 
 1.18333e-19  2.77068e-20        00000 
-1.96277e-20 -1.18591e-20        00000 
 3.86318e-21  2.79024e-21        00000 
-9.16223e-22 -5.56151e-22        00000 
 1.94521e-22  1.03314e-22        00000 
-3.81269e-23 -1.85151e-23        00000 
 7.36709e-24  3.25128e-24        00000 
-1.39228e-24 -5.63922e-25        00000 
 2.60251e-25  9.70471e-26        00000 
-4.67115e-26 -1.66283e-26        00000 
 8.46819e-27  2.91656e-27        00000 
-2.86970e-27 -9.64935e-28        00000 
-3.38072e-29  5.93415e-30        00000 
 1.02959e-28 -1.83588e-29        00000 
-5.92923e-28  1.07878e-28        00000 
 3.50267e-27 -6.51994e-28        00000 
-2.06807e-26  3.95405e-27        00000 
 1.21977e-25 -2.40540e-26        00000 
-7.20369e-25  1.46845e-25        00000 
 4.29317e-24 -9.00079e-25        00000 
-2.54199e-23  5.54236e-24        00000 
 1.52583e-22 -3.43037e-23        00000 
-9.11731e-22  2.13481e-22        00000 
 5.36023e-21 -1.33504e-21        00000 
-3.06028e-20  8.35795e-21        00000 
 1.63406e-19 -5.15433e-20        00000 
-8.36464e-19  2.89033e-19        00000 
 2.95888e-18 -4.49176e-19        00000 
-3.80314e-18  7.41505e-20        00000 
 1.98239e-18  2.84381e-19        00000 
-1.89339e-19 -1.84398e-19        00000 
 2.79494e-20  3.56401e-20        00000 
-1.01641e-20 -6.18704e-21        00000 
 2.12685e-21  1.04212e-21        00000 
-3.80391e-22 -1.73700e-22        00000 
 7.22642e-23  2.88494e-23        00000 
-1.30730e-23 -4.78793e-24        00000 
 2.45917e-24  7.95001e-25        00000 
-4.15649e-25 -1.32142e-25        00000 
 7.01108e-26  2.20076e-26        00000 
-1.21837e-26 -3.76658e-27        00000 
 4.01476e-27  1.22284e-27        00000 
 3.91942e-29 -6.17674e-30        00000 
-1.20590e-28  1.91739e-29        00000 
 7.03263e-28 -1.13157e-28        00000 
-4.21027e-27  6.87303e-28        00000 
 2.52093e-26 -4.19317e-27        00000 
-1.50622e-25  2.56961e-26        00000 
 8.95722e-25 -1.58313e-25        00000 
-5.30057e-24  9.81796e-25        00000 
 3.29722e-23 -6.13931e-24        00000 
-1.93777e-22  3.88026e-23        00000 
 1.24115e-21 -2.48777e-22        00000 
-7.89646e-21  1.62720e-21        00000 
 5.03160e-20 -1.09632e-20        00000 
-3.20257e-19  7.74786e-20        00000 
 1.79937e-18 -5.97627e-19        00000 
-1.25043e-17  5.66211e-18        00000 
 9.98282e-03  2.28545e-19        00000 
-7.76280e-19 -3.50922e-18        00000 
-7.74946e-20  4.29664e-19        00000 
-1.37253e-19 -6.17711e-20        00000 
 2.51135e-20  9.32932e-21        00000 
-3.37319e-21 -1.44715e-21        00000 
 7.12668e-22  2.28375e-22        00000 
-1.10803e-22 -3.64784e-23        00000 
 2.40551e-23  5.87944e-24        00000 
-3.43168e-24 -9.54261e-25        00000 
 5.49012e-25  1.55749e-25        00000 
-9.04084e-26 -2.55544e-26        00000 
 1.54651e-26  4.31742e-27        00000 
-5.03629e-27 -1.38773e-27        00000 
-4.16918e-29  5.82271e-30        00000 
 1.29080e-28 -1.80110e-29        00000 
-7.59116e-28  1.05827e-28        00000 
 4.59087e-27 -6.39667e-28        00000 
-2.78427e-26  3.88076e-27        00000 
 1.69079e-25 -2.36265e-26        00000 
-1.02454e-24  1.44439e-25        00000 
 6.10378e-24 -8.87448e-25        00000 
-3.27215e-23  5.48636e-24        00000 
 2.32755e-22 -3.41832e-23        00000 
-1.49134e-21  2.15155e-22        00000 
 9.48371e-21 -1.37297e-21        00000 
-5.18901e-20  8.93488e-21        00000 
 3.19737e-19 -5.99219e-20        00000 
-2.18208e-18  4.22966e-19        00000 
-9.98282e-03 -1.00223e-17        00000 
 8.54322e-01 -7.00350e-19        00000 
-9.98282e-03  9.98665e-18        00000 
-2.65428e-18 -4.50455e-19        00000 
 2.80443e-19  6.47796e-20        00000 
-4.75717e-20 -9.72422e-21        00000 
 7.55669e-21  1.50003e-21        00000 
-1.12718e-21 -2.35658e-22        00000 
 1.75839e-22  3.75072e-23        00000 
-2.05765e-23 -6.02781e-24        00000 
 3.64186e-24  9.76028e-25        00000 
-6.11547e-25 -1.58988e-25        00000 
 1.02620e-25  2.60426e-26        00000 
-1.76408e-26 -4.39343e-27        00000 
 5.73862e-27  1.41052e-27        00000 
 4.04462e-29 -4.96190e-30        00000 
-1.25294e-28  1.51834e-29        00000 
 7.37959e-28 -8.80003e-29        00000 
-4.47675e-27  5.23816e-28        00000 
 2.73160e-26 -3.12095e-27        00000 
-1.67898e-25  1.85932e-26        00000 
 1.04416e-24 -1.10698e-25        00000 
-6.64252e-24  6.58029e-25        00000 
 4.46157e-23 -3.89899e-24        00000 
-2.11669e-22  2.29577e-23        00000 
 1.33937e-21 -1.33511e-22        00000 
-8.86172e-21  7.56500e-22        00000 
 7.23679e-20 -4.03016e-21        00000 
-2.04136e-19  1.77377e-20        00000 
 1.51387e-18 -1.09588e-20        00000 
-8.95836e-19 -1.79076e-18        00000 
 9.98282e-03  4.88549e-19        00000 
-8.34977e-18 -1.06438e-18        00000 
 1.56473e-18  2.38890e-19        00000 
-2.99202e-19 -4.24720e-20        00000 
 6.34234e-20  7.10081e-21        00000 
-8.46425e-21 -1.16837e-21        00000 
 1.26505e-21  1.91583e-22        00000 
-1.92187e-22 -3.14337e-23        00000 
 2.02224e-23  5.16766e-24        00000 
-3.63519e-24 -8.51575e-25        00000 
 6.35650e-25  1.40670e-25        00000 
-1.07754e-25 -2.33067e-26        00000 
 1.85382e-26  3.97076e-27        00000 
-6.01938e-27 -1.28453e-27        00000 
-3.55523e-29  3.81311e-30        00000 
 1.09334e-28 -1.14530e-29        00000 
-6.38231e-28  6.48197e-29        00000 
 3.83479e-27 -3.75585e-28        00000 
-2.31498e-26  2.16704e-27        00000 
 1.40609e-25 -1.24152e-26        00000 
-8.63279e-25  7.04019e-26        00000 
 5.42654e-24 -3.93141e-25        00000 
-3.70009e-23  2.14308e-24        00000 
 1.44523e-22 -1.12175e-23        00000 
-8.43146e-22  5.44119e-23        00000 
 4.82564e-21 -2.21875e-22        00000 
-1.78704e-20  4.60528e-22        00000 
 1.08188e-19  4.45156e-21        00000 
-3.85484e-19 -7.66237e-20        00000 
 2.72978e-18  1.64998e-19        00000 
-5.45109e-18 -1.60664e-19        00000 
 3.24437e-18  1.21113e-19        00000 
-6.96633e-19 -6.82552e-20        00000 
 1.44091e-19  1.77846e-20        00000 
-3.07900e-20 -3.67064e-21        00000 
 6.02592e-21  6.87974e-22        00000 
-9.67768e-22 -1.23176e-22        00000 
 1.60215e-22  2.15277e-23        00000 
-2.30525e-23 -3.71133e-24        00000 
 3.95031e-24  6.34643e-25        00000 
-6.44189e-25 -1.07987e-25        00000 
 1.06063e-25  1.83313e-26        00000 
-1.80043e-26 -3.18939e-27        00000 
 5.81109e-27  1.04862e-27        00000 
 2.81604e-29 -2.63378e-30        00000 
-8.51633e-29  7.69836e-30        00000 
 4.86315e-28 -4.20598e-29        00000 
-2.84646e-27  2.34058e-28        00000 
 1.66113e-26 -1.28589e-27        00000 
-9.62313e-26  6.93084e-27        00000 
 5.47841e-25 -3.63337e-26        00000 
-2.94687e-24  1.82523e-25        00000 
 1.08282e-23 -8.53860e-25        00000 
-8.88902e-23  3.48095e-24        00000 
 2.90408e-22 -9.83792e-24        00000 
-1.24593e-21 -1.22864e-23        00000 
 3.47787e-21  4.79326e-22        00000 
-1.98751e-20 -4.22948e-21        00000 
 1.84807e-19  1.38434e-20        00000 
-5.15543e-19 -2.35408e-20        00000 
 6.93548e-19  2.53259e-20        00000 
-4.25990e-19 -1.99350e-20        00000 
 1.98877e-19  1.19168e-20        00000 
-6.79086e-20 -4.95041e-21        00000 
 1.84359e-20  1.36568e-21        00000 
-2.30069e-21 -3.08929e-22        00000 
 5.56153e-22  6.29634e-23        00000 
-1.25698e-22 -1.20905e-23        00000 
 2.71741e-23  2.23840e-24        00000 
-3.66941e-24 -4.04730e-25        00000 
 5.73934e-25  7.20222e-26        00000 
-9.30174e-26 -1.26849e-26        00000 
 1.57151e-26  2.27869e-27        00000 
-5.07391e-27 -7.67870e-28        00000 
-2.00352e-29  1.62732e-30        00000 
 5.89974e-29 -4.58270e-30        00000 
-3.25139e-28  2.38352e-29        00000 
 1.82372e-27 -1.25232e-28        00000 
-1.00756e-26  6.40389e-28        00000 
 5.42431e-26 -3.14427e-27        00000 
-2.79363e-25  1.44962e-26        00000 
 1.34667e-24 -5.99383e-26        00000 
-8.07040e-24  1.96128e-25        00000 
 2.78818e-23 -2.32195e-25        00000 
-1.10505e-22 -3.56746e-24        00000 
 4.22330e-22  4.19404e-23        00000 
-2.04167e-21 -2.76284e-22        00000 
 1.16633e-20  1.03446e-21        00000 
-4.00201e-20 -2.36847e-21        00000 
 8.05640e-20  3.60759e-21        00000 
-1.08096e-19 -3.93547e-21        00000 
 7.45933e-20  3.25801e-21        00000 
-3.94466e-20 -2.09876e-21        00000 
 1.63726e-20  1.03558e-21        00000 
-5.32418e-21 -3.81540e-22        00000 
 1.32213e-21  1.07792e-22        00000 
-2.47874e-22 -2.58446e-23        00000 
 5.38598e-23  5.60190e-24        00000 
-1.05929e-23 -1.13822e-24        00000 
 2.32743e-24  2.21475e-25        00000 
-4.02409e-25 -4.18180e-26        00000 
 6.82909e-26  7.73438e-27        00000 
-1.18782e-26 -1.44993e-27        00000 
 3.91092e-27  5.04856e-28        00000 
 1.28002e-29 -8.92823e-31        00000 
-3.63742e-29  2.39211e-30        00000 
 1.91227e-28 -1.16234e-29        00000 
-1.01538e-27  5.62401e-29        00000 
 5.25006e-27 -2.57888e-28        00000 
-2.61670e-26  1.08319e-27        00000 
 1.25431e-25 -3.86087e-27        00000 
-6.04513e-25  8.80255e-27        00000 
 2.40298e-24  1.96804e-26        00000 
-1.02509e-23 -4.33316e-25        00000 
 4.16172e-23  3.52324e-24        00000 
-1.84597e-22 -1.98631e-23        00000 
 8.49932e-22  7.73183e-23        00000 
-3.03431e-21 -2.08232e-22        00000 
 7.49611e-21  3.99830e-22        00000 
-1.30498e-20 -5.67919e-22        00000 
 1.65234e-20  6.18088e-22        00000 
-1.25942e-20 -5.30302e-22        00000 
 7.41156e-21  3.64319e-22        00000 
-3.50300e-21 -2.00361e-22        00000 
 1.34331e-21  8.74618e-23        00000 
-4.16990e-22 -3.03803e-23        00000 
 1.04959e-22  8.68448e-24        00000 
-2.28813e-23 -2.16456e-24        00000 
 5.69645e-24  4.91237e-25        00000 
-1.08772e-24 -1.04454e-25        00000 
 2.18570e-25  2.12033e-26        00000 
-4.08604e-26 -4.16482e-27        00000 
 7.59552e-27  8.23135e-28        00000 
-2.61202e-27 -2.98425e-28        00000 
-7.36476e-30  4.29635e-31        00000 
 2.00576e-29 -1.07565e-30        00000 
-9.97726e-29  4.73776e-30        00000 
 4.98257e-28 -2.01538e-29        00000 
-2.40373e-27  7.59659e-29        00000 
 1.11133e-26 -2.19625e-28        00000 
-4.87600e-26  1.51581e-28        00000 
 1.82428e-25  4.26490e-27        00000 
-4.12830e-25 -4.40122e-26        00000 
 3.86734e-24  2.94125e-25        00000 
-1.64983e-23 -1.50780e-24        00000 
 6.75003e-23  5.90505e-24        00000 
-2.37272e-22 -1.74325e-23        00000 
 6.49231e-22  3.89859e-23        00000 
-1.34436e-21 -6.71220e-23        00000 
 2.11740e-21  9.07360e-23        00000 
-2.53327e-21 -9.81740e-23        00000 
 2.08175e-21  8.63868e-23        00000 
-1.34170e-21 -6.24477e-23        00000 
 7.04884e-22  3.71967e-23        00000 
-3.06835e-22 -1.82244e-23        00000 
 1.11131e-22  7.34773e-24        00000 
-3.37543e-23 -2.46739e-24        00000 
 8.72165e-24  7.10229e-25        00000 
-1.98159e-24 -1.81906e-25        00000 
 4.48920e-25  4.27556e-26        00000 
-9.66149e-26 -9.43276e-27        00000 
 2.00942e-26  1.98730e-27        00000 
-4.08927e-27 -4.17992e-28        00000 
 1.49881e-27  1.58892e-28        00000 
 3.83864e-30 -1.77148e-31        00000 
-9.97828e-30  4.01510e-31        00000 
 4.67681e-29 -1.50274e-30        00000 
-2.19276e-28  4.91250e-30        00000 
 9.86809e-28 -9.58044e-30        00000 
-4.20595e-27 -3.17964e-29        00000 
 1.64311e-26  5.36742e-28        00000 
-5.95868e-26 -4.16740e-27        00000 
 3.11771e-25  2.46099e-26        00000 
-1.41511e-24 -1.18302e-25        00000 
 6.79921e-24  4.61117e-25        00000 
-2.61219e-23 -1.43657e-24        00000 
 6.26801e-23  3.55891e-24        00000 
-1.39916e-22 -7.04230e-24        00000 
 2.58041e-22  1.12398e-23        00000 
-3.76390e-22 -1.46397e-23        00000 
 4.01820e-22  1.57410e-23        00000 