<?xml version="1.0" encoding="utf-8"?>
<VTKFile byte_order="LittleEndian" type="UnstructuredGrid" version="0.1">
   <UnstructuredGrid>
      <Piece NumberOfCells="3364" NumberOfPoints="1741">
         <Points>
            <DataArray Name="Points" NumberOfComponents="3" format="ascii" type="Float32">
0.0000 1.0000 0.0000
0.0000 1.0345 0.0000
0.0000 1.0690 0.0000
0.0000 1.1034 0.0000
0.0000 1.1379 0.0000
0.0000 1.1724 0.0000
0.0000 1.2069 0.0000
0.0000 1.2414 0.0000
0.0000 1.2759 0.0000
0.0000 1.3103 0.0000
0.0000 1.3448 0.0000
0.0000 1.3793 0.0000
0.0000 1.4138 0.0000
0.0000 1.4483 0.0000
0.0000 1.4828 0.0000
0.0000 1.5172 0.0000
0.0000 1.5517 0.0000
0.0000 1.5862 0.0000
0.0000 1.6207 0.0000
0.0000 1.6552 0.0000
0.0000 1.6897 0.0000
0.0000 1.7241 0.0000
0.0000 1.7586 0.0000
0.0000 1.7931 0.0000
0.0000 1.8276 0.0000
0.0000 1.8621 0.0000
0.0000 1.8966 0.0000
0.0000 1.9310 0.0000
0.0000 1.9655 0.0000
0.0000 2.0000 0.0000
0.0690 1.0000 0.0000
0.0690 1.0345 0.0000
0.0690 1.0690 0.0000
0.0690 1.1034 0.0000
0.0690 1.1379 0.0000
0.0690 1.1724 0.0000
0.0690 1.2069 0.0000
0.0690 1.2414 0.0000
0.0690 1.2759 0.0000
0.0690 1.3103 0.0000
0.0690 1.3448 0.0000
0.0690 1.3793 0.0000
0.0690 1.4138 0.0000
0.0690 1.4483 0.0000
0.0690 1.4828 0.0000
0.0690 1.5172 0.0000
0.0690 1.5517 0.0000
0.0690 1.5862 0.0000
0.0690 1.6207 0.0000
0.0690 1.6552 0.0000
0.0690 1.6897 0.0000
0.0690 1.7241 0.0000
0.0690 1.7586 0.0000
0.0690 1.7931 0.0000
0.0690 1.8276 0.0000
0.0690 1.8621 0.0000
0.0690 1.8966 0.0000
0.0690 1.9310 0.0000
0.0690 1.9655 0.0000
0.0690 2.0000 0.0000
0.1379 1.0000 0.0000
0.1379 1.0345 0.0000
0.1379 1.0690 0.0000
0.1379 1.1034 0.0000
0.1379 1.1379 0.0000
0.1379 1.1724 0.0000
0.1379 1.2069 0.0000
0.1379 1.2414 0.0000
0.1379 1.2759 0.0000
0.1379 1.3103 0.0000
0.1379 1.3448 0.0000
0.1379 1.3793 0.0000
0.1379 1.4138 0.0000
0.1379 1.4483 0.0000
0.1379 1.4828 0.0000
0.1379 1.5172 0.0000
0.1379 1.5517 0.0000
0.1379 1.5862 0.0000
0.1379 1.6207 0.0000
0.1379 1.6552 0.0000
0.1379 1.6897 0.0000
0.1379 1.7241 0.0000
0.1379 1.7586 0.0000
0.1379 1.7931 0.0000
0.1379 1.8276 0.0000
0.1379 1.8621 0.0000
0.1379 1.8966 0.0000
0.1379 1.9310 0.0000
0.1379 1.9655 0.0000
0.1379 2.0000 0.0000
0.2069 1.0000 0.0000
0.2069 1.0345 0.0000
0.2069 1.0690 0.0000
0.2069 1.1034 0.0000
0.2069 1.1379 0.0000
0.2069 1.1724 0.0000
0.2069 1.2069 0.0000
0.2069 1.2414 0.0000
0.2069 1.2759 0.0000
0.2069 1.3103 0.0000
0.2069 1.3448 0.0000
0.2069 1.3793 0.0000
0.2069 1.4138 0.0000
0.2069 1.4483 0.0000
0.2069 1.4828 0.0000
0.2069 1.5172 0.0000
0.2069 1.5517 0.0000
0.2069 1.5862 0.0000
0.2069 1.6207 0.0000
0.2069 1.6552 0.0000
0.2069 1.6897 0.0000
0.2069 1.7241 0.0000
0.2069 1.7586 0.0000
0.2069 1.7931 0.0000
0.2069 1.8276 0.0000
0.2069 1.8621 0.0000
0.2069 1.8966 0.0000
0.2069 1.9310 0.0000
0.2069 1.9655 0.0000
0.2069 2.0000 0.0000
0.2759 1.0000 0.0000
0.2759 1.0345 0.0000
0.2759 1.0690 0.0000
0.2759 1.1034 0.0000
0.2759 1.1379 0.0000
0.2759 1.1724 0.0000
0.2759 1.2069 0.0000
0.2759 1.2414 0.0000
0.2759 1.2759 0.0000
0.2759 1.3103 0.0000
0.2759 1.3448 0.0000
0.2759 1.3793 0.0000
0.2759 1.4138 0.0000
0.2759 1.4483 0.0000
0.2759 1.4828 0.0000
0.2759 1.5172 0.0000
0.2759 1.5517 0.0000
0.2759 1.5862 0.0000
0.2759 1.6207 0.0000
0.2759 1.6552 0.0000
0.2759 1.6897 0.0000
0.2759 1.7241 0.0000
0.2759 1.7586 0.0000
0.2759 1.7931 0.0000
0.2759 1.8276 0.0000
0.2759 1.8621 0.0000
0.2759 1.8966 0.0000
0.2759 1.9310 0.0000
0.2759 1.9655 0.0000
0.2759 2.0000 0.0000
0.3448 1.0000 0.0000
0.3448 1.0345 0.0000
0.3448 1.0690 0.0000
0.3448 1.1034 0.0000
0.3448 1.1379 0.0000
0.3448 1.1724 0.0000
0.3448 1.2069 0.0000
0.3448 1.2414 0.0000
0.3448 1.2759 0.0000
0.3448 1.3103 0.0000
0.3448 1.3448 0.0000
0.3448 1.3793 0.0000
0.3448 1.4138 0.0000
0.3448 1.4483 0.0000
0.3448 1.4828 0.0000
0.3448 1.5172 0.0000
0.3448 1.5517 0.0000
0.3448 1.5862 0.0000
0.3448 1.6207 0.0000
0.3448 1.6552 0.0000
0.3448 1.6897 0.0000
0.3448 1.7241 0.0000
0.3448 1.7586 0.0000
0.3448 1.7931 0.0000
0.3448 1.8276 0.0000
0.3448 1.8621 0.0000
0.3448 1.8966 0.0000
0.3448 1.9310 0.0000
0.3448 1.9655 0.0000
0.3448 2.0000 0.0000
0.4138 1.0000 0.0000
0.4138 1.0345 0.0000
0.4138 1.0690 0.0000
0.4138 1.1034 0.0000
0.4138 1.1379 0.0000
0.4138 1.1724 0.0000
0.4138 1.2069 0.0000
0.4138 1.2414 0.0000
0.4138 1.2759 0.0000
0.4138 1.3103 0.0000
0.4138 1.3448 0.0000
0.4138 1.3793 0.0000
0.4138 1.4138 0.0000
0.4138 1.4483 0.0000
0.4138 1.4828 0.0000
0.4138 1.5172 0.0000
0.4138 1.5517 0.0000
0.4138 1.5862 0.0000
0.4138 1.6207 0.0000
0.4138 1.6552 0.0000
0.4138 1.6897 0.0000
0.4138 1.7241 0.0000
0.4138 1.7586 0.0000
0.4138 1.7931 0.0000
0.4138 1.8276 0.0000
0.4138 1.8621 0.0000
0.4138 1.8966 0.0000
0.4138 1.9310 0.0000
0.4138 1.9655 0.0000
0.4138 2.0000 0.0000
0.4828 1.0000 0.0000
0.4828 1.0345 0.0000
0.4828 1.0690 0.0000
0.4828 1.1034 0.0000
0.4828 1.1379 0.0000
0.4828 1.1724 0.0000
0.4828 1.2069 0.0000
0.4828 1.2414 0.0000
0.4828 1.2759 0.0000
0.4828 1.3103 0.0000
0.4828 1.3448 0.0000
0.4828 1.3793 0.0000
0.4828 1.4138 0.0000
0.4828 1.4483 0.0000
0.4828 1.4828 0.0000
0.4828 1.5172 0.0000
0.4828 1.5517 0.0000
0.4828 1.5862 0.0000
0.4828 1.6207 0.0000
0.4828 1.6552 0.0000
0.4828 1.6897 0.0000
0.4828 1.7241 0.0000
0.4828 1.7586 0.0000
0.4828 1.7931 0.0000
0.4828 1.8276 0.0000
0.4828 1.8621 0.0000
0.4828 1.8966 0.0000
0.4828 1.9310 0.0000
0.4828 1.9655 0.0000
0.4828 2.0000 0.0000
0.5517 1.0000 0.0000
0.5517 1.0345 0.0000
0.5517 1.0690 0.0000
0.5517 1.1034 0.0000
0.5517 1.1379 0.0000
0.5517 1.1724 0.0000
0.5517 1.2069 0.0000
0.5517 1.2414 0.0000
0.5517 1.2759 0.0000
0.5517 1.3103 0.0000
0.5517 1.3448 0.0000
0.5517 1.3793 0.0000
0.5517 1.4138 0.0000
0.5517 1.4483 0.0000
0.5517 1.4828 0.0000
0.5517 1.5172 0.0000
0.5517 1.5517 0.0000
0.5517 1.5862 0.0000
0.5517 1.6207 0.0000
0.5517 1.6552 0.0000
0.5517 1.6897 0.0000
0.5517 1.7241 0.0000
0.5517 1.7586 0.0000
0.5517 1.7931 0.0000
0.5517 1.8276 0.0000
0.5517 1.8621 0.0000
0.5517 1.8966 0.0000
0.5517 1.9310 0.0000
0.5517 1.9655 0.0000
0.5517 2.0000 0.0000
0.6207 1.0000 0.0000
0.6207 1.0345 0.0000
0.6207 1.0690 0.0000
0.6207 1.1034 0.0000
0.6207 1.1379 0.0000
0.6207 1.1724 0.0000
0.6207 1.2069 0.0000
0.6207 1.2414 0.0000
0.6207 1.2759 0.0000
0.6207 1.3103 0.0000
0.6207 1.3448 0.0000
0.6207 1.3793 0.0000
0.6207 1.4138 0.0000
0.6207 1.4483 0.0000
0.6207 1.4828 0.0000
0.6207 1.5172 0.0000
0.6207 1.5517 0.0000
0.6207 1.5862 0.0000
0.6207 1.6207 0.0000
0.6207 1.6552 0.0000
0.6207 1.6897 0.0000
0.6207 1.7241 0.0000
0.6207 1.7586 0.0000
0.6207 1.7931 0.0000
0.6207 1.8276 0.0000
0.6207 1.8621 0.0000
0.6207 1.8966 0.0000
0.6207 1.9310 0.0000
0.6207 1.9655 0.0000
0.6207 2.0000 0.0000
0.6897 1.0000 0.0000
0.6897 1.0345 0.0000
0.6897 1.0690 0.0000
0.6897 1.1034 0.0000
0.6897 1.1379 0.0000
0.6897 1.1724 0.0000
0.6897 1.2069 0.0000
0.6897 1.2414 0.0000
0.6897 1.2759 0.0000
0.6897 1.3103 0.0000
0.6897 1.3448 0.0000
0.6897 1.3793 0.0000
0.6897 1.4138 0.0000
0.6897 1.4483 0.0000
0.6897 1.4828 0.0000
0.6897 1.5172 0.0000
0.6897 1.5517 0.0000
0.6897 1.5862 0.0000
0.6897 1.6207 0.0000
0.6897 1.6552 0.0000
0.6897 1.6897 0.0000
0.6897 1.7241 0.0000
0.6897 1.7586 0.0000
0.6897 1.7931 0.0000
0.6897 1.8276 0.0000
0.6897 1.8621 0.0000
0.6897 1.8966 0.0000
0.6897 1.9310 0.0000
0.6897 1.9655 0.0000
0.6897 2.0000 0.0000
0.7586 1.0000 0.0000
0.7586 1.0345 0.0000
0.7586 1.0690 0.0000
0.7586 1.1034 0.0000
0.7586 1.1379 0.0000
0.7586 1.1724 0.0000
0.7586 1.2069 0.0000
0.7586 1.2414 0.0000
0.7586 1.2759 0.0000
0.7586 1.3103 0.0000
0.7586 1.3448 0.0000
0.7586 1.3793 0.0000
0.7586 1.4138 0.0000
0.7586 1.4483 0.0000
0.7586 1.4828 0.0000
0.7586 1.5172 0.0000
0.7586 1.5517 0.0000
0.7586 1.5862 0.0000
0.7586 1.6207 0.0000
0.7586 1.6552 0.0000
0.7586 1.6897 0.0000
0.7586 1.7241 0.0000
0.7586 1.7586 0.0000
0.7586 1.7931 0.0000
0.7586 1.8276 0.0000
0.7586 1.8621 0.0000
0.7586 1.8966 0.0000
0.7586 1.9310 0.0000
0.7586 1.9655 0.0000
0.7586 2.0000 0.0000
0.8276 1.0000 0.0000
0.8276 1.0345 0.0000
0.8276 1.0690 0.0000
0.8276 1.1034 0.0000
0.8276 1.1379 0.0000
0.8276 1.1724 0.0000
0.8276 1.2069 0.0000
0.8276 1.2414 0.0000
0.8276 1.2759 0.0000
0.8276 1.3103 0.0000
0.8276 1.3448 0.0000
0.8276 1.3793 0.0000
0.8276 1.4138 0.0000
0.8276 1.4483 0.0000
0.8276 1.4828 0.0000
0.8276 1.5172 0.0000
0.8276 1.5517 0.0000
0.8276 1.5862 0.0000
0.8276 1.6207 0.0000
0.8276 1.6552 0.0000
0.8276 1.6897 0.0000
0.8276 1.7241 0.0000
0.8276 1.7586 0.0000
0.8276 1.7931 0.0000
0.8276 1.8276 0.0000
0.8276 1.8621 0.0000
0.8276 1.8966 0.0000
0.8276 1.9310 0.0000
0.8276 1.9655 0.0000
0.8276 2.0000 0.0000
0.8966 1.0000 0.0000
0.8966 1.0345 0.0000
0.8966 1.0690 0.0000
0.8966 1.1034 0.0000
0.8966 1.1379 0.0000
0.8966 1.1724 0.0000
0.8966 1.2069 0.0000
0.8966 1.2414 0.0000
0.8966 1.2759 0.0000
0.8966 1.3103 0.0000
0.8966 1.3448 0.0000
0.8966 1.3793 0.0000
0.8966 1.4138 0.0000
0.8966 1.4483 0.0000
0.8966 1.4828 0.0000
0.8966 1.5172 0.0000
0.8966 1.5517 0.0000
0.8966 1.5862 0.0000
0.8966 1.6207 0.0000
0.8966 1.6552 0.0000
0.8966 1.6897 0.0000
0.8966 1.7241 0.0000
0.8966 1.7586 0.0000
0.8966 1.7931 0.0000
0.8966 1.8276 0.0000
0.8966 1.8621 0.0000
0.8966 1.8966 0.0000
0.8966 1.9310 0.0000
0.8966 1.9655 0.0000
0.8966 2.0000 0.0000
0.9655 1.0000 0.0000
0.9655 1.0345 0.0000
0.9655 1.0690 0.0000
0.9655 1.1034 0.0000
0.9655 1.1379 0.0000
0.9655 1.1724 0.0000
0.9655 1.2069 0.0000
0.9655 1.2414 0.0000
0.9655 1.2759 0.0000
0.9655 1.3103 0.0000
0.9655 1.3448 0.0000
0.9655 1.3793 0.0000
0.9655 1.4138 0.0000
0.9655 1.4483 0.0000
0.9655 1.4828 0.0000
0.9655 1.5172 0.0000
0.9655 1.5517 0.0000
0.9655 1.5862 0.0000
0.9655 1.6207 0.0000
0.9655 1.6552 0.0000
0.9655 1.6897 0.0000
0.9655 1.7241 0.0000
0.9655 1.7586 0.0000
0.9655 1.7931 0.0000
0.9655 1.8276 0.0000
0.9655 1.8621 0.0000
0.9655 1.8966 0.0000
0.9655 1.9310 0.0000
0.9655 1.9655 0.0000
0.9655 2.0000 0.0000
1.0345 1.0000 0.0000
1.0345 1.0345 0.0000
1.0345 1.0690 0.0000
1.0345 1.1034 0.0000
1.0345 1.1379 0.0000
1.0345 1.1724 0.0000
1.0345 1.2069 0.0000
1.0345 1.2414 0.0000
1.0345 1.2759 0.0000
1.0345 1.3103 0.0000
1.0345 1.3448 0.0000
[...]
         <PointData>
            <DataArray Name="fValues" NumberOfComponents="3" format="ascii" type="Float64">
-7.24338e-40  3.85494e-39        00000 
 2.07653e-39 -1.05795e-38        00000 
-1.11339e-38  5.36802e-38        00000 
 6.11845e-38 -2.77811e-37        00000 
-3.34609e-37  1.41817e-36        00000 
 1.81792e-36 -7.10980e-36        00000 
-9.80227e-36  3.48501e-35        00000 
 5.23956e-35 -1.65971e-34        00000 
-2.77256e-34  7.60670e-34        00000 
 1.44998e-33 -3.30285e-33        00000 
-7.47909e-33  1.31952e-32        00000 
 3.79530e-32 -4.53620e-32        00000 
-1.88881e-31  1.05988e-31        00000 
 9.18235e-31  1.38038e-31        00000 
-4.33867e-30 -4.14906e-30        00000 
 1.97965e-29  3.72686e-29        00000 
-8.65002e-29 -2.57114e-28        00000 
 3.58042e-28  1.54111e-27        00000 
-1.38444e-27 -8.32953e-27        00000 
 4.91405e-27  4.09035e-26        00000 
-1.56867e-26 -1.78766e-25        00000 
 4.41067e-26  6.04770e-25        00000 
-1.07330e-25 -2.14253e-24        00000 
 2.23348e-25  5.66194e-24        00000 
-3.95261e-25 -1.27563e-23        00000 
 5.95766e-25  2.46219e-23        00000 
-7.73011e-25 -4.07684e-23        00000 
 8.84434e-25  5.80998e-23        00000 
-9.28849e-25 -7.16312e-23        00000 
 9.37333e-25  7.67606e-23        00000 
 7.71196e-40 -4.34460e-39        00000 
-2.22264e-39  1.20605e-38        00000 
 1.19967e-38 -6.21119e-38        00000 
-6.63977e-38  3.26847e-37        00000 
 3.66048e-37 -1.70170e-36        00000 
-2.00692e-36  8.73648e-36        00000 
 1.09341e-35 -4.40942e-35        00000 
-5.91431e-35  2.17896e-34        00000 
 3.17259e-34 -1.04818e-33        00000 
-1.68555e-33  4.86631e-33        00000 
 8.85501e-33 -2.15032e-32        00000 
-4.59087e-32  8.81957e-32        00000 
 2.34310e-31 -3.17991e-31        00000 
-1.17361e-30  8.52331e-31        00000 
 5.74620e-30 -8.78861e-32        00000 
-2.73606e-29 -2.17082e-29        00000 
 1.25844e-28  2.17169e-28        00000 
-5.54114e-28 -1.56517e-27        00000 
 2.30758e-27  9.64137e-27        00000 
-8.94085e-27 -5.33208e-26        00000 
 3.15362e-26  2.69270e-25        00000 
-9.85798e-26 -1.26519e-24        00000 
 2.65781e-25  4.53874e-24        00000 
-6.05017e-25 -1.33860e-23        00000 
 1.14847e-24  3.30576e-23        00000 
-1.81260e-24 -6.88028e-23        00000 
 2.39878e-24  1.20519e-22        00000 
-2.73180e-24 -1.78195e-22        00000 
 2.81784e-24  2.24089e-22        00000 
-2.81464e-24 -2.41604e-22        00000 
-9.06236e-40  5.79758e-39        00000 
 2.64436e-39 -1.64715e-38        00000 
-1.44919e-38  8.73458e-38        00000 
 8.15093e-38 -4.74404e-37        00000 
-4.57426e-37  2.56047e-36        00000 
 2.55802e-36 -1.37018e-35        00000 
-1.42472e-35  7.25776e-35        00000 
 7.89853e-35 -3.79735e-34        00000 
-4.35553e-34  1.95703e-33        00000 
 2.38689e-33 -9.89668e-33        00000 
-1.29853e-32  4.88418e-32        00000 
 7.00331e-32 -2.33331e-31        00000 
-3.73797e-31  1.06508e-30        00000 
 1.97004e-30 -4.53989e-30        00000 
-1.02223e-29  1.72278e-29        00000 
 5.20183e-29 -5.08819e-29        00000 
-2.58226e-28  4.31409e-29        00000 
 1.24138e-27  9.51533e-28        00000 
-5.72034e-27 -1.05790e-26        00000 
 2.48992e-26  7.89732e-26        00000 
-1.00238e-25 -4.97731e-25        00000 
 3.62203e-25  2.82491e-24        00000 
-1.12973e-24 -1.54265e-23        00000 
 2.93091e-24  5.35526e-23        00000 
-6.17115e-24 -1.50861e-22        00000 
 1.04389e-23  3.50164e-22        00000 
-1.42494e-23 -6.65369e-22        00000 
 1.61130e-23  1.03538e-21        00000 
-1.61109e-23 -1.33552e-21        00000 
 1.57923e-23  1.45036e-21        00000 
 1.11297e-39 -8.15199e-39        00000 
-3.29178e-39  2.36662e-38        00000 
 1.83362e-38 -1.28852e-37        00000 
-1.04887e-37  7.19430e-37        00000 
 5.99474e-37 -4.00246e-36        00000 
-3.41962e-36  2.21497e-35        00000 
 1.94624e-35 -1.21803e-34        00000 
-1.10473e-34  6.64721e-34        00000 
 6.25101e-34 -3.59406e-33        00000 
-3.52383e-33  1.92107e-32        00000 
 1.97752e-32 -1.01210e-31        00000 
-1.10369e-31  5.23416e-31        00000 
 6.11867e-31 -2.64148e-30        00000 
-3.36392e-30  1.28930e-29        00000 
 1.83016e-29 -5.99931e-29        00000 
-9.82538e-29  2.59336e-28        00000 
 5.18495e-28 -9.85789e-28        00000 
-2.67511e-27  2.79956e-27        00000 
 1.33913e-26 -8.32765e-28        00000 
-6.43205e-26 -6.66586e-26        00000 
 2.91502e-25  6.76593e-25        00000 
-1.21455e-24 -4.85182e-24        00000 
 4.46668e-24  4.56409e-23        00000 
-1.36630e-23 -1.99324e-22        00000 
 3.30468e-23  6.58240e-22        00000 
-6.15813e-23 -1.75257e-21        00000 
 8.80676e-23  3.71755e-21        00000 
-9.88217e-23 -6.18354e-21        00000 
 9.40532e-23  8.20315e-21        00000 
-8.91843e-23 -8.96522e-21        00000 
-1.36463e-39  1.12662e-38        00000 
 4.08274e-39 -3.32602e-38        00000 
-2.30545e-38  1.84771e-37        00000 
 1.33728e-37 -1.05331e-36        00000 
-7.75776e-37  5.99339e-36        00000 
 4.49661e-36 -3.39934e-35        00000 
-2.60359e-35  1.92058e-34        00000 
 1.50555e-34 -1.08005e-33        00000 
-8.69206e-34  6.03923e-33        00000 
 5.00828e-33 -3.35339e-32        00000 
-2.87862e-32  1.84591e-31        00000 
 1.64948e-31 -1.00500e-30        00000 
-9.41523e-31  5.39508e-30        00000 
 5.34803e-30 -2.84301e-29        00000 
-3.01891e-29  1.46106e-28        00000 
 1.69050e-28 -7.24828e-28        00000 
-9.36740e-28  3.41195e-27        00000 
 5.11877e-27 -1.47499e-26        00000 
-2.74478e-26  5.42776e-26        00000 
 1.43369e-25 -1.28813e-25        00000 
-7.21245e-25 -1.60569e-25        00000 
 3.43087e-24  5.01598e-24        00000 
-1.49538e-23 -8.48456e-23        00000 
 5.64209e-23  6.07655e-22        00000 
-1.66579e-22 -2.59977e-21        00000 
 3.59532e-22  8.01428e-21        00000 
-5.55104e-22 -2.01756e-20        00000 
 6.20295e-22  3.71375e-20        00000 
-5.44485e-22 -5.07754e-20        00000 
 4.84086e-22  5.55454e-20        00000 
 1.62629e-39 -1.48856e-38        00000 
-4.90827e-39  4.45032e-38        00000 
 2.80028e-38 -2.50983e-37        00000 
-1.64139e-37  1.45317e-36        00000 
 9.62849e-37 -8.40884e-36        00000 
-5.64776e-36  4.85766e-35        00000 
 3.31221e-35 -2.80044e-34        00000 
-1.94193e-34  1.61042e-33        00000 
 1.13805e-33 -9.23255e-33        00000 
-6.66531e-33  5.27315e-32        00000 
 3.90043e-32 -2.99769e-31        00000 
-2.27985e-31  1.69415e-30        00000 
 1.33056e-30 -9.50314e-30        00000 
-7.74954e-30  5.27923e-29        00000 
 4.50127e-29 -2.89532e-28        00000 
-2.60503e-28  1.56038e-27        00000 
 1.50022e-27 -8.20433e-27        00000 
-8.58178e-27  4.15857e-26        00000 
 4.86327e-26 -1.98826e-25        00000 
-2.71937e-25  8.55602e-25        00000 
 1.49091e-24 -2.71840e-24        00000 
-7.93076e-24 -3.41406e-24        00000 
 4.01745e-23  1.20669e-22        00000 
-1.86911e-22 -1.16312e-21        00000 
 7.37883e-22  8.11034e-21        00000 
-2.02829e-21 -3.14032e-20        00000 
 3.58481e-21  1.00052e-19        00000 
-4.04882e-21 -2.27735e-19        00000 
 3.10688e-21  3.18140e-19        00000 
-2.39812e-21 -3.40776e-19        00000 
-1.85900e-39  1.86332e-38        00000 
 5.64512e-39 -5.62323e-38        00000 
-3.24395e-38  3.20699e-37        00000 
 1.91541e-37 -1.87843e-36        00000 
-1.13238e-36  1.10068e-35        00000 
 6.69779e-36 -6.44623e-35        00000 
-3.96346e-35  3.77271e-34        00000 
 2.34647e-34 -2.20608e-33        00000 
-1.38978e-33  1.28856e-32        00000 
 8.23487e-33 -7.51578e-32        00000 
-4.88125e-32  4.37580e-31        00000 
 2.89431e-31 -2.54174e-30        00000 
-1.71658e-30  1.47197e-29        00000 
 1.01821e-29 -8.49086e-29        00000 
-6.03932e-29  4.87215e-28        00000 
 3.58106e-28 -2.77575e-27        00000 
-2.12198e-27  1.56566e-26        00000 
 1.25583e-26 -8.70414e-26        00000 
-7.41634e-26  4.73411e-25        00000 
 4.36409e-25 -2.48676e-24        00000 
-2.55273e-24  1.25241e-23        00000 
 1.47815e-23 -4.79456e-23        00000 
-8.40778e-23  1.26931e-22        00000 
 4.62507e-22  5.65121e-22        00000 
-2.37393e-21 -1.12021e-20        00000 
 1.02708e-20  8.86989e-20        00000 
-2.37903e-20 -4.70352e-19        00000 
 2.82791e-20  1.27661e-18        00000 
-1.72949e-20 -2.27178e-18        00000 
 9.03641e-21  1.75649e-18        00000 
 2.02589e-39 -2.20433e-38        00000 
-6.17528e-39  6.69688e-38        00000 
 3.56442e-38 -3.84985e-37        00000 
-2.11417e-37  2.27366e-36        00000 
 1.25591e-36 -1.34426e-35        00000 
-7.46700e-36  7.95025e-35        00000 
 4.44338e-35 -4.70335e-34        00000 
-2.64660e-34  2.78325e-33        00000 
 1.57798e-33 -1.64742e-32        00000 
-9.41858e-33  9.75309e-32        00000 
 5.62837e-32 -5.77486e-31        00000 
-3.36773e-31  3.41950e-30        00000 
 2.01792e-30 -2.02465e-29        00000 
-1.21099e-29  1.19845e-28        00000 
 7.27979e-29 -7.09016e-28        00000 
-4.38449e-28  4.19058e-27        00000 
 2.64627e-27 -2.47287e-26        00000 
-1.60090e-26  1.45547e-25        00000 
 9.71012e-26 -8.53003e-25        00000 
-5.90645e-25  4.96150e-24        00000 
 3.60384e-24 -2.82297e-23        00000 
-2.20579e-23  1.57607e-22        00000 
 1.35375e-22 -8.44901e-22        00000 
-8.31604e-22  4.14888e-21        00000 
 5.08371e-21 -7.74156e-21        00000 
-3.03134e-20 -9.40487e-20        00000 
 1.61166e-19  1.16914e-18        00000 
-2.23136e-19 -7.54766e-18        00000 
 8.74155e-20  1.68284e-17        00000 
 1.00056e-21 -1.48425e-17        00000 
-2.09902e-39  2.46364e-38        00000 
 6.40871e-39 -7.51661e-38        00000 
-3.70624e-38  4.34306e-37        00000 
 2.20254e-37 -2.57847e-36        00000 
-1.31110e-36  1.53319e-35        00000 
 7.81223e-36 -9.12429e-35        00000 
-4.65985e-35  5.43495e-34        00000 
 2.78270e-34 -3.24055e-33        00000 
-1.66381e-33  1.93424e-32        00000 
 9.96190e-33 -1.15588e-31        00000 
-5.97373e-32  6.91646e-31        00000 
 3.58833e-31 -4.14461e-30        00000 
-2.15960e-30  2.48765e-29        00000 
 1.30257e-29 -1.49585e-28        00000 
-7.87606e-29  9.01347e-28        00000 
 4.77602e-28 -5.44422e-27        00000 
-2.90590e-27  3.29757e-26        00000 
 1.77508e-26 -2.00402e-25        00000 
-1.08948e-25  1.22291e-24        00000 
 6.72584e-25 -7.50312e-24        00000 
-4.18235e-24  4.65565e-23        00000 
 2.62498e-23 -2.96798e-22        00000 
-1.66788e-22  1.79124e-21        00000 
 1.07789e-21 -1.14283e-20        00000 
-7.14114e-21  8.65534e-20        00000 
 4.92125e-20 -3.18720e-19        00000 
-3.64004e-19  1.03249e-18        00000 
 3.14238e-18  1.87389e-17        00000 
 9.95758e-19  1.79791e-01        00000 
 7.80588e-19  2.77409e-17        00000 
 2.06508e-39 -2.60200e-38        00000 
-6.30256e-39  7.95451e-38        00000 
 3.64301e-38 -4.60690e-37        00000 
-2.16377e-37  2.74177e-36        00000 
 1.28722e-36 -1.63457e-35        00000 
-7.66467e-36  9.75548e-35        00000 
 4.56831e-35 -5.82908e-34        00000 
-2.72569e-34  3.48747e-33        00000 
 1.62818e-33 -2.08949e-32        00000 
-9.73824e-33  1.25389e-31        00000 
 5.83274e-32 -7.53796e-31        00000 
-3.49904e-31  4.54069e-30        00000 
 2.10276e-30 -2.74147e-29        00000 
-1.26618e-29  1.65954e-28        00000 
 7.64166e-29 -1.00766e-27        00000 
-4.62392e-28  6.14037e-27        00000 
 2.80638e-27 -3.75768e-26        00000 
-1.70933e-26  2.31139e-25        00000 
 1.04555e-25 -1.43080e-24        00000 
-6.42820e-25  8.92874e-24        00000 
 3.97732e-24 -5.62346e-23        00000 
-2.48075e-23  3.55160e-22        00000 
 1.56366e-22 -2.28593e-21        00000 
-9.99842e-22  1.50134e-20        00000 
 6.52677e-21 -9.28513e-20        00000 
-4.40053e-20  7.13604e-19        00000 
 3.14247e-19 -6.51549e-18        00000 
-1.49359e-18 -1.79791e-01        00000 
 1.79350e-17  8.25149e-01        00000 
 5.10165e-18 -1.79791e-01        00000 
-1.92806e-39  2.59804e-38        00000 
 5.87028e-39 -7.94074e-38        00000 
-3.38340e-38  4.59771e-37        00000 
 2.00357e-37 -2.73550e-36        00000 
-1.18804e-36  1.63028e-35        00000 
 7.04900e-36 -9.72609e-35        00000 
-4.18500e-35  5.80889e-34        00000 
 2.48630e-34 -3.47356e-33        00000 
-1.47816e-33  2.07986e-32        00000 
 8.79460e-33 -1.24720e-31        00000 
-5.23673e-32  7.49114e-31        00000 
 3.12086e-31 -4.50770e-30        00000 
-1.86158e-30  2.71804e-29        00000 
 1.11149e-29 -1.64272e-28        00000 
-6.64296e-29  9.95440e-28        00000 
 3.97434e-28 -6.05024e-27        00000 
-2.38022e-27  3.69000e-26        00000 
 1.42692e-26 -2.25942e-25        00000 
-8.56156e-26  1.38966e-24        00000 
 5.13973e-25 -8.58814e-24        00000 
-3.08519e-24  5.33224e-23        00000 
 1.84928e-23 -3.33745e-22        00000 
-1.10381e-22  2.10794e-21        00000 
 6.51985e-22 -1.34118e-20        00000 
-3.75123e-21  8.99667e-20        00000 
 2.00123e-20 -3.08971e-19        00000 
-7.72534e-20  8.22141e-22        00000 
-5.04512e-19 -6.23137e-18        00000 
 4.27612e-19  1.79791e-01        00000 
-4.07129e-18 -1.07231e-17        00000 
 1.70775e-39 -2.45343e-38        00000 
-5.17686e-39  7.48119e-38        00000 
 2.96819e-38 -4.31946e-37        00000 
-1.74818e-37  2.56239e-36        00000 
 1.03052e-36 -1.52221e-35        00000 
-6.07517e-36  9.04921e-35        00000 
 3.58153e-35 -5.38351e-34        00000 
-2.11136e-34  3.20523e-33        00000 
 1.24455e-33 -1.90990e-32        00000 
-7.33459e-33  1.13905e-31        00000 
 4.32120e-32 -6.79949e-31        00000 
-2.54466e-31  4.06286e-30        00000 
 1.49747e-30 -2.43011e-29        00000 
-8.80372e-30  1.45502e-28        00000 
 5.16866e-29 -8.72081e-28        00000 
-3.02866e-28  5.23197e-27        00000 
 1.76984e-27 -3.14146e-26        00000 
-1.03020e-26  1.88723e-25        00000 
 5.96251e-26 -1.13372e-24        00000 
-3.42177e-25  6.80476e-24        00000 
 1.93814e-24 -4.07777e-23        00000 
-1.07484e-23  2.43441e-22        00000 
 5.74733e-23 -1.44219e-21        00000 
-2.86632e-22  8.46296e-21        00000 
 1.21880e-21 -4.78501e-20        00000 
-2.92287e-21  6.24738e-20        00000 
-1.75133e-20 -2.61252e-19        00000 
 6.89480e-20 -1.29647e-18        00000 
-2.29626e-19 -4.45987e-19        00000 
 3.60267e-19  3.67689e-18        00000 
-1.43472e-39  2.19207e-38        00000 
 4.32174e-39 -6.65471e-38        00000 
-2.45919e-38  3.82191e-37        00000 
 1.43704e-37 -2.25471e-36        00000 
-8.39905e-37  1.33137e-35        00000 
 4.90554e-36 -7.86249e-35        00000 
-2.86260e-35  4.64355e-34        00000 
 1.66868e-34 -2.74247e-33        00000 
-9.71454e-34  1.61957e-32        00000 
 5.64653e-33 -9.56269e-32        00000 
-3.27561e-32  5.64440e-31        00000 
 1.89562e-31 -3.32989e-30        00000 
-1.09368e-30  1.96289e-29        00000 
 6.28581e-30 -1.15574e-28        00000 
-3.59498e-29  6.79350e-28        00000 
 2.04292e-28 -3.98365e-27        00000 
-1.15113e-27  2.32793e-26        00000 
 6.41236e-27 -1.35365e-25        00000 
-3.51546e-26  7.81519e-25        00000 
 1.88351e-25 -4.46532e-24        00000 
-9.74796e-25  2.51100e-23        00000 
 4.77176e-24 -1.37621e-22        00000 
-2.11624e-23  7.21309e-22        00000 
 7.61570e-23 -3.42690e-21        00000 
-1.34087e-22  1.19047e-20        00000 
-8.03722e-22 -1.23613e-20        00000 
 5.12649e-21 -4.35416e-20        00000 
-1.72715e-20  2.45016e-19        00000 
 3.72128e-20  3.30634e-19        00000 
-4.83779e-20 -2.38144e-19        00000 
 1.14311e-39 -1.85374e-38        00000 
-3.41488e-39  5.59124e-38        00000 
 1.92392e-38 -3.18629e-37        00000 
-1.11270e-37  1.86458e-36        00000 
 6.43096e-37 -1.09136e-35        00000 
-3.71038e-36  6.38330e-35        00000 
 2.13631e-35 -3.73023e-34        00000 
-1.22703e-34  2.17745e-33        00000 
 7.02744e-34 -1.26932e-32        00000 
-4.01090e-33  7.38693e-32        00000 
 2.27974e-32 -4.28990e-31        00000 
-1.28925e-31  2.48479e-30        00000 
 7.24591e-31 -1.43446e-29        00000 
-4.04103e-30  8.24616e-29        00000 
 2.23178e-29 -4.71458e-28        00000 
-1.21718e-28  2.67634e-27        00000 
 6.52988e-28 -1.50502e-26        00000 
-3.42621e-27  8.35626e-26        00000 
 1.74305e-26 -4.55868e-25        00000 
-8.47852e-26  2.42496e-24        00000 
 3.84812e-25 -1.24190e-23        00000 
-1.55277e-24  5.98420e-23        00000 
 4.93627e-24 -2.58608e-22        00000 
-6.93796e-24  8.99756e-22        00000 
-4.64510e-23 -2.42471e-21        00000 
 3.51576e-22 -5.19659e-21        00000 
-1.32109e-21  1.66899e-20        00000 
 3.34601e-21 -3.78910e-21        00000 
-5.87526e-21 -4.22952e-20        00000 
 7.09693e-21  4.73553e-20        00000 
-8.63659e-40  1.48421e-38        00000 
 2.55369e-39 -4.43882e-38        00000 
-1.42109e-38  2.50390e-37        00000 
 8.11434e-38 -1.44981e-36        00000 
-4.62501e-37  8.38867e-36        00000 
 2.62820e-36 -4.84507e-35        00000 
-1.48822e-35  2.79243e-34        00000 
 8.39218e-35 -1.60534e-33        00000 
-4.70941e-34  9.20121e-33        00000 
 2.62751e-33 -5.25477e-32        00000 
-1.45584e-32  2.98789e-31        00000 
 7.99911e-32 -1.68989e-30        00000 
-4.35022e-31  9.49508e-30        00000 
 2.33585e-30 -5.29156e-29        00000 
-1.23424e-29  2.91865e-28        00000 
 6.38805e-29 -1.58866e-27        00000 
-3.21737e-28  8.49914e-27        00000 
 1.56153e-27 -4.44322e-26        00000 
-7.19159e-27  2.25025e-25        00000 
 3.06129e-26 -1.08906e-24        00000 
-1.14430e-25  4.92363e-24        00000 
 3.30447e-25 -1.99561e-23        00000 
-3.79407e-25  6.70255e-23        00000 
-3.10866e-24 -1.60678e-22        00000 
 2.44330e-23 -4.16953e-23        00000 
-9.99849e-23  9.79288e-22        00000 
 2.84777e-22 -1.23262e-21        00000 
-5.97714e-22 -4.57482e-21        00000 
 9.33045e-22  1.87191e-21        00000 
-1.08262e-21 -7.73473e-21        00000 
 6.18708e-40 -1.12548e-38        00000 
-1.80714e-39  3.33089e-38        00000 
 9.90914e-39 -1.85541e-37        00000 
-5.57214e-38  1.06037e-36        00000 
 3.12364e-37 -6.04888e-36        00000 
-1.74305e-36  3.43988e-35        00000 
 9.67486e-36 -1.94908e-34        00000 
-5.33676e-35  1.09967e-33        00000 
 2.92241e-34 -6.17325e-33        00000 
-1.58653e-33  3.44485e-32        00000 
 8.52440e-33 -1.90864e-31        00000 
-4.52323e-32  1.04839e-30        00000 
 2.36364e-31 -5.69829e-30        00000 
-1.21182e-30  3.05707e-29        00000 
 6.06474e-30 -1.61352e-28        00000 
-2.94172e-29  8.34081e-28        00000 
 1.36854e-28 -4.19660e-27        00000 
-6.00804e-28  2.03676e-26        00000 
 2.42174e-27 -9.40783e-26        00000 
-8.49905e-27  4.04918e-25        00000 
 2.26850e-26 -1.56776e-24        00000 
-2.08800e-26  5.12580e-24        00000 
-2.26244e-25 -1.23432e-23        00000 
 1.75185e-24  8.81943e-24        00000 
-7.56660e-24  6.44892e-23        00000 
 2.35118e-23 -1.13718e-22        00000 
-5.58698e-23 -7.88269e-23        00000 
 1.03340e-22  6.17143e-22        00000 
-1.49414e-22 -6.88007e-22        00000 
 1.68955e-22  8.01481e-22        00000 
-4.20224e-40  8.08562e-39        00000 
 1.21006e-39 -2.36340e-38        00000 
-6.52196e-39  1.29694e-37        00000 
 3.60261e-38 -7.29797e-37        00000 
-1.98078e-37  4.09361e-36        00000 
 1.08211e-36 -2.28554e-35        00000 
-5.86772e-36  1.26915e-34        00000 
 3.15427e-35 -7.00319e-34        00000 
-1.67843e-34  3.83586e-33        00000 
 8.82400e-34 -2.08271e-32        00000 
-4.57248e-33  1.11910e-31        00000 
 2.32827e-32 -5.93836e-31        00000 
-1.16028e-31  3.10345e-30        00000 
 5.62849e-31 -1.59175e-29        00000 
-2.63790e-30  7.97492e-29        00000 
 1.18151e-29 -3.87833e-28        00000 
-4.97349e-29  1.81462e-27        00000 