<?xml version="1.0" encoding="utf-8"?>
<VTKFile byte_order="LittleEndian" type="UnstructuredGrid" version="0.1">
   <UnstructuredGrid>
      <Piece NumberOfCells="3364" NumberOfPoints="1741">
         <Points>
            <DataArray Name="Points" NumberOfComponents="3" format="ascii" type="Float32">
0.0000 1.0000 0.0000
0.0000 1.0345 0.0000
0.0000 1.0690 0.0000
0.0000 1.1034 0.0000
0.0000 1.1379 0.0000
0.0000 1.1724 0.0000
0.0000 1.2069 0.0000
0.0000 1.2414 0.0000
0.0000 1.2759 0.0000
0.0000 1.3103 0.0000
0.0000 1.3448 0.0000
0.0000 1.3793 0.0000
0.0000 1.4138 0.0000
0.0000 1.4483 0.0000
0.0000 1.4828 0.0000
0.0000 1.5172 0.0000
0.0000 1.5517 0.0000
0.0000 1.5862 0.0000
0.0000 1.6207 0.0000
0.0000 1.6552 0.0000
0.0000 1.6897 0.0000
0.0000 1.7241 0.0000
0.0000 1.7586 0.0000
0.0000 1.7931 0.0000
0.0000 1.8276 0.0000
0.0000 1.8621 0.0000
0.0000 1.8966 0.0000
0.0000 1.9310 0.0000
0.0000 1.9655 0.0000
0.0000 2.0000 0.0000
0.0690 1.0000 0.0000
0.0690 1.0345 0.0000
0.0690 1.0690 0.0000
0.0690 1.1034 0.0000
0.0690 1.1379 0.0000
0.0690 1.1724 0.0000
0.0690 1.2069 0.0000
0.0690 1.2414 0.0000
0.0690 1.2759 0.0000
0.0690 1.3103 0.0000
0.0690 1.3448 0.0000
0.0690 1.3793 0.0000
0.0690 1.4138 0.0000
0.0690 1.4483 0.0000
0.0690 1.4828 0.0000
0.0690 1.5172 0.0000
0.0690 1.5517 0.0000
0.0690 1.5862 0.0000
0.0690 1.6207 0.0000
0.0690 1.6552 0.0000
0.0690 1.6897 0.0000
0.0690 1.7241 0.0000
0.0690 1.7586 0.0000
0.0690 1.7931 0.0000
0.0690 1.8276 0.0000
0.0690 1.8621 0.0000
0.0690 1.8966 0.0000
0.0690 1.9310 0.0000
0.0690 1.9655 0.0000
0.0690 2.0000 0.0000
0.1379 1.0000 0.0000
0.1379 1.0345 0.0000
0.1379 1.0690 0.0000
0.1379 1.1034 0.0000
0.1379 1.1379 0.0000
0.1379 1.1724 0.0000
0.1379 1.2069 0.0000
0.1379 1.2414 0.0000
0.1379 1.2759 0.0000
0.1379 1.3103 0.0000
0.1379 1.3448 0.0000
0.1379 1.3793 0.0000
0.1379 1.4138 0.0000
0.1379 1.4483 0.0000
0.1379 1.4828 0.0000
0.1379 1.5172 0.0000
0.1379 1.5517 0.0000
0.1379 1.5862 0.0000
0.1379 1.6207 0.0000
0.1379 1.6552 0.0000
0.1379 1.6897 0.0000
0.1379 1.7241 0.0000
0.1379 1.7586 0.0000
0.1379 1.7931 0.0000
0.1379 1.8276 0.0000
0.1379 1.8621 0.0000
0.1379 1.8966 0.0000
0.1379 1.9310 0.0000
0.1379 1.9655 0.0000
0.1379 2.0000 0.0000
0.2069 1.0000 0.0000
0.2069 1.0345 0.0000
0.2069 1.0690 0.0000
0.2069 1.1034 0.0000
0.2069 1.1379 0.0000
0.2069 1.1724 0.0000
0.2069 1.2069 0.0000
0.2069 1.2414 0.0000
0.2069 1.2759 0.0000
0.2069 1.3103 0.0000
0.2069 1.3448 0.0000
0.2069 1.3793 0.0000
0.2069 1.4138 0.0000
0.2069 1.4483 0.0000
0.2069 1.4828 0.0000
0.2069 1.5172 0.0000
0.2069 1.5517 0.0000
0.2069 1.5862 0.0000
0.2069 1.6207 0.0000
0.2069 1.6552 0.0000
0.2069 1.6897 0.0000
0.2069 1.7241 0.0000
0.2069 1.7586 0.0000
0.2069 1.7931 0.0000
0.2069 1.8276 0.0000
0.2069 1.8621 0.0000
0.2069 1.8966 0.0000
0.2069 1.9310 0.0000
0.2069 1.9655 0.0000
0.2069 2.0000 0.0000
0.2759 1.0000 0.0000
0.2759 1.0345 0.0000
0.2759 1.0690 0.0000
0.2759 1.1034 0.0000
0.2759 1.1379 0.0000
0.2759 1.1724 0.0000
0.2759 1.2069 0.0000
0.2759 1.2414 0.0000
0.2759 1.2759 0.0000
0.2759 1.3103 0.0000
0.2759 1.3448 0.0000
0.2759 1.3793 0.0000
0.2759 1.4138 0.0000
0.2759 1.4483 0.0000
0.2759 1.4828 0.0000
0.2759 1.5172 0.0000
0.2759 1.5517 0.0000
0.2759 1.5862 0.0000
0.2759 1.6207 0.0000
0.2759 1.6552 0.0000
0.2759 1.6897 0.0000
0.2759 1.7241 0.0000
0.2759 1.7586 0.0000
0.2759 1.7931 0.0000
0.2759 1.8276 0.0000
0.2759 1.8621 0.0000
0.2759 1.8966 0.0000
0.2759 1.9310 0.0000
0.2759 1.9655 0.0000
0.2759 2.0000 0.0000
0.3448 1.0000 0.0000
0.3448 1.0345 0.0000
0.3448 1.0690 0.0000
0.3448 1.1034 0.0000
0.3448 1.1379 0.0000
0.3448 1.1724 0.0000
0.3448 1.2069 0.0000
0.3448 1.2414 0.0000
0.3448 1.2759 0.0000
0.3448 1.3103 0.0000
0.3448 1.3448 0.0000
0.3448 1.3793 0.0000
0.3448 1.4138 0.0000
0.3448 1.4483 0.0000
0.3448 1.4828 0.0000
0.3448 1.5172 0.0000
0.3448 1.5517 0.0000
0.3448 1.5862 0.0000
0.3448 1.6207 0.0000
0.3448 1.6552 0.0000
0.3448 1.6897 0.0000
0.3448 1.7241 0.0000
0.3448 1.7586 0.0000
0.3448 1.7931 0.0000
0.3448 1.8276 0.0000
0.3448 1.8621 0.0000
0.3448 1.8966 0.0000
0.3448 1.9310 0.0000
0.3448 1.9655 0.0000
0.3448 2.0000 0.0000
0.4138 1.0000 0.0000
0.4138 1.0345 0.0000
0.4138 1.0690 0.0000
0.4138 1.1034 0.0000
0.4138 1.1379 0.0000
0.4138 1.1724 0.0000
0.4138 1.2069 0.0000
0.4138 1.2414 0.0000
0.4138 1.2759 0.0000
0.4138 1.3103 0.0000
0.4138 1.3448 0.0000
0.4138 1.3793 0.0000
0.4138 1.4138 0.0000
0.4138 1.4483 0.0000
0.4138 1.4828 0.0000
0.4138 1.5172 0.0000
0.4138 1.5517 0.0000
0.4138 1.5862 0.0000
0.4138 1.6207 0.0000
0.4138 1.6552 0.0000
0.4138 1.6897 0.0000
0.4138 1.7241 0.0000
0.4138 1.7586 0.0000
0.4138 1.7931 0.0000
0.4138 1.8276 0.0000
0.4138 1.8621 0.0000
0.4138 1.8966 0.0000
0.4138 1.9310 0.0000
0.4138 1.9655 0.0000
0.4138 2.0000 0.0000
0.4828 1.0000 0.0000
0.4828 1.0345 0.0000
0.4828 1.0690 0.0000
0.4828 1.1034 0.0000
0.4828 1.1379 0.0000
0.4828 1.1724 0.0000
0.4828 1.2069 0.0000
0.4828 1.2414 0.0000
0.4828 1.2759 0.0000
0.4828 1.3103 0.0000
0.4828 1.3448 0.0000
0.4828 1.3793 0.0000
0.4828 1.4138 0.0000
0.4828 1.4483 0.0000
0.4828 1.4828 0.0000
0.4828 1.5172 0.0000
0.4828 1.5517 0.0000
0.4828 1.5862 0.0000
0.4828 1.6207 0.0000
0.4828 1.6552 0.0000
0.4828 1.6897 0.0000
0.4828 1.7241 0.0000
0.4828 1.7586 0.0000
0.4828 1.7931 0.0000
0.4828 1.8276 0.0000
0.4828 1.8621 0.0000
0.4828 1.8966 0.0000
0.4828 1.9310 0.0000
0.4828 1.9655 0.0000
0.4828 2.0000 0.0000
0.5517 1.0000 0.0000
0.5517 1.0345 0.0000
0.5517 1.0690 0.0000
0.5517 1.1034 0.0000
0.5517 1.1379 0.0000
0.5517 1.1724 0.0000
0.5517 1.2069 0.0000
0.5517 1.2414 0.0000
0.5517 1.2759 0.0000
0.5517 1.3103 0.0000
0.5517 1.3448 0.0000
0.5517 1.3793 0.0000
0.5517 1.4138 0.0000
0.5517 1.4483 0.0000
0.5517 1.4828 0.0000
0.5517 1.5172 0.0000
0.5517 1.5517 0.0000
0.5517 1.5862 0.0000
0.5517 1.6207 0.0000
0.5517 1.6552 0.0000
0.5517 1.6897 0.0000
0.5517 1.7241 0.0000
0.5517 1.7586 0.0000
0.5517 1.7931 0.0000
0.5517 1.8276 0.0000
0.5517 1.8621 0.0000
0.5517 1.8966 0.0000
0.5517 1.9310 0.0000
0.5517 1.9655 0.0000
0.5517 2.0000 0.0000
0.6207 1.0000 0.0000
0.6207 1.0345 0.0000
0.6207 1.0690 0.0000
0.6207 1.1034 0.0000
0.6207 1.1379 0.0000
0.6207 1.1724 0.0000
0.6207 1.2069 0.0000
0.6207 1.2414 0.0000
0.6207 1.2759 0.0000
0.6207 1.3103 0.0000
0.6207 1.3448 0.0000
0.6207 1.3793 0.0000
0.6207 1.4138 0.0000
0.6207 1.4483 0.0000
0.6207 1.4828 0.0000
0.6207 1.5172 0.0000
0.6207 1.5517 0.0000
0.6207 1.5862 0.0000
0.6207 1.6207 0.0000
0.6207 1.6552 0.0000
0.6207 1.6897 0.0000
0.6207 1.7241 0.0000
0.6207 1.7586 0.0000
0.6207 1.7931 0.0000
0.6207 1.8276 0.0000
0.6207 1.8621 0.0000
0.6207 1.8966 0.0000
0.6207 1.9310 0.0000
0.6207 1.9655 0.0000
0.6207 2.0000 0.0000
0.6897 1.0000 0.0000
0.6897 1.0345 0.0000
0.6897 1.0690 0.0000
0.6897 1.1034 0.0000
0.6897 1.1379 0.0000
0.6897 1.1724 0.0000
0.6897 1.2069 0.0000
0.6897 1.2414 0.0000
0.6897 1.2759 0.0000
0.6897 1.3103 0.0000
0.6897 1.3448 0.0000
0.6897 1.3793 0.0000
0.6897 1.4138 0.0000
0.6897 1.4483 0.0000
0.6897 1.4828 0.0000
0.6897 1.5172 0.0000
0.6897 1.5517 0.0000
0.6897 1.5862 0.0000
0.6897 1.6207 0.0000
0.6897 1.6552 0.0000
0.6897 1.6897 0.0000
0.6897 1.7241 0.0000
0.6897 1.7586 0.0000
0.6897 1.7931 0.0000
0.6897 1.8276 0.0000
0.6897 1.8621 0.0000
0.6897 1.8966 0.0000
0.6897 1.9310 0.0000
0.6897 1.9655 0.0000
0.6897 2.0000 0.0000
0.7586 1.0000 0.0000
0.7586 1.0345 0.0000
0.7586 1.0690 0.0000
0.7586 1.1034 0.0000
0.7586 1.1379 0.0000
0.7586 1.1724 0.0000
0.7586 1.2069 0.0000
0.7586 1.2414 0.0000
0.7586 1.2759 0.0000
0.7586 1.3103 0.0000
0.7586 1.3448 0.0000
0.7586 1.3793 0.0000
0.7586 1.4138 0.0000
0.7586 1.4483 0.0000
0.7586 1.4828 0.0000
0.7586 1.5172 0.0000
0.7586 1.5517 0.0000
0.7586 1.5862 0.0000
0.7586 1.6207 0.0000
0.7586 1.6552 0.0000
0.7586 1.6897 0.0000
0.7586 1.7241 0.0000
0.7586 1.7586 0.0000
0.7586 1.7931 0.0000
0.7586 1.8276 0.0000
0.7586 1.8621 0.0000
0.7586 1.8966 0.0000
0.7586 1.9310 0.0000
0.7586 1.9655 0.0000
0.7586 2.0000 0.0000
0.8276 1.0000 0.0000
0.8276 1.0345 0.0000
0.8276 1.0690 0.0000
0.8276 1.1034 0.0000
0.8276 1.1379 0.0000
0.8276 1.1724 0.0000
0.8276 1.2069 0.0000
0.8276 1.2414 0.0000
0.8276 1.2759 0.0000
0.8276 1.3103 0.0000
0.8276 1.3448 0.0000
0.8276 1.3793 0.0000
0.8276 1.4138 0.0000
0.8276 1.4483 0.0000
0.8276 1.4828 0.0000
0.8276 1.5172 0.0000
0.8276 1.5517 0.0000
0.8276 1.5862 0.0000
0.8276 1.6207 0.0000
0.8276 1.6552 0.0000
0.8276 1.6897 0.0000
0.8276 1.7241 0.0000
0.8276 1.7586 0.0000
0.8276 1.7931 0.0000
0.8276 1.8276 0.0000
0.8276 1.8621 0.0000
0.8276 1.8966 0.0000
0.8276 1.9310 0.0000
0.8276 1.9655 0.0000
0.8276 2.0000 0.0000
0.8966 1.0000 0.0000
0.8966 1.0345 0.0000
0.8966 1.0690 0.0000
0.8966 1.1034 0.0000
0.8966 1.1379 0.0000
0.8966 1.1724 0.0000
0.8966 1.2069 0.0000
0.8966 1.2414 0.0000
0.8966 1.2759 0.0000
0.8966 1.3103 0.0000
0.8966 1.3448 0.0000
0.8966 1.3793 0.0000
0.8966 1.4138 0.0000
0.8966 1.4483 0.0000
0.8966 1.4828 0.0000
0.8966 1.5172 0.0000
0.8966 1.5517 0.0000
0.8966 1.5862 0.0000
0.8966 1.6207 0.0000
0.8966 1.6552 0.0000
0.8966 1.6897 0.0000
0.8966 1.7241 0.0000
0.8966 1.7586 0.0000
0.8966 1.7931 0.0000
0.8966 1.8276 0.0000
0.8966 1.8621 0.0000
0.8966 1.8966 0.0000
0.8966 1.9310 0.0000
0.8966 1.9655 0.0000
0.8966 2.0000 0.0000
0.9655 1.0000 0.0000
0.9655 1.0345 0.0000
0.9655 1.0690 0.0000
0.9655 1.1034 0.0000
0.9655 1.1379 0.0000
0.9655 1.1724 0.0000
0.9655 1.2069 0.0000
0.9655 1.2414 0.0000
0.9655 1.2759 0.0000
0.9655 1.3103 0.0000
0.9655 1.3448 0.0000
0.9655 1.3793 0.0000
0.9655 1.4138 0.0000
0.9655 1.4483 0.0000
0.9655 1.4828 0.0000
0.9655 1.5172 0.0000
0.9655 1.5517 0.0000
0.9655 1.5862 0.0000
0.9655 1.6207 0.0000
0.9655 1.6552 0.0000
0.9655 1.6897 0.0000
0.9655 1.7241 0.0000
0.9655 1.7586 0.0000
0.9655 1.7931 0.0000
0.9655 1.8276 0.0000
0.9655 1.8621 0.0000
0.9655 1.8966 0.0000
0.9655 1.9310 0.0000
0.9655 1.9655 0.0000
0.9655 2.0000 0.0000
1.0345 1.0000 0.0000
1.0345 1.0345 0.0000
1.0345 1.0690 0.0000
1.0345 1.1034 0.0000
1.0345 1.1379 0.0000
1.0345 1.1724 0.0000
1.0345 1.2069 0.0000
1.0345 1.2414 0.0000
1.0345 1.2759 0.0000
1.0345 1.3103 0.0000
1.0345 1.3448 0.0000
[...]
         <PointData>
            <DataArray Name="fValues" NumberOfComponents="3" format="ascii" type="Float64">
-1.91089e-25 -1.27398e-25        00000 
 2.04720e-25  1.40564e-25        00000 
-2.42292e-25 -1.73694e-25        00000 
 2.95914e-25  2.11202e-25        00000 
-3.55411e-25 -2.36426e-25        00000 
 4.05992e-25  2.38999e-25        00000 
-4.28082e-25 -2.17572e-25        00000 
 4.06227e-25  1.78133e-25        00000 
-3.40259e-25 -1.30531e-25        00000 
 2.48289e-25  8.49138e-26        00000 
-1.56798e-25 -4.86012e-26        00000 
 8.55493e-26  2.43020e-26        00000 
-4.04250e-26 -1.05835e-26        00000 
 1.66539e-26  4.02386e-27        00000 
-6.04679e-27 -1.34708e-27        00000 
 1.96307e-27  4.02719e-28        00000 
-5.79181e-28 -1.09406e-28        00000 
 1.57798e-28  2.74876e-29        00000 
-4.02653e-29 -6.48572e-30        00000 
 9.73639e-30  1.45527e-30        00000 
-2.25228e-30 -3.13604e-31        00000 
 5.02218e-31  6.54063e-32        00000 
-1.08600e-31 -1.32822e-32        00000 
 2.28843e-32  2.63865e-33        00000 
-4.71747e-33 -5.14718e-34        00000 
 9.54387e-34  9.88824e-35        00000 
-1.89991e-34 -1.87534e-35        00000 
 3.73411e-35  3.52158e-36        00000 
-7.49451e-36 -6.75692e-37        00000 
 2.77427e-36  2.40961e-37        00000 
 5.43874e-25  3.52142e-25        00000 
-5.89028e-25 -3.99079e-25        00000 
 7.10764e-25  5.16510e-25        00000 
-8.80892e-25 -6.47850e-25        00000 
 1.07255e-24  7.34504e-25        00000 
-1.24787e-24 -7.42907e-25        00000 
 1.33216e-24  6.71673e-25        00000 
-1.26874e-24 -5.42628e-25        00000 
 1.04921e-24  3.88823e-25        00000 
-7.41963e-25 -2.44108e-25        00000 
 4.45860e-25  1.32624e-25        00000 
-2.27645e-25 -6.18460e-26        00000 
 9.93180e-26  2.47273e-26        00000 
-3.74654e-26 -8.54210e-27        00000 
 1.24335e-26  2.59200e-27        00000 
-3.70564e-27 -7.06378e-28        00000 
 1.01213e-27  1.76833e-28        00000 
-2.57769e-28 -4.14388e-29        00000 
 6.20649e-29  9.22347e-30        00000 
-1.42805e-29 -1.97147e-30        00000 
 3.16606e-30  4.08015e-31        00000 
-6.80727e-31 -8.22736e-32        00000 
 1.42658e-31  1.62412e-32        00000 
-2.92569e-32 -3.15037e-33        00000 
 5.89073e-33  6.02216e-34        00000 
-1.16748e-33 -1.13709e-34        00000 
 2.28256e-34  2.12478e-35        00000 
-4.41514e-35 -3.93907e-36        00000 
 8.73093e-36  7.47041e-37        00000 
-3.19444e-36 -2.63992e-37        00000 
-2.87198e-24 -1.77028e-24        00000 
 3.16840e-24  2.09359e-24        00000 
-3.93194e-24 -2.89724e-24        00000 
 4.94406e-24  3.78120e-24        00000 
-6.08878e-24 -4.34560e-24        00000 
 7.23940e-24  4.38913e-24        00000 
-7.89487e-24 -3.93320e-24        00000 
 7.56969e-24  3.12799e-24        00000 
-6.14691e-24 -2.17906e-24        00000 
 4.15782e-24  1.30335e-24        00000 
-2.32867e-24 -6.57394e-25        00000 
 1.08228e-24  2.76994e-25        00000 
-4.22149e-25 -9.78146e-26        00000 
 1.41055e-25  2.94710e-26        00000 
-4.14917e-26 -7.80532e-27        00000 
 1.10486e-26  1.87667e-27        00000 
-2.72552e-27 -4.20326e-28        00000 
 6.33883e-28  8.93546e-29        00000 
-1.40805e-28 -1.82703e-29        00000 
 3.01607e-29  3.62711e-30        00000 
-6.27447e-30 -7.03876e-31        00000 
 1.27461e-30  1.34178e-31        00000 
-2.53893e-31 -2.52170e-32        00000 
 4.97513e-32  4.68499e-33        00000 
-9.61509e-33 -8.62235e-34        00000 
 1.83650e-33  1.57448e-34        00000 
-3.47260e-34 -2.85627e-35        00000 
 6.51609e-35  5.15751e-36        00000 
-1.25176e-35 -9.54423e-37        00000 
 4.47396e-36  3.30731e-37        00000 
 1.53065e-23  8.78261e-24        00000 
-1.74314e-23 -1.10629e-23        00000 
 2.25052e-23  1.67103e-23        00000 
-2.85361e-23 -2.28098e-23        00000 
 3.52698e-23  2.65114e-23        00000 
-4.27695e-23 -2.66439e-23        00000 
 4.83629e-23  2.36468e-23        00000 
-4.67619e-23 -1.85289e-23        00000 
 3.70620e-23  1.25088e-23        00000 
-2.36633e-23 -7.04016e-24        00000 
 1.21000e-23  3.22218e-24        00000 
-4.99771e-24 -1.19061e-24        00000 
 1.70630e-24  3.60988e-25        00000 
-4.99439e-25 -9.34491e-26        00000 
 1.30389e-25  2.16594e-26        00000 
-3.13077e-26 -4.65320e-27        00000 
 7.06612e-27  9.48164e-28        00000 
-1.52199e-27 -1.86058e-28        00000 
 3.16216e-28  3.55221e-29        00000 
-6.38615e-29 -6.64510e-30        00000 
 1.26080e-29  1.22411e-30        00000 
-2.44382e-30 -2.22848e-31        00000 
 4.66591e-31  4.01980e-32        00000 
-8.79758e-32 -7.19867e-33        00000 
 1.64147e-32  1.28170e-33        00000 
-3.03568e-33 -2.27137e-34        00000 
 5.57205e-34  4.00999e-35        00000 
-1.01716e-34 -7.06334e-36        00000 
 1.90240e-35  1.27652e-36        00000 
-6.65078e-36 -4.33835e-37        00000 
-7.83921e-23 -4.04770e-23        00000 
 9.49962e-23  5.64899e-23        00000 
-1.30931e-22 -9.64637e-23        00000 
 1.65375e-22  1.39055e-22        00000 
-2.01871e-22 -1.62850e-22        00000 
 2.51465e-22  1.61794e-22        00000 
-3.00377e-22 -1.42215e-22        00000 
 2.92282e-22  1.10157e-22        00000 
-2.24362e-22 -7.15981e-23        00000 
 1.31858e-22  3.69658e-23        00000 
-5.93788e-23 -1.46898e-23        00000 
 2.09655e-23  4.51889e-24        00000 
-6.09798e-24 -1.13390e-24        00000 
 1.55298e-24  2.50769e-25        00000 
-3.61228e-25 -5.12801e-26        00000 
 7.88608e-26  9.97053e-27        00000 
-1.64427e-26 -1.87431e-27        00000 
 3.31226e-27  3.44228e-28        00000 
-6.49786e-28 -6.21818e-29        00000 
 1.24847e-28  1.10984e-29        00000 
-2.35921e-29 -1.96334e-30        00000 
 4.39851e-30  3.45010e-31        00000 
-8.11050e-31 -6.03199e-32        00000 
 1.48190e-31  1.05050e-32        00000 
-2.68704e-32 -1.82400e-33        00000 
 4.84101e-33  3.15959e-34        00000 
-8.67447e-34 -5.46324e-35        00000 
 1.54857e-34  9.44062e-36        00000 
-2.83408e-35 -1.67494e-36        00000 
 9.73041e-36  5.60561e-37        00000 
 3.67515e-22  1.62621e-22        00000 
-5.07244e-22 -2.71232e-22        00000 
 7.86570e-22  5.55133e-22        00000 
-9.73967e-22 -8.61102e-22        00000 
 1.11554e-21  1.00874e-21        00000 
-1.44912e-21 -9.77045e-22        00000 
 1.85255e-21  8.53833e-22        00000 
-1.86596e-21 -6.60949e-22        00000 
 1.35895e-21  4.07839e-22        00000 
-7.03216e-22 -1.83286e-22        00000 
 2.62683e-22  5.82426e-23        00000 
-7.55135e-23 -1.38991e-23        00000 
 1.85687e-23  2.87637e-24        00000 
-4.14568e-24 -5.51919e-25        00000 
 8.69434e-25  1.01431e-25        00000 
-1.74631e-25 -1.81611e-26        00000 
 3.39956e-26  3.19858e-27        00000 
-6.46456e-27 -5.57301e-28        00000 
 1.20732e-27  9.63992e-29        00000 
-2.22311e-28 -1.65919e-29        00000 
 4.04764e-29  2.84588e-30        00000 
-7.30271e-30 -4.86943e-31        00000 
 1.30778e-30  8.31760e-32        00000 
-2.32765e-31 -1.41905e-32        00000 
 4.12174e-32  2.41904e-33        00000 
-7.26750e-33 -4.12147e-34        00000 
 1.27683e-33  7.01980e-35        00000 
-2.23834e-34 -1.19636e-35        00000 
 4.02506e-35  2.09444e-36        00000 
-1.36186e-35 -6.93184e-37        00000 
-1.39945e-21 -4.97111e-22        00000 
 2.55790e-21  1.14015e-21        00000 
-4.98010e-21 -3.13164e-21        00000 
 6.02121e-21  5.48716e-21        00000 
-5.78080e-21 -6.33971e-21        00000 
 7.98279e-21  5.77544e-21        00000 
-1.18876e-20 -5.11288e-21        00000 
 1.23385e-20  4.07375e-21        00000 
-8.14976e-21 -2.28872e-21        00000 
 3.39850e-21  7.89507e-22        00000 
-9.52591e-22 -1.71906e-22        00000 
 2.22417e-22  3.22395e-23        00000 
-4.70395e-23 -5.69099e-24        00000 
 9.39525e-24  9.77379e-25        00000 
-1.80760e-24 -1.65666e-25        00000 
 3.38768e-25  2.79026e-26        00000 
-6.22852e-26 -4.68575e-27        00000 
 1.12882e-26  7.85975e-28        00000 
-2.02339e-27 -1.31809e-28        00000 
 3.59590e-28  2.21109e-29        00000 
-6.34732e-29 -3.71119e-30        00000 
 1.11433e-29  6.23333e-31        00000 
-1.94775e-30 -1.04774e-31        00000 
 3.39230e-31  1.76248e-32        00000 
-5.89083e-32 -2.96707e-33        00000 
 1.02047e-32  4.99871e-34        00000 
-1.76420e-33 -8.42783e-35        00000 
 3.04732e-34  1.42303e-35        00000 
-5.40239e-35 -2.46910e-36        00000 
 1.80637e-35  8.11099e-37        00000 
 4.01924e-21  1.06981e-21        00000 
-9.58245e-21 -3.17559e-21        00000 
 3.35093e-20  1.59856e-20        00000 
-4.26294e-20 -3.70417e-20        00000 
 2.44540e-20  4.13428e-20        00000 
-3.87459e-20 -3.14037e-20        00000 
 8.03691e-20  3.08402e-20        00000 
-8.57071e-20 -2.70323e-20        00000 
 4.66774e-20  1.17734e-20        00000 
-1.22969e-20 -2.11861e-21        00000 
 2.65386e-21  3.41723e-22        00000 
-5.21964e-22 -5.41374e-23        00000 
 9.83476e-23  8.59863e-24        00000 
-1.80269e-23 -1.37563e-24        00000 
 3.24180e-24  2.21757e-25        00000 
-5.75112e-25 -3.59925e-26        00000 
 1.01027e-25  5.87588e-27        00000 
-1.76184e-26 -9.63957e-28        00000 
 3.05583e-27  1.58790e-28        00000 
-5.27835e-28 -2.62478e-29        00000 
 9.08846e-29  4.35151e-30        00000 
-1.56104e-29 -7.23237e-31        00000 
 2.67612e-30  1.20467e-31        00000 
-4.58081e-31 -2.01039e-32        00000 
 7.83181e-32  3.36063e-33        00000 
-1.33774e-32 -5.62610e-34        00000 
 2.28334e-33  9.43152e-35        00000 
-3.89813e-34 -1.58419e-35        00000 
 6.83367e-35  2.73492e-36        00000 
-2.26373e-35 -8.94635e-37        00000 
-8.21558e-21 -1.60519e-21        00000 
 2.49316e-20  5.38372e-21        00000 
-1.23678e-19 -3.65238e-20        00000 
 5.43009e-19  2.75841e-19        00000 
 1.54804e-19 -3.13860e-19        00000 
 2.53378e-19  9.32049e-20        00000 
-4.89653e-19 -2.11664e-19        00000 
 7.24650e-19  2.10048e-19        00000 
-1.62039e-19 -2.43706e-20        00000 
 3.10866e-20  3.12270e-21        00000 
-5.53982e-21 -4.35219e-22        00000 
 9.78012e-22  6.40681e-23        00000 
-1.70260e-22 -9.77135e-24        00000 
 2.93296e-23  1.52594e-24        00000 
-5.01680e-24 -2.42239e-25        00000 
 8.54142e-25  3.89116e-26        00000 
-1.44984e-25 -6.30568e-27        00000 
 2.45619e-26  1.02876e-27        00000 
-4.15588e-27 -1.68733e-28        00000 
 7.02642e-28  2.77935e-29        00000 
-1.18746e-28 -4.59420e-30        00000 
 2.00638e-29  7.61641e-31        00000 
-3.38991e-30 -1.26582e-31        00000 
 5.72785e-31  2.10823e-32        00000 
-9.67957e-32 -3.51781e-33        00000 
 1.63608e-32  5.87941e-34        00000 
-2.76608e-33 -9.84085e-35        00000 
 4.68135e-34  1.65052e-35        00000 
-8.13870e-35 -2.84528e-36        00000 
 2.67746e-35  9.29558e-37        00000 
 1.16786e-20  1.73630e-21        00000 
-3.91774e-20 -5.72353e-21        00000 
 2.65710e-19  3.78961e-20        00000 
-1.73674e-18 -3.06514e-19        00000 
 1.10556e-17  6.24044e-18        00000 
 9.98282e-03  4.88856e-18        00000 
 9.01275e-18  4.96037e-18        00000 
-1.55904e-18 -1.67775e-19        00000 
 3.45452e-19  1.66626e-20        00000 
-5.34679e-20 -2.23785e-21        00000 
 8.95319e-21  3.33344e-22        00000 
-1.48477e-21 -5.18669e-23        00000 
 2.45309e-22  8.25128e-24        00000 
-4.05132e-23 -1.32999e-24        00000 
 6.69755e-24  2.16244e-25        00000 
-1.10894e-24 -3.53790e-26        00000 
 1.83929e-25  5.81574e-27        00000 
-3.05589e-26 -9.59617e-28        00000 
 5.08558e-27  1.58829e-28        00000 
-8.47641e-28 -2.63563e-29        00000 
 1.41483e-28  4.38329e-30        00000 
-2.36467e-29 -7.30375e-31        00000 
 3.95700e-30  1.21905e-31        00000 
-6.62899e-31 -2.03772e-32        00000 
 1.11167e-31  3.41072e-33        00000 
-1.86605e-32 -5.71569e-34        00000 
 3.13517e-33  9.58897e-35        00000 
-5.27575e-34 -1.61151e-35        00000 
 9.12223e-35  2.78313e-36        00000 
-2.98746e-35 -9.10577e-37        00000 
-1.18230e-20 -1.47880e-21        00000 
 4.01752e-20  4.39350e-21        00000 
-2.68259e-19 -2.18317e-20        00000 
 2.13591e-18  3.42850e-20        00000 
-9.98282e-03 -6.28747e-18        00000 
 8.54322e-01  2.22642e-17        00000 
-9.98282e-03  5.65088e-18        00000 
 3.11975e-18 -1.29148e-19        00000 
-4.01569e-19  3.31774e-21        00000 
 7.27119e-20  3.99912e-22        00000 
-1.15465e-20 -1.34477e-22        00000 
 1.83504e-21  2.81267e-23        00000 
-2.93888e-22 -5.22612e-24        00000 
 4.74165e-23  9.26295e-25        00000 
-7.69847e-24 -1.60499e-25        00000 
 1.25649e-24  2.74765e-26        00000 
-2.05978e-25 -4.67197e-27        00000 
 3.38920e-26  7.91275e-28        00000 
-5.59437e-27 -1.33707e-28        00000 
 9.25960e-28  2.25636e-29        00000 
-1.53627e-28 -3.80501e-30        00000 
 2.55417e-29  6.41459e-31        00000 
-4.25436e-30 -1.08133e-31        00000 
 7.09796e-31  1.82301e-32        00000 
-1.18597e-31 -3.07408e-33        00000 
 1.98421e-32  5.18518e-34        00000 
-3.32378e-33 -8.74912e-35        00000 
 5.57802e-34  1.47792e-35        00000 
-9.62005e-35 -2.56463e-36        00000 
 3.14376e-35  8.42360e-37        00000 
 8.39124e-21  1.14024e-21        00000 
-2.59241e-20 -3.31607e-21        00000 
 1.48757e-19  1.75452e-20        00000 
-5.20345e-19 -1.07495e-19        00000 
-4.67963e-18  3.72591e-18        00000 
 9.98282e-03  5.28194e-18        00000 
 1.32972e-17  2.44584e-18        00000 
-2.09780e-18  3.12437e-20        00000 
 5.84108e-19 -3.68277e-21        00000 
-7.63258e-20  1.30085e-22        00000 
 1.16007e-20  3.53123e-23        00000 
-1.82066e-21 -1.23442e-23        00000 
 2.90319e-22  2.81089e-24        00000 
-4.67718e-23 -5.59895e-25        00000 
 7.59156e-24  1.04846e-25        00000 
-1.23931e-24 -1.89833e-26        00000 
 2.03251e-25  3.36823e-27        00000 
-3.34609e-26 -5.89936e-28        00000 
 5.52626e-27  1.02433e-28        00000 
-9.15189e-28 -1.76795e-29        00000 
 1.51920e-28  3.03845e-30        00000 
-2.52704e-29 -5.20592e-31        00000 
 4.21113e-30  8.89945e-32        00000 
-7.02888e-31 -1.51881e-32        00000 
 1.17490e-31  2.58885e-33        00000 
-1.96643e-32 -4.40868e-34        00000 
 3.29516e-33  7.50275e-35        00000 
-5.53179e-34 -1.27718e-35        00000 
 9.54336e-35  2.23244e-36        00000 
-3.11954e-35 -7.37644e-37        00000 
-4.11907e-21 -8.40444e-22        00000 
 9.51185e-21  2.61849e-21        00000 
-2.80040e-20 -1.73041e-20        00000 
-5.84377e-20  1.50076e-19        00000 
-6.04041e-19 -8.18245e-20        00000 
 2.31213e-18 -1.53009e-19        00000 
-2.54855e-18  2.03712e-20        00000 
 1.54006e-18  8.42837e-20        00000 
-2.74079e-19 -5.15882e-21        00000 
 5.22344e-20  4.12159e-22        00000 
-8.61688e-21 -5.28459e-23        00000 
 1.41775e-21  9.38023e-24        00000 
-2.33732e-22 -1.82787e-24        00000 
 3.86204e-23  3.55467e-25        00000 
-6.39505e-24 -6.75725e-26        00000 
 1.06104e-24  1.25578e-26        00000 
-1.76367e-25 -2.29116e-27        00000 
 2.93651e-26  4.12093e-28        00000 
-4.89682e-27 -7.33125e-29        00000 
 8.17728e-28  1.29329e-29        00000 
-1.36730e-28 -2.26658e-30        00000 
 2.28894e-29  3.95199e-31        00000 
-3.83599e-30 -6.86269e-32        00000 
 6.43514e-31  1.18785e-32        00000 
-1.08054e-31 -2.05065e-33        00000 
 1.81591e-32  3.53264e-34        00000 
-3.05425e-33 -6.07524e-35        00000 
 5.14477e-34  1.04414e-35        00000 
-8.90443e-35 -1.84190e-36        00000 
 2.91852e-35  6.13247e-37        00000 
 1.36786e-21  5.24966e-22        00000 
-2.29236e-21 -1.54796e-21        00000 
 3.21936e-21  8.09007e-21        00000 
-3.13965e-20 -1.54979e-20        00000 
 1.52961e-19  6.33665e-21        00000 
-3.21325e-19  8.60164e-21        00000 
 3.67457e-19 -4.16571e-21        00000 
-2.49724e-19 -5.48964e-21        00000 
 9.90924e-20  3.88485e-21        00000 
-2.25570e-20 -5.35302e-22        00000 
 4.60508e-21  6.93011e-23        00000 
-8.53188e-22 -9.81802e-24        00000 
 1.51983e-22  1.55024e-24        00000 
-2.65469e-23 -2.64663e-25        00000 
 4.58541e-24  4.71093e-26        00000 
-7.86620e-25 -8.52636e-27        00000 
 1.34350e-25  1.54815e-27        00000 
-2.28793e-26 -2.80259e-28        00000 
 3.88865e-27  5.04622e-29        00000 
-6.60059e-28 -9.03190e-30        00000 
 1.11939e-28  1.60730e-30        00000 
-1.89728e-29 -2.84544e-31        00000 
 3.21457e-30  5.01423e-32        00000 
-5.44537e-31 -8.80081e-33        00000 
 9.22341e-32  1.53937e-33        00000 
-1.56226e-32 -2.68454e-34        00000 
 2.64635e-33  4.66978e-35        00000 
-4.48664e-34 -8.11202e-36        00000 
 7.81346e-35  1.44594e-36        00000 
-2.57411e-35 -4.85636e-37        00000 
-3.65416e-22 -2.41320e-22        00000 
 5.68943e-22  5.53347e-22        00000 
-2.36164e-21 -1.38326e-21        00000 
 1.03901e-20  1.80760e-21        00000 
-2.84300e-20 -8.08475e-22        00000 
 4.84407e-20 -5.06821e-22        00000 
-5.41043e-20  4.18227e-22        00000 
 4.07546e-20  3.94972e-22        00000 
-2.08026e-20 -5.44850e-22        00000 
 7.21012e-21  2.27652e-22        00000 
-1.81398e-21 -4.40099e-23        00000 
 3.97685e-22  7.28736e-24        00000 
-7.96917e-23 -1.18308e-24        00000 
 1.51608e-23  1.96404e-25        00000 
-2.79392e-24 -3.36061e-26        00000 
 5.04326e-25  5.89382e-27        00000 
-8.97555e-26 -1.05013e-27        00000 
 1.58141e-26  1.88635e-28        00000 
-2.76590e-27 -3.39777e-29        00000 
 4.81104e-28  6.11665e-30        00000 
-8.33331e-29 -1.09845e-30        00000 
 1.43874e-29  1.96609e-31        00000 
-2.47765e-30 -3.50621e-32        00000 
 4.25812e-31  6.22988e-33        00000 
-7.30622e-32 -1.10306e-33        00000 
 1.25199e-32  1.94671e-34        00000 
-2.14320e-33 -3.42546e-35        00000 
 3.66858e-34  6.01646e-36        00000 
-6.44741e-35 -1.08427e-36        00000 
 2.14020e-35  3.67590e-37        00000 
 1.04335e-22  7.71112e-23        00000 
-2.13385e-22 -1.21747e-22        00000 
 7.73244e-22  2.13005e-22        00000 
-2.32029e-21 -2.35616e-22        00000 
 4.95271e-21  1.22704e-22        00000 
-7.50971e-21  1.48527e-23        00000 
 8.22983e-21 -3.21314e-23        00000 
-6.59892e-21 -3.58926e-23        00000 
 3.89150e-21  6.79125e-23        00000 
-1.69514e-21 -4.41950e-23        00000 
 5.56819e-22  1.54876e-23        00000 
-1.46790e-22 -3.50569e-24        00000 
 3.39835e-23  6.73940e-25        00000 
-7.21809e-24 -1.21854e-25        00000 
 1.44862e-24  2.16362e-26        00000 
-2.79779e-25 -3.84109e-27        00000 
 5.25988e-26  6.85829e-28        00000 
-9.69743e-27 -1.23195e-28        00000 
 1.76205e-27  2.22222e-29        00000 
-3.16635e-28 -4.01626e-30        00000 
 5.64089e-29  7.25882e-31        00000 
-9.98088e-30 -1.31012e-31        00000 
 1.75634e-30  2.35919e-32        00000 
-3.07690e-31 -4.23637e-33        00000 
 5.37070e-32  7.58406e-34        00000 
-9.34611e-33 -1.35351e-34        00000 
 1.62234e-33  2.40830e-35        00000 
-2.81247e-34 -4.27650e-36        00000 
 5.00299e-35  7.79361e-37        00000 
-1.67743e-35 -2.66780e-37        00000 
-3.39869e-23 -1.80952e-23        00000 
 6.55726e-23  2.33008e-23        00000 
-1.89547e-22 -3.27076e-23        00000 
 4.56474e-22  3.32180e-23        00000 
-8.41952e-22 -1.97422e-23        00000 
 1.18458e-21  3.74221e-24        00000 
-1.28011e-21  8.54790e-25        00000 
 1.06910e-21  4.51115e-24        00000 
-6.92714e-22 -8.69500e-24        00000 
 3.49531e-22  7.15122e-24        00000 
-1.38689e-22 -3.49893e-24        00000 
 4.43874e-23  1.14432e-24        00000 
-1.20066e-23 -2.80791e-25        00000 
 2.89299e-24  5.94072e-26        00000 
-6.42545e-25 -1.16530e-26        00000 
 1.34706e-25  2.20066e-27        00000 
-2.70873e-26 -4.08096e-28        00000 