<?xml version="1.0" encoding="utf-8"?>
<VTKFile byte_order="LittleEndian" type="UnstructuredGrid" version="0.1">
   <UnstructuredGrid>
      <Piece NumberOfCells="3364" NumberOfPoints="1741">
         <Points>
            <DataArray Name="Points" NumberOfComponents="3" format="ascii" type="Float32">
0.0000 1.0000 0.0000
0.0000 1.0345 0.0000
0.0000 1.0690 0.0000
0.0000 1.1034 0.0000
0.0000 1.1379 0.0000
0.0000 1.1724 0.0000
0.0000 1.2069 0.0000
0.0000 1.2414 0.0000
0.0000 1.2759 0.0000
0.0000 1.3103 0.0000
0.0000 1.3448 0.0000
0.0000 1.3793 0.0000
0.0000 1.4138 0.0000
0.0000 1.4483 0.0000
0.0000 1.4828 0.0000
0.0000 1.5172 0.0000
0.0000 1.5517 0.0000
0.0000 1.5862 0.0000
0.0000 1.6207 0.0000
0.0000 1.6552 0.0000
0.0000 1.6897 0.0000
0.0000 1.7241 0.0000
0.0000 1.7586 0.0000
0.0000 1.7931 0.0000
0.0000 1.8276 0.0000
0.0000 1.8621 0.0000
0.0000 1.8966 0.0000
0.0000 1.9310 0.0000
0.0000 1.9655 0.0000
0.0000 2.0000 0.0000
0.0690 1.0000 0.0000
0.0690 1.0345 0.0000
0.0690 1.0690 0.0000
0.0690 1.1034 0.0000
0.0690 1.1379 0.0000
0.0690 1.1724 0.0000
0.0690 1.2069 0.0000
0.0690 1.2414 0.0000
0.0690 1.2759 0.0000
0.0690 1.3103 0.0000
0.0690 1.3448 0.0000
0.0690 1.3793 0.0000
0.0690 1.4138 0.0000
0.0690 1.4483 0.0000
0.0690 1.4828 0.0000
0.0690 1.5172 0.0000
0.0690 1.5517 0.0000
0.0690 1.5862 0.0000
0.0690 1.6207 0.0000
0.0690 1.6552 0.0000
0.0690 1.6897 0.0000
0.0690 1.7241 0.0000
0.0690 1.7586 0.0000
0.0690 1.7931 0.0000
0.0690 1.8276 0.0000
0.0690 1.8621 0.0000
0.0690 1.8966 0.0000
0.0690 1.9310 0.0000
0.0690 1.9655 0.0000
0.0690 2.0000 0.0000
0.1379 1.0000 0.0000
0.1379 1.0345 0.0000
0.1379 1.0690 0.0000
0.1379 1.1034 0.0000
0.1379 1.1379 0.0000
0.1379 1.1724 0.0000
0.1379 1.2069 0.0000
0.1379 1.2414 0.0000
0.1379 1.2759 0.0000
0.1379 1.3103 0.0000
0.1379 1.3448 0.0000
0.1379 1.3793 0.0000
0.1379 1.4138 0.0000
0.1379 1.4483 0.0000
0.1379 1.4828 0.0000
0.1379 1.5172 0.0000
0.1379 1.5517 0.0000
0.1379 1.5862 0.0000
0.1379 1.6207 0.0000
0.1379 1.6552 0.0000
0.1379 1.6897 0.0000
0.1379 1.7241 0.0000
0.1379 1.7586 0.0000
0.1379 1.7931 0.0000
0.1379 1.8276 0.0000
0.1379 1.8621 0.0000
0.1379 1.8966 0.0000
0.1379 1.9310 0.0000
0.1379 1.9655 0.0000
0.1379 2.0000 0.0000
0.2069 1.0000 0.0000
0.2069 1.0345 0.0000
0.2069 1.0690 0.0000
0.2069 1.1034 0.0000
0.2069 1.1379 0.0000
0.2069 1.1724 0.0000
0.2069 1.2069 0.0000
0.2069 1.2414 0.0000
0.2069 1.2759 0.0000
0.2069 1.3103 0.0000
0.2069 1.3448 0.0000
0.2069 1.3793 0.0000
0.2069 1.4138 0.0000
0.2069 1.4483 0.0000
0.2069 1.4828 0.0000
0.2069 1.5172 0.0000
0.2069 1.5517 0.0000
0.2069 1.5862 0.0000
0.2069 1.6207 0.0000
0.2069 1.6552 0.0000
0.2069 1.6897 0.0000
0.2069 1.7241 0.0000
0.2069 1.7586 0.0000
0.2069 1.7931 0.0000
0.2069 1.8276 0.0000
0.2069 1.8621 0.0000
0.2069 1.8966 0.0000
0.2069 1.9310 0.0000
0.2069 1.9655 0.0000
0.2069 2.0000 0.0000
0.2759 1.0000 0.0000
0.2759 1.0345 0.0000
0.2759 1.0690 0.0000
0.2759 1.1034 0.0000
0.2759 1.1379 0.0000
0.2759 1.1724 0.0000
0.2759 1.2069 0.0000
0.2759 1.2414 0.0000
0.2759 1.2759 0.0000
0.2759 1.3103 0.0000
0.2759 1.3448 0.0000
0.2759 1.3793 0.0000
0.2759 1.4138 0.0000
0.2759 1.4483 0.0000
0.2759 1.4828 0.0000
0.2759 1.5172 0.0000
0.2759 1.5517 0.0000
0.2759 1.5862 0.0000
0.2759 1.6207 0.0000
0.2759 1.6552 0.0000
0.2759 1.6897 0.0000
0.2759 1.7241 0.0000
0.2759 1.7586 0.0000
0.2759 1.7931 0.0000
0.2759 1.8276 0.0000
0.2759 1.8621 0.0000
0.2759 1.8966 0.0000
0.2759 1.9310 0.0000
0.2759 1.9655 0.0000
0.2759 2.0000 0.0000
0.3448 1.0000 0.0000
0.3448 1.0345 0.0000
0.3448 1.0690 0.0000
0.3448 1.1034 0.0000
0.3448 1.1379 0.0000
0.3448 1.1724 0.0000
0.3448 1.2069 0.0000
0.3448 1.2414 0.0000
0.3448 1.2759 0.0000
0.3448 1.3103 0.0000
0.3448 1.3448 0.0000
0.3448 1.3793 0.0000
0.3448 1.4138 0.0000
0.3448 1.4483 0.0000
0.3448 1.4828 0.0000
0.3448 1.5172 0.0000
0.3448 1.5517 0.0000
0.3448 1.5862 0.0000
0.3448 1.6207 0.0000
0.3448 1.6552 0.0000
0.3448 1.6897 0.0000
0.3448 1.7241 0.0000
0.3448 1.7586 0.0000
0.3448 1.7931 0.0000
0.3448 1.8276 0.0000
0.3448 1.8621 0.0000
0.3448 1.8966 0.0000
0.3448 1.9310 0.0000
0.3448 1.9655 0.0000
0.3448 2.0000 0.0000
0.4138 1.0000 0.0000
0.4138 1.0345 0.0000
0.4138 1.0690 0.0000
0.4138 1.1034 0.0000
0.4138 1.1379 0.0000
0.4138 1.1724 0.0000
0.4138 1.2069 0.0000
0.4138 1.2414 0.0000
0.4138 1.2759 0.0000
0.4138 1.3103 0.0000
0.4138 1.3448 0.0000
0.4138 1.3793 0.0000
0.4138 1.4138 0.0000
0.4138 1.4483 0.0000
0.4138 1.4828 0.0000
0.4138 1.5172 0.0000
0.4138 1.5517 0.0000
0.4138 1.5862 0.0000
0.4138 1.6207 0.0000
0.4138 1.6552 0.0000
0.4138 1.6897 0.0000
0.4138 1.7241 0.0000
0.4138 1.7586 0.0000
0.4138 1.7931 0.0000
0.4138 1.8276 0.0000
0.4138 1.8621 0.0000
0.4138 1.8966 0.0000
0.4138 1.9310 0.0000
0.4138 1.9655 0.0000
0.4138 2.0000 0.0000
0.4828 1.0000 0.0000
0.4828 1.0345 0.0000
0.4828 1.0690 0.0000
0.4828 1.1034 0.0000
0.4828 1.1379 0.0000
0.4828 1.1724 0.0000
0.4828 1.2069 0.0000
0.4828 1.2414 0.0000
0.4828 1.2759 0.0000
0.4828 1.3103 0.0000
0.4828 1.3448 0.0000
0.4828 1.3793 0.0000
0.4828 1.4138 0.0000
0.4828 1.4483 0.0000
0.4828 1.4828 0.0000
0.4828 1.5172 0.0000
0.4828 1.5517 0.0000
0.4828 1.5862 0.0000
0.4828 1.6207 0.0000
0.4828 1.6552 0.0000
0.4828 1.6897 0.0000
0.4828 1.7241 0.0000
0.4828 1.7586 0.0000
0.4828 1.7931 0.0000
0.4828 1.8276 0.0000
0.4828 1.8621 0.0000
0.4828 1.8966 0.0000
0.4828 1.9310 0.0000
0.4828 1.9655 0.0000
0.4828 2.0000 0.0000
0.5517 1.0000 0.0000
0.5517 1.0345 0.0000
0.5517 1.0690 0.0000
0.5517 1.1034 0.0000
0.5517 1.1379 0.0000
0.5517 1.1724 0.0000
0.5517 1.2069 0.0000
0.5517 1.2414 0.0000
0.5517 1.2759 0.0000
0.5517 1.3103 0.0000
0.5517 1.3448 0.0000
0.5517 1.3793 0.0000
0.5517 1.4138 0.0000
0.5517 1.4483 0.0000
0.5517 1.4828 0.0000
0.5517 1.5172 0.0000
0.5517 1.5517 0.0000
0.5517 1.5862 0.0000
0.5517 1.6207 0.0000
0.5517 1.6552 0.0000
0.5517 1.6897 0.0000
0.5517 1.7241 0.0000
0.5517 1.7586 0.0000
0.5517 1.7931 0.0000
0.5517 1.8276 0.0000
0.5517 1.8621 0.0000
0.5517 1.8966 0.0000
0.5517 1.9310 0.0000
0.5517 1.9655 0.0000
0.5517 2.0000 0.0000
0.6207 1.0000 0.0000
0.6207 1.0345 0.0000
0.6207 1.0690 0.0000
0.6207 1.1034 0.0000
0.6207 1.1379 0.0000
0.6207 1.1724 0.0000
0.6207 1.2069 0.0000
0.6207 1.2414 0.0000
0.6207 1.2759 0.0000
0.6207 1.3103 0.0000
0.6207 1.3448 0.0000
0.6207 1.3793 0.0000
0.6207 1.4138 0.0000
0.6207 1.4483 0.0000
0.6207 1.4828 0.0000
0.6207 1.5172 0.0000
0.6207 1.5517 0.0000
0.6207 1.5862 0.0000
0.6207 1.6207 0.0000
0.6207 1.6552 0.0000
0.6207 1.6897 0.0000
0.6207 1.7241 0.0000
0.6207 1.7586 0.0000
0.6207 1.7931 0.0000
0.6207 1.8276 0.0000
0.6207 1.8621 0.0000
0.6207 1.8966 0.0000
0.6207 1.9310 0.0000
0.6207 1.9655 0.0000
0.6207 2.0000 0.0000
0.6897 1.0000 0.0000
0.6897 1.0345 0.0000
0.6897 1.0690 0.0000
0.6897 1.1034 0.0000
0.6897 1.1379 0.0000
0.6897 1.1724 0.0000
0.6897 1.2069 0.0000
0.6897 1.2414 0.0000
0.6897 1.2759 0.0000
0.6897 1.3103 0.0000
0.6897 1.3448 0.0000
0.6897 1.3793 0.0000
0.6897 1.4138 0.0000
0.6897 1.4483 0.0000
0.6897 1.4828 0.0000
0.6897 1.5172 0.0000
0.6897 1.5517 0.0000
0.6897 1.5862 0.0000
0.6897 1.6207 0.0000
0.6897 1.6552 0.0000
0.6897 1.6897 0.0000
0.6897 1.7241 0.0000
0.6897 1.7586 0.0000
0.6897 1.7931 0.0000
0.6897 1.8276 0.0000
0.6897 1.8621 0.0000
0.6897 1.8966 0.0000
0.6897 1.9310 0.0000
0.6897 1.9655 0.0000
0.6897 2.0000 0.0000
0.7586 1.0000 0.0000
0.7586 1.0345 0.0000
0.7586 1.0690 0.0000
0.7586 1.1034 0.0000
0.7586 1.1379 0.0000
0.7586 1.1724 0.0000
0.7586 1.2069 0.0000
0.7586 1.2414 0.0000
0.7586 1.2759 0.0000
0.7586 1.3103 0.0000
0.7586 1.3448 0.0000
0.7586 1.3793 0.0000
0.7586 1.4138 0.0000
0.7586 1.4483 0.0000
0.7586 1.4828 0.0000
0.7586 1.5172 0.0000
0.7586 1.5517 0.0000
0.7586 1.5862 0.0000
0.7586 1.6207 0.0000
0.7586 1.6552 0.0000
0.7586 1.6897 0.0000
0.7586 1.7241 0.0000
0.7586 1.7586 0.0000
0.7586 1.7931 0.0000
0.7586 1.8276 0.0000
0.7586 1.8621 0.0000
0.7586 1.8966 0.0000
0.7586 1.9310 0.0000
0.7586 1.9655 0.0000
0.7586 2.0000 0.0000
0.8276 1.0000 0.0000
0.8276 1.0345 0.0000
0.8276 1.0690 0.0000
0.8276 1.1034 0.0000
0.8276 1.1379 0.0000
0.8276 1.1724 0.0000
0.8276 1.2069 0.0000
0.8276 1.2414 0.0000
0.8276 1.2759 0.0000
0.8276 1.3103 0.0000
0.8276 1.3448 0.0000
0.8276 1.3793 0.0000
0.8276 1.4138 0.0000
0.8276 1.4483 0.0000
0.8276 1.4828 0.0000
0.8276 1.5172 0.0000
0.8276 1.5517 0.0000
0.8276 1.5862 0.0000
0.8276 1.6207 0.0000
0.8276 1.6552 0.0000
0.8276 1.6897 0.0000
0.8276 1.7241 0.0000
0.8276 1.7586 0.0000
0.8276 1.7931 0.0000
0.8276 1.8276 0.0000
0.8276 1.8621 0.0000
0.8276 1.8966 0.0000
0.8276 1.9310 0.0000
0.8276 1.9655 0.0000
0.8276 2.0000 0.0000
0.8966 1.0000 0.0000
0.8966 1.0345 0.0000
0.8966 1.0690 0.0000
0.8966 1.1034 0.0000
0.8966 1.1379 0.0000
0.8966 1.1724 0.0000
0.8966 1.2069 0.0000
0.8966 1.2414 0.0000
0.8966 1.2759 0.0000
0.8966 1.3103 0.0000
0.8966 1.3448 0.0000
0.8966 1.3793 0.0000
0.8966 1.4138 0.0000
0.8966 1.4483 0.0000
0.8966 1.4828 0.0000
0.8966 1.5172 0.0000
0.8966 1.5517 0.0000
0.8966 1.5862 0.0000
0.8966 1.6207 0.0000
0.8966 1.6552 0.0000
0.8966 1.6897 0.0000
0.8966 1.7241 0.0000
0.8966 1.7586 0.0000
0.8966 1.7931 0.0000
0.8966 1.8276 0.0000
0.8966 1.8621 0.0000
0.8966 1.8966 0.0000
0.8966 1.9310 0.0000
0.8966 1.9655 0.0000
0.8966 2.0000 0.0000
0.9655 1.0000 0.0000
0.9655 1.0345 0.0000
0.9655 1.0690 0.0000
0.9655 1.1034 0.0000
0.9655 1.1379 0.0000
0.9655 1.1724 0.0000
0.9655 1.2069 0.0000
0.9655 1.2414 0.0000
0.9655 1.2759 0.0000
0.9655 1.3103 0.0000
0.9655 1.3448 0.0000
0.9655 1.3793 0.0000
0.9655 1.4138 0.0000
0.9655 1.4483 0.0000
0.9655 1.4828 0.0000
0.9655 1.5172 0.0000
0.9655 1.5517 0.0000
0.9655 1.5862 0.0000
0.9655 1.6207 0.0000
0.9655 1.6552 0.0000
0.9655 1.6897 0.0000
0.9655 1.7241 0.0000
0.9655 1.7586 0.0000
0.9655 1.7931 0.0000
0.9655 1.8276 0.0000
0.9655 1.8621 0.0000
0.9655 1.8966 0.0000
0.9655 1.9310 0.0000
0.9655 1.9655 0.0000
0.9655 2.0000 0.0000
1.0345 1.0000 0.0000
1.0345 1.0345 0.0000
1.0345 1.0690 0.0000
1.0345 1.1034 0.0000
1.0345 1.1379 0.0000
1.0345 1.1724 0.0000
1.0345 1.2069 0.0000
1.0345 1.2414 0.0000
1.0345 1.2759 0.0000
1.0345 1.3103 0.0000
1.0345 1.3448 0.0000
[...]
         <PointData>
            <DataArray Name="fValues" NumberOfComponents="3" format="ascii" type="Float64">
 2.96826e-26  8.66740e-27        00000 
-4.29010e-26 -1.28064e-26        00000 
 8.45933e-26  2.62611e-26        00000 
-1.58574e-25 -5.08791e-26        00000 
 2.66781e-25  8.63104e-26        00000 
-4.15212e-25 -1.27530e-25        00000 
 5.31001e-25  1.65378e-25        00000 
-6.06688e-25 -1.90252e-25        00000 
 5.89472e-25  1.96148e-25        00000 
-4.84381e-25 -1.82335e-25        00000 
 3.38403e-25  1.52743e-25        00000 
-2.04988e-25 -1.14519e-25        00000 
 1.11674e-25  7.60499e-26        00000 
-5.70031e-26 -4.42702e-26        00000 
 2.77563e-26  2.24208e-26        00000 
-1.26733e-26 -9.85088e-27        00000 
 5.25736e-27  3.76567e-27        00000 
-1.94217e-27 -1.26393e-27        00000 
 6.39139e-28  3.78021e-28        00000 
-1.90119e-28 -1.02575e-28        00000 
 5.20501e-29  2.57118e-29        00000 
-1.33159e-29 -6.04819e-30        00000 
 3.22376e-30  1.35227e-30        00000 
-7.46769e-31 -2.90281e-31        00000 
 1.66878e-31  6.02960e-32        00000 
-3.61554e-32 -1.21934e-32        00000 
 7.61884e-33  2.41224e-33        00000 
-1.56801e-33 -4.69134e-34        00000 
 3.26888e-34  9.27991e-35        00000 
-1.24268e-34 -3.38583e-35        00000 
-6.41018e-26 -1.84218e-26        00000 
 1.00775e-25  2.94436e-26        00000 
-2.20686e-25 -6.70524e-26        00000 
 4.40684e-25  1.40422e-25        00000 
-7.66610e-25 -2.51840e-25        00000 
 1.18725e-24  3.85833e-25        00000 
-1.64859e-24 -5.10229e-25        00000 
 1.92768e-24  5.91222e-25        00000 
-1.86920e-24 -6.09326e-25        00000 
 1.49545e-24  5.63607e-25        00000 
-9.93356e-25 -4.67259e-25        00000 
 5.66108e-25  3.43427e-25        00000 
-2.94178e-25 -2.20365e-25        00000 
 1.46979e-25  1.21752e-25        00000 
-7.04779e-26 -5.74431e-26        00000 
 3.09765e-26  2.31320e-26        00000 
-1.19817e-26 -8.01886e-27        00000 
 4.04759e-27  2.43489e-27        00000 
-1.21699e-27 -6.62710e-28        00000 
 3.34090e-28  1.65478e-28        00000 
-8.53122e-29 -3.86479e-29        00000 
 2.05518e-29  8.56927e-30        00000 
-4.73304e-30 -1.82409e-30        00000 
 1.05212e-30  3.75899e-31        00000 
-2.26847e-31 -7.54685e-32        00000 
 4.75556e-32  1.48331e-32        00000 
-9.71952e-33 -2.86491e-33        00000 
 1.94568e-33  5.45936e-34        00000 
-3.95484e-34 -1.06050e-34        00000 
 1.47504e-34  3.81597e-35        00000 
 2.24480e-25  6.34495e-26        00000 
-3.98811e-25 -1.14094e-25        00000 
 1.02995e-24  3.01293e-25        00000 
-2.26693e-24 -7.04848e-25        00000 
 4.13224e-24  1.36871e-24        00000 
-6.57045e-24 -2.20572e-24        00000 
 9.77158e-24  2.99229e-24        00000 
-1.17332e-23 -3.49347e-24        00000 
 1.13676e-23  3.59384e-24        00000 
-8.75293e-24 -3.30544e-24        00000 
 5.37734e-24  2.70953e-24        00000 
-2.81706e-24 -1.94233e-24        00000 
 1.40445e-24  1.18869e-24        00000 
-6.99503e-25 -6.09257e-25        00000 
 3.29210e-25  2.59228e-25        00000 
-1.34358e-25 -9.19635e-26        00000 
 4.61360e-26  2.77278e-26        00000 
-1.36800e-26 -7.32923e-27        00000 
 3.65835e-27  1.75592e-27        00000 
-9.05013e-28 -3.91519e-28        00000 
 2.10132e-28  8.28173e-29        00000 
-4.66441e-29 -1.68456e-29        00000 
 1.00323e-29  3.32671e-30        00000 
-2.09832e-30 -6.42213e-31        00000 
 4.26485e-31  1.21799e-31        00000 
-8.43978e-32 -2.27770e-32        00000 
 1.63359e-32  4.21155e-33        00000 
-3.11326e-33 -7.72318e-34        00000 
 6.04956e-34  1.44809e-34        00000 
-2.17973e-34 -5.06708e-35        00000 
-7.20469e-25 -1.99846e-25        00000 
 1.45975e-24  4.12392e-25        00000 
-4.53153e-24 -1.29617e-24        00000 
 1.20014e-23  3.48961e-24        00000 
-2.27465e-23 -7.52061e-24        00000 
 3.73723e-23  1.29419e-23        00000 
-5.98581e-23 -1.81001e-23        00000 
 7.34962e-23  2.12461e-23        00000 
-7.20290e-23 -2.17507e-23        00000 
 5.26047e-23  1.99087e-23        00000 
-2.85004e-23 -1.61737e-23        00000 
 1.37716e-23  1.12737e-23        00000 
-6.85074e-24 -6.49326e-24        00000 
 3.51685e-24  3.01388e-24        00000 
-1.57571e-24 -1.12102e-24        00000 
 5.62974e-25  3.40239e-25        00000 
-1.65274e-25 -8.78419e-26        00000 
 4.32210e-26  2.02646e-26        00000 
-1.04412e-26 -4.32870e-27        00000 
 2.34448e-27  8.76570e-28        00000 
-5.02740e-28 -1.70910e-28        00000 
 1.05166e-28  3.24213e-29        00000 
-2.14700e-29 -6.02695e-30        00000 
 4.24386e-30  1.10347e-30        00000 
-8.13370e-31 -1.99709e-31        00000 
 1.52195e-31  3.58224e-32        00000 
-2.80580e-32 -6.38104e-33        00000 
 5.13174e-33  1.13141e-33        00000 
-9.61697e-34 -2.05494e-34        00000 
 3.37024e-34  7.00696e-35        00000 
 1.97284e-24  5.29312e-25        00000 
-4.57093e-24 -1.26621e-24        00000 
 1.72023e-23  4.90031e-24        00000 
-5.62593e-23 -1.60004e-23        00000 
 1.42067e-22  4.00948e-23        00000 
-1.80661e-22 -7.58760e-23        00000 
 4.08288e-22  1.10514e-22        00000 
-4.19208e-22 -1.29839e-22        00000 
 5.02809e-22  1.31425e-22        00000 
-2.96562e-22 -1.20035e-22        00000 
 1.41690e-22  9.71863e-23        00000 
-6.29934e-23 -6.54234e-23        00000 
 3.48103e-23  3.45144e-23        00000 
-1.83043e-23 -1.38551e-23        00000 
 7.06738e-24  4.26923e-24        00000 
-2.02875e-24 -1.06716e-24        00000 
 5.12355e-25  2.34527e-25        00000 
-1.21521e-25 -4.76065e-26        00000 
 2.62067e-26  9.18457e-27        00000 
-5.38667e-27 -1.71309e-27        00000 
 1.09904e-27  3.12208e-28        00000 
-2.20736e-28 -5.59797e-29        00000 
 4.24675e-29  9.92047e-30        00000 
-7.86098e-30 -1.74310e-30        00000 
 1.41640e-30  3.04345e-31        00000 
-2.52789e-31 -5.28888e-32        00000 
 4.49952e-32  9.15870e-33        00000 
-8.00989e-33 -1.58308e-33        00000 
 1.46697e-33  2.80678e-34        00000 
-5.05040e-34 -9.38296e-35        00000 
-4.47533e-24 -1.14008e-24        00000 
 1.18223e-23  3.12563e-24        00000 
-5.33442e-23 -1.48824e-23        00000 
 2.18970e-22  6.32907e-23        00000 
-7.14156e-22 -2.00761e-22        00000 
 1.76188e-21  4.42616e-22        00000 
-3.13757e-21 -6.85814e-22        00000 
 3.93370e-21  7.98321e-22        00000 
-2.85900e-21 -7.86814e-22        00000 
 1.68667e-21  7.23533e-22        00000 
-5.76641e-22 -5.92148e-22        00000 
 2.84879e-22  3.78942e-22        00000 
-2.01522e-22 -1.73208e-22        00000 
 9.31803e-23  5.52130e-23        00000 
-2.54219e-23 -1.30990e-23        00000 
 5.96516e-24  2.68700e-24        00000 
-1.42653e-24 -5.10572e-25        00000 
 2.90407e-25  9.29065e-26        00000 
-5.59676e-26 -1.64744e-26        00000 
 1.11819e-26  2.87471e-27        00000 
-2.25107e-27 -4.96495e-28        00000 
 4.18764e-28  8.51761e-29        00000 
-7.40592e-29 -1.45477e-29        00000 
 1.26631e-29  2.47737e-30        00000 
-2.18289e-30 -4.21065e-31        00000 
 3.80015e-31  7.14773e-32        00000 
-6.65560e-32 -1.21246e-32        00000 
 1.16984e-32  2.05746e-33        00000 
-2.11675e-33 -3.58528e-34        00000 
 7.21158e-34  1.18167e-34        00000 
 8.36171e-24  1.95197e-24        00000 
-2.41046e-23 -5.96242e-24        00000 
 1.30497e-22  3.36338e-23        00000 
-6.51720e-22 -1.83577e-22        00000 
 2.89044e-21  8.63068e-22        00000 
-9.08102e-21 -2.52770e-21        00000 
 1.96649e-20  4.39926e-21        00000 
-2.66335e-20 -4.96795e-21        00000 
 2.34691e-20  4.57095e-21        00000 
-7.15001e-21 -4.36453e-21        00000 
 1.34890e-21  3.73231e-21        00000 
-1.71208e-21 -2.16621e-21        00000 
 1.34472e-21  7.52391e-22        00000 
-3.34063e-22 -1.62217e-22        00000 
 6.38259e-23  3.00312e-23        00000 
-1.73392e-23 -5.23052e-24        00000 
 3.18612e-24  8.86697e-25        00000 
-5.45336e-25 -1.48471e-25        00000 
 1.07994e-25  2.47256e-26        00000 
-2.32680e-26 -4.10943e-27        00000 
 4.04594e-27  6.82813e-28        00000 
-6.70894e-28 -1.13525e-28        00000 
 1.04434e-28  1.88949e-29        00000 
-1.75087e-29 -3.14879e-30        00000 
 3.02557e-30  5.25430e-31        00000 
-5.28261e-31 -8.77928e-32        00000 
 9.24540e-32  1.46882e-32        00000 
-1.61828e-32 -2.46226e-33        00000 
 2.90760e-33  4.24236e-34        00000 
-9.83096e-34 -1.38538e-34        00000 
-1.32615e-23 -2.60615e-24        00000 
 3.92956e-23  8.53094e-24        00000 
-2.23895e-22 -5.38346e-23        00000 
 1.47770e-21  3.50285e-22        00000 
-7.82155e-21 -2.25013e-21        00000 
 4.09370e-20  1.29854e-20        00000 
-1.12087e-19 -3.02583e-20        00000 
 2.02108e-19  3.20734e-20        00000 
-1.29302e-19 -2.36878e-20        00000 
 1.14202e-20  2.67771e-20        00000 
 8.38707e-21 -2.55323e-20        00000 
 2.22742e-20  1.13148e-20        00000 
-5.04179e-21 -1.99937e-21        00000 
 4.21048e-22  3.16013e-22        00000 
-2.39472e-22 -4.91026e-23        00000 
 3.43384e-23  7.66279e-24        00000 
-4.54656e-24 -1.20690e-24        00000 
 9.02171e-25  1.91904e-25        00000 
-2.66950e-25 -3.07754e-26        00000 
 3.70430e-26  4.97166e-27        00000 
-5.80523e-27 -8.08136e-28        00000 
 6.95835e-28  1.32048e-28        00000 
-1.24731e-28 -2.16716e-29        00000 
 2.25080e-29  3.57009e-30        00000 
-4.00931e-30 -5.90013e-31        00000 
 7.06477e-31  9.77798e-32        00000 
-1.23517e-31 -1.62441e-32        00000 
 2.14905e-32  2.70634e-33        00000 
-3.82739e-33 -4.63649e-34        00000 
 1.28284e-33  1.50711e-34        00000 
 1.86682e-23  2.65436e-24        00000 
-5.59349e-23 -8.85540e-24        00000 
 3.08359e-22  5.81090e-23        00000 
-1.62559e-21 -4.07858e-22        00000 
 1.74008e-20  3.06236e-21        00000 
-8.22331e-20 -2.53623e-20        00000 
 6.83834e-19  2.34469e-19        00000 
-1.12740e-18 -2.46521e-19        00000 
 2.14122e-18  4.37449e-20        00000 
 1.26123e-18 -1.93071e-19        00000 
 4.20057e-19  2.04399e-19        00000 
-1.07330e-19 -2.28543e-20        00000 
-1.04664e-20  2.82560e-21        00000 
-4.64703e-21 -3.82043e-22        00000 
 3.22461e-22  5.48801e-23        00000 
-2.34390e-23 -8.20889e-24        00000 
 2.41004e-24  1.26228e-24        00000 
-4.30660e-24 -1.97919e-25        00000 
 2.25739e-25  3.14749e-26        00000 
-5.35053e-26 -5.05875e-27        00000 
 3.68454e-28  8.19702e-28        00000 
-7.99104e-28 -1.33675e-28        00000 
 1.64619e-28  2.19118e-29        00000 
-3.01598e-29 -3.60687e-30        00000 
 5.32867e-30  5.95804e-31        00000 
-9.26404e-31 -9.87090e-32        00000 
 1.59685e-31  1.63951e-32        00000 
-2.74076e-32 -2.73109e-33        00000 
 4.81727e-33  4.67829e-34        00000 
-1.59708e-33 -1.52052e-34        00000 
-2.37630e-23 -2.00113e-24        00000 
 7.31651e-23  6.31206e-24        00000 
-4.26283e-22 -3.82967e-23        00000 
 2.38048e-21  2.44236e-22        00000 
 6.08988e-21 -1.64777e-21        00000 
 1.47784e-19  1.28301e-20        00000 
-1.03447e-18 -1.49295e-19        00000 
 1.64668e-17  5.60437e-18        00000 
 9.98282e-03  5.12995e-18        00000 
 1.63767e-17  4.89498e-18        00000 
-1.49969e-18 -1.46929e-19        00000 
 1.88560e-19  1.33328e-20        00000 
-2.10805e-20 -1.71554e-21        00000 
 3.30414e-21  2.50760e-22        00000 
-6.55862e-22 -3.86841e-23        00000 
 9.53170e-23  6.12941e-24        00000 
-4.81839e-24 -9.86121e-25        00000 
 2.43587e-24  1.60203e-25        00000 
-5.02007e-25 -2.62031e-26        00000 
 7.09999e-26  4.30743e-27        00000 
-1.08296e-26 -7.10861e-28        00000 
 1.45766e-27  1.17686e-28        00000 
-2.42240e-28 -1.95345e-29        00000 
 4.08454e-29  3.24971e-30        00000 
-6.89434e-30 -5.41652e-31        00000 
 1.16316e-30  9.04323e-32        00000 
-1.96155e-31 -1.51209e-32        00000 
 3.30975e-32  2.53356e-33        00000 
-5.73411e-33 -4.36304e-34        00000 
 1.88025e-33  1.42412e-34        00000 
 2.69035e-23  1.08543e-24        00000 
-8.48455e-23 -2.79653e-24        00000 
 5.13040e-22  1.09895e-23        00000 
-3.61946e-21 -1.35050e-23        00000 
 4.92683e-20 -5.07715e-22        00000 
-6.41077e-20  1.09042e-20        00000 
 1.03800e-18 -2.08583e-19        00000 
-9.98282e-03 -3.88734e-18        00000 
 8.54322e-01  2.17741e-17        00000 
-9.98282e-03  5.99682e-18        00000 
 1.18419e-18 -1.61459e-19        00000 
-1.94985e-19  7.61033e-21        00000 
 3.97419e-20 -2.24513e-22        00000 
-4.72260e-21 -3.97057e-23        00000 
 7.06041e-22  1.33814e-23        00000 
-1.15164e-22 -2.89414e-24        00000 
 3.93968e-23  5.53183e-25        00000 
-3.22717e-24 -1.00281e-25        00000 
 4.63509e-25  1.76920e-26        00000 
-7.66942e-26 -3.07354e-27        00000 
 1.23076e-26  5.28994e-28        00000 
-1.96220e-27 -9.05113e-29        00000 
 3.07668e-28  1.54274e-29        00000 
-4.96652e-29 -2.62292e-30        00000 
 8.13609e-30  4.45193e-31        00000 
-1.34356e-30 -7.54796e-32        00000 
 2.22964e-31  1.27882e-32        00000 
-3.71505e-32 -2.16736e-33        00000 
 6.36898e-33  3.77147e-34        00000 
-2.07193e-33 -1.24133e-34        00000 
-2.84743e-23 -4.76070e-25        00000 
 8.15555e-23  8.13713e-25        00000 
-5.07826e-22  8.72325e-25        00000 
 2.55307e-21 -5.11082e-23        00000 
 2.92897e-21  6.99855e-22        00000 
 4.04486e-20 -7.35369e-21        00000 
-2.11344e-19  4.83322e-20        00000 
-6.93007e-18  3.10348e-18        00000 
 9.98282e-03  5.35023e-18        00000 
 2.71846e-18  2.39410e-18        00000 
-5.50779e-19  5.06987e-20        00000 
 1.11720e-19 -6.85100e-21        00000 
-1.44310e-20  6.32086e-22        00000 
 3.95130e-21 -4.45811e-23        00000 
-6.58641e-22  4.68696e-25        00000 
 1.13864e-22  7.41344e-25        00000 
 3.95568e-24 -2.23590e-25        00000 
 2.00524e-24  4.99177e-26        00000 
-3.93128e-25 -9.97343e-27        00000 
 6.81394e-26  1.88499e-27        00000 
-1.15605e-26 -3.45002e-28        00000 
 1.92353e-27  6.18777e-29        00000 
-3.16390e-28 -1.09488e-29        00000 
 5.16684e-29  1.91909e-30        00000 
-8.46671e-30 -3.34097e-31        00000 
 1.39388e-30  5.78728e-32        00000 
-2.30428e-31 -9.98735e-33        00000 
 3.82511e-32  1.72000e-33        00000 
-6.53477e-33 -3.03711e-34        00000 
 2.11996e-33  1.01141e-34        00000 
 2.91026e-23  3.37115e-25        00000 
-9.46777e-23 -8.18483e-25        00000 
 2.82861e-22  3.93443e-24        00000 
-3.55909e-21 -2.91960e-23        00000 
 1.19071e-20  3.77816e-22        00000 
-3.13386e-20 -6.33493e-21        00000 
-5.74341e-19  1.10012e-19        00000 
 4.15842e-19 -2.30293e-20        00000 
 4.72534e-19 -1.87674e-19        00000 
-2.33729e-19  3.04208e-20        00000 
 2.48810e-19  7.99425e-20        00000 
-5.51952e-20 -3.82691e-21        00000 
 2.46435e-20  1.41055e-22        00000 
-2.63219e-21 -3.38534e-24        00000 
 6.56321e-22  7.31607e-25        00000 
-1.16940e-22 -3.44847e-25        00000 
 1.28403e-23  1.03660e-25        00000 
-1.88743e-24 -2.50392e-26        00000 
 3.41890e-25  5.39323e-27        00000 
-5.87475e-26 -1.08601e-27        00000 
 9.93764e-27  2.09501e-28        00000 
-1.67356e-27 -3.92610e-29        00000 
 2.80484e-28  7.20884e-30        00000 
-4.67998e-29 -1.30407e-30        00000 
 7.78413e-30  2.33285e-31        00000 
-1.29429e-30 -4.13772e-32        00000 
 2.15430e-31  7.29040e-33        00000 
-3.59385e-32 -1.27885e-33        00000 
 6.16366e-33  2.29708e-34        00000 
-2.00527e-33 -7.75623e-35        00000 
-1.53486e-23 -4.07864e-25        00000 
 3.59945e-23  1.38500e-24        00000 
-2.03929e-22 -9.96540e-24        00000 
 6.82689e-22  8.08584e-23        00000 
-2.83168e-22 -6.85251e-22        00000 
-2.27027e-20  5.20374e-21        00000 
 5.97107e-20 -9.24461e-21        00000 
-3.54085e-20 -1.54451e-21        00000 
-3.89545e-20  1.44173e-20        00000 
 4.82343e-20 -6.84079e-21        00000 
-3.34845e-20 -4.51852e-21        00000 
 1.69565e-20  3.53313e-21        00000 
-5.37512e-21 -4.34490e-22        00000 
 1.57997e-21  4.65910e-23        00000 
-2.87402e-22 -5.26057e-24        00000 
 6.03750e-23  6.89636e-25        00000 
-2.13822e-23 -1.07757e-25        00000 
 2.17769e-24  1.91161e-26        00000 
-2.98002e-25 -3.60220e-27        00000 
 4.72354e-26  6.90201e-28        00000 
-7.83620e-27 -1.31771e-28        00000 
 1.31995e-27  2.48847e-29        00000 
-2.23513e-28 -4.64136e-30        00000 
 3.78723e-29  8.55558e-31        00000 
-6.40848e-30 -1.56077e-31        00000 
 1.08249e-30  2.82198e-32        00000 
-1.82641e-31 -5.06400e-33        00000 
 3.08222e-32  9.03742e-34        00000 
-5.34036e-33 -1.65080e-34        00000 
 1.75133e-33  5.65257e-35        00000 
 5.80355e-24  4.07862e-25        00000 
-1.33081e-23 -1.37664e-24        00000 
 3.55529e-23  8.96373e-24        00000 
 3.12708e-23 -5.73568e-23        00000 
-1.14006e-21  3.09784e-22        00000 
 4.43186e-21 -8.21145e-22        00000 
-7.05959e-21  8.32923e-22        00000 
 3.94214e-21  3.45178e-22        00000 
-1.49195e-21 -1.43991e-21        00000 
-6.42774e-21  9.48599e-22        00000 
 5.51863e-21  1.65971e-22        00000 
-3.17506e-21 -4.59649e-22        00000 
 1.35053e-21  1.99107e-22        00000 
-4.39988e-22 -3.60001e-23        00000 
 1.19469e-22  5.38294e-24        00000 
-2.58533e-23 -7.75305e-25        00000 
-1.28387e-24  1.14641e-25        00000 
-8.83218e-25 -1.78981e-26        00000 
 1.75259e-25  2.96250e-27        00000 
-3.05247e-26 -5.14182e-28        00000 
 5.28289e-27  9.20863e-29        00000 
-9.16055e-28 -1.67755e-29        00000 
 1.58898e-28  3.07728e-30        00000 
-2.75287e-29 -5.64902e-31        00000 
 4.75826e-30  1.03421e-31        00000 
-8.20124e-31 -1.88518e-32        00000 
 1.40958e-31  3.41927e-33        00000 
-2.41872e-32 -6.17615e-34        00000 
 4.25584e-33  1.14320e-34        00000 
-1.41306e-33 -3.96110e-35        00000 
-1.55613e-24 -2.90688e-25        00000 
 1.73424e-24  8.73243e-25        00000 
 6.37615e-24 -4.62228e-24        00000 
-8.41169e-23  2.12256e-23        00000 
 3.44443e-22 -6.44882e-23        00000 
-7.68638e-22  1.11649e-22        00000 
 9.78247e-22 -8.15272e-23        00000 
-6.62892e-22 -5.32257e-23        00000 
-6.00292e-22  1.64359e-22        00000 
 7.57950e-22 -1.28014e-22        00000 
-8.99547e-22  1.21391e-23        00000 
 5.99282e-22  4.79754e-23        00000 
-2.92541e-22 -3.69360e-23        00000 
 1.13687e-22  1.31504e-23        00000 
-3.72866e-23 -2.85299e-24        00000 
 1.00475e-23  5.13449e-25        00000 
-6.07254e-25 -8.58742e-26        00000 
 1.21516e-25  1.40760e-26        00000 
-6.14109e-26 -2.32371e-27        00000 
 1.45010e-26  3.91238e-28        00000 
-2.88468e-27 -6.73943e-29        00000 
 5.41355e-28  1.18481e-29        00000 
-9.89760e-29 -2.11523e-30        00000 
 1.78337e-29  3.81447e-31        00000 
-3.18227e-30 -6.91676e-32        00000 
 5.63694e-31  1.25684e-32        00000 
-9.92558e-32 -2.28325e-33        00000 
 1.74041e-32  4.14463e-34        00000 
-3.12485e-33 -7.73068e-35        00000 
 1.05467e-33  2.70015e-35        00000 
 4.66581e-26  1.51889e-25        00000 
 8.41055e-25 -3.86751e-25        00000 
-8.13852e-24  1.57461e-24        00000 
 4.97920e-23 -5.02944e-24        00000 
-3.78867e-22  1.10000e-23        00000 
 3.88130e-22 -1.48204e-23        00000 
-6.57986e-22  8.51262e-24        00000 
 3.30548e-22  7.74615e-24        00000 
-5.01415e-23 -2.03370e-23        00000 
-3.99654e-22  1.75496e-23        00000 
 5.91605e-22 -4.81470e-24        00000 
-2.49926e-22 -4.36790e-24        00000 
 8.49863e-23  5.41985e-24        00000 
-2.92079e-23 -2.88560e-24        00000 
 3.02022e-23  9.51207e-25        00000 
-2.16356e-24 -2.26809e-25        00000 
 1.12136e-24  4.58168e-26        00000 