<?xml version="1.0" encoding="utf-8"?>
<VTKFile byte_order="LittleEndian" type="UnstructuredGrid" version="0.1">
   <UnstructuredGrid>
      <Piece NumberOfCells="3364" NumberOfPoints="1741">
         <Points>
            <DataArray Name="Points" NumberOfComponents="3" format="ascii" type="Float32">
0.0000 1.0000 0.0000
0.0000 1.0345 0.0000
0.0000 1.0690 0.0000
0.0000 1.1034 0.0000
0.0000 1.1379 0.0000
0.0000 1.1724 0.0000
0.0000 1.2069 0.0000
0.0000 1.2414 0.0000
0.0000 1.2759 0.0000
0.0000 1.3103 0.0000
0.0000 1.3448 0.0000
0.0000 1.3793 0.0000
0.0000 1.4138 0.0000
0.0000 1.4483 0.0000
0.0000 1.4828 0.0000
0.0000 1.5172 0.0000
0.0000 1.5517 0.0000
0.0000 1.5862 0.0000
0.0000 1.6207 0.0000
0.0000 1.6552 0.0000
0.0000 1.6897 0.0000
0.0000 1.7241 0.0000
0.0000 1.7586 0.0000
0.0000 1.7931 0.0000
0.0000 1.8276 0.0000
0.0000 1.8621 0.0000
0.0000 1.8966 0.0000
0.0000 1.9310 0.0000
0.0000 1.9655 0.0000
0.0000 2.0000 0.0000
0.0690 1.0000 0.0000
0.0690 1.0345 0.0000
0.0690 1.0690 0.0000
0.0690 1.1034 0.0000
0.0690 1.1379 0.0000
0.0690 1.1724 0.0000
0.0690 1.2069 0.0000
0.0690 1.2414 0.0000
0.0690 1.2759 0.0000
0.0690 1.3103 0.0000
0.0690 1.3448 0.0000
0.0690 1.3793 0.0000
0.0690 1.4138 0.0000
0.0690 1.4483 0.0000
0.0690 1.4828 0.0000
0.0690 1.5172 0.0000
0.0690 1.5517 0.0000
0.0690 1.5862 0.0000
0.0690 1.6207 0.0000
0.0690 1.6552 0.0000
0.0690 1.6897 0.0000
0.0690 1.7241 0.0000
0.0690 1.7586 0.0000
0.0690 1.7931 0.0000
0.0690 1.8276 0.0000
0.0690 1.8621 0.0000
0.0690 1.8966 0.0000
0.0690 1.9310 0.0000
0.0690 1.9655 0.0000
0.0690 2.0000 0.0000
0.1379 1.0000 0.0000
0.1379 1.0345 0.0000
0.1379 1.0690 0.0000
0.1379 1.1034 0.0000
0.1379 1.1379 0.0000
0.1379 1.1724 0.0000
0.1379 1.2069 0.0000
0.1379 1.2414 0.0000
0.1379 1.2759 0.0000
0.1379 1.3103 0.0000
0.1379 1.3448 0.0000
0.1379 1.3793 0.0000
0.1379 1.4138 0.0000
0.1379 1.4483 0.0000
0.1379 1.4828 0.0000
0.1379 1.5172 0.0000
0.1379 1.5517 0.0000
0.1379 1.5862 0.0000
0.1379 1.6207 0.0000
0.1379 1.6552 0.0000
0.1379 1.6897 0.0000
0.1379 1.7241 0.0000
0.1379 1.7586 0.0000
0.1379 1.7931 0.0000
0.1379 1.8276 0.0000
0.1379 1.8621 0.0000
0.1379 1.8966 0.0000
0.1379 1.9310 0.0000
0.1379 1.9655 0.0000
0.1379 2.0000 0.0000
0.2069 1.0000 0.0000
0.2069 1.0345 0.0000
0.2069 1.0690 0.0000
0.2069 1.1034 0.0000
0.2069 1.1379 0.0000
0.2069 1.1724 0.0000
0.2069 1.2069 0.0000
0.2069 1.2414 0.0000
0.2069 1.2759 0.0000
0.2069 1.3103 0.0000
0.2069 1.3448 0.0000
0.2069 1.3793 0.0000
0.2069 1.4138 0.0000
0.2069 1.4483 0.0000
0.2069 1.4828 0.0000
0.2069 1.5172 0.0000
0.2069 1.5517 0.0000
0.2069 1.5862 0.0000
0.2069 1.6207 0.0000
0.2069 1.6552 0.0000
0.2069 1.6897 0.0000
0.2069 1.7241 0.0000
0.2069 1.7586 0.0000
0.2069 1.7931 0.0000
0.2069 1.8276 0.0000
0.2069 1.8621 0.0000
0.2069 1.8966 0.0000
0.2069 1.9310 0.0000
0.2069 1.9655 0.0000
0.2069 2.0000 0.0000
0.2759 1.0000 0.0000
0.2759 1.0345 0.0000
0.2759 1.0690 0.0000
0.2759 1.1034 0.0000
0.2759 1.1379 0.0000
0.2759 1.1724 0.0000
0.2759 1.2069 0.0000
0.2759 1.2414 0.0000
0.2759 1.2759 0.0000
0.2759 1.3103 0.0000
0.2759 1.3448 0.0000
0.2759 1.3793 0.0000
0.2759 1.4138 0.0000
0.2759 1.4483 0.0000
0.2759 1.4828 0.0000
0.2759 1.5172 0.0000
0.2759 1.5517 0.0000
0.2759 1.5862 0.0000
0.2759 1.6207 0.0000
0.2759 1.6552 0.0000
0.2759 1.6897 0.0000
0.2759 1.7241 0.0000
0.2759 1.7586 0.0000
0.2759 1.7931 0.0000
0.2759 1.8276 0.0000
0.2759 1.8621 0.0000
0.2759 1.8966 0.0000
0.2759 1.9310 0.0000
0.2759 1.9655 0.0000
0.2759 2.0000 0.0000
0.3448 1.0000 0.0000
0.3448 1.0345 0.0000
0.3448 1.0690 0.0000
0.3448 1.1034 0.0000
0.3448 1.1379 0.0000
0.3448 1.1724 0.0000
0.3448 1.2069 0.0000
0.3448 1.2414 0.0000
0.3448 1.2759 0.0000
0.3448 1.3103 0.0000
0.3448 1.3448 0.0000
0.3448 1.3793 0.0000
0.3448 1.4138 0.0000
0.3448 1.4483 0.0000
0.3448 1.4828 0.0000
0.3448 1.5172 0.0000
0.3448 1.5517 0.0000
0.3448 1.5862 0.0000
0.3448 1.6207 0.0000
0.3448 1.6552 0.0000
0.3448 1.6897 0.0000
0.3448 1.7241 0.0000
0.3448 1.7586 0.0000
0.3448 1.7931 0.0000
0.3448 1.8276 0.0000
0.3448 1.8621 0.0000
0.3448 1.8966 0.0000
0.3448 1.9310 0.0000
0.3448 1.9655 0.0000
0.3448 2.0000 0.0000
0.4138 1.0000 0.0000
0.4138 1.0345 0.0000
0.4138 1.0690 0.0000
0.4138 1.1034 0.0000
0.4138 1.1379 0.0000
0.4138 1.1724 0.0000
0.4138 1.2069 0.0000
0.4138 1.2414 0.0000
0.4138 1.2759 0.0000
0.4138 1.3103 0.0000
0.4138 1.3448 0.0000
0.4138 1.3793 0.0000
0.4138 1.4138 0.0000
0.4138 1.4483 0.0000
0.4138 1.4828 0.0000
0.4138 1.5172 0.0000
0.4138 1.5517 0.0000
0.4138 1.5862 0.0000
0.4138 1.6207 0.0000
0.4138 1.6552 0.0000
0.4138 1.6897 0.0000
0.4138 1.7241 0.0000
0.4138 1.7586 0.0000
0.4138 1.7931 0.0000
0.4138 1.8276 0.0000
0.4138 1.8621 0.0000
0.4138 1.8966 0.0000
0.4138 1.9310 0.0000
0.4138 1.9655 0.0000
0.4138 2.0000 0.0000
0.4828 1.0000 0.0000
0.4828 1.0345 0.0000
0.4828 1.0690 0.0000
0.4828 1.1034 0.0000
0.4828 1.1379 0.0000
0.4828 1.1724 0.0000
0.4828 1.2069 0.0000
0.4828 1.2414 0.0000
0.4828 1.2759 0.0000
0.4828 1.3103 0.0000
0.4828 1.3448 0.0000
0.4828 1.3793 0.0000
0.4828 1.4138 0.0000
0.4828 1.4483 0.0000
0.4828 1.4828 0.0000
0.4828 1.5172 0.0000
0.4828 1.5517 0.0000
0.4828 1.5862 0.0000
0.4828 1.6207 0.0000
0.4828 1.6552 0.0000
0.4828 1.6897 0.0000
0.4828 1.7241 0.0000
0.4828 1.7586 0.0000
0.4828 1.7931 0.0000
0.4828 1.8276 0.0000
0.4828 1.8621 0.0000
0.4828 1.8966 0.0000
0.4828 1.9310 0.0000
0.4828 1.9655 0.0000
0.4828 2.0000 0.0000
0.5517 1.0000 0.0000
0.5517 1.0345 0.0000
0.5517 1.0690 0.0000
0.5517 1.1034 0.0000
0.5517 1.1379 0.0000
0.5517 1.1724 0.0000
0.5517 1.2069 0.0000
0.5517 1.2414 0.0000
0.5517 1.2759 0.0000
0.5517 1.3103 0.0000
0.5517 1.3448 0.0000
0.5517 1.3793 0.0000
0.5517 1.4138 0.0000
0.5517 1.4483 0.0000
0.5517 1.4828 0.0000
0.5517 1.5172 0.0000
0.5517 1.5517 0.0000
0.5517 1.5862 0.0000
0.5517 1.6207 0.0000
0.5517 1.6552 0.0000
0.5517 1.6897 0.0000
0.5517 1.7241 0.0000
0.5517 1.7586 0.0000
0.5517 1.7931 0.0000
0.5517 1.8276 0.0000
0.5517 1.8621 0.0000
0.5517 1.8966 0.0000
0.5517 1.9310 0.0000
0.5517 1.9655 0.0000
0.5517 2.0000 0.0000
0.6207 1.0000 0.0000
0.6207 1.0345 0.0000
0.6207 1.0690 0.0000
0.6207 1.1034 0.0000
0.6207 1.1379 0.0000
0.6207 1.1724 0.0000
0.6207 1.2069 0.0000
0.6207 1.2414 0.0000
0.6207 1.2759 0.0000
0.6207 1.3103 0.0000
0.6207 1.3448 0.0000
0.6207 1.3793 0.0000
0.6207 1.4138 0.0000
0.6207 1.4483 0.0000
0.6207 1.4828 0.0000
0.6207 1.5172 0.0000
0.6207 1.5517 0.0000
0.6207 1.5862 0.0000
0.6207 1.6207 0.0000
0.6207 1.6552 0.0000
0.6207 1.6897 0.0000
0.6207 1.7241 0.0000
0.6207 1.7586 0.0000
0.6207 1.7931 0.0000
0.6207 1.8276 0.0000
0.6207 1.8621 0.0000
0.6207 1.8966 0.0000
0.6207 1.9310 0.0000
0.6207 1.9655 0.0000
0.6207 2.0000 0.0000
0.6897 1.0000 0.0000
0.6897 1.0345 0.0000
0.6897 1.0690 0.0000
0.6897 1.1034 0.0000
0.6897 1.1379 0.0000
0.6897 1.1724 0.0000
0.6897 1.2069 0.0000
0.6897 1.2414 0.0000
0.6897 1.2759 0.0000
0.6897 1.3103 0.0000
0.6897 1.3448 0.0000
0.6897 1.3793 0.0000
0.6897 1.4138 0.0000
0.6897 1.4483 0.0000
0.6897 1.4828 0.0000
0.6897 1.5172 0.0000
0.6897 1.5517 0.0000
0.6897 1.5862 0.0000
0.6897 1.6207 0.0000
0.6897 1.6552 0.0000
0.6897 1.6897 0.0000
0.6897 1.7241 0.0000
0.6897 1.7586 0.0000
0.6897 1.7931 0.0000
0.6897 1.8276 0.0000
0.6897 1.8621 0.0000
0.6897 1.8966 0.0000
0.6897 1.9310 0.0000
0.6897 1.9655 0.0000
0.6897 2.0000 0.0000
0.7586 1.0000 0.0000
0.7586 1.0345 0.0000
0.7586 1.0690 0.0000
0.7586 1.1034 0.0000
0.7586 1.1379 0.0000
0.7586 1.1724 0.0000
0.7586 1.2069 0.0000
0.7586 1.2414 0.0000
0.7586 1.2759 0.0000
0.7586 1.3103 0.0000
0.7586 1.3448 0.0000
0.7586 1.3793 0.0000
0.7586 1.4138 0.0000
0.7586 1.4483 0.0000
0.7586 1.4828 0.0000
0.7586 1.5172 0.0000
0.7586 1.5517 0.0000
0.7586 1.5862 0.0000
0.7586 1.6207 0.0000
0.7586 1.6552 0.0000
0.7586 1.6897 0.0000
0.7586 1.7241 0.0000
0.7586 1.7586 0.0000
0.7586 1.7931 0.0000
0.7586 1.8276 0.0000
0.7586 1.8621 0.0000
0.7586 1.8966 0.0000
0.7586 1.9310 0.0000
0.7586 1.9655 0.0000
0.7586 2.0000 0.0000
0.8276 1.0000 0.0000
0.8276 1.0345 0.0000
0.8276 1.0690 0.0000
0.8276 1.1034 0.0000
0.8276 1.1379 0.0000
0.8276 1.1724 0.0000
0.8276 1.2069 0.0000
0.8276 1.2414 0.0000
0.8276 1.2759 0.0000
0.8276 1.3103 0.0000
0.8276 1.3448 0.0000
0.8276 1.3793 0.0000
0.8276 1.4138 0.0000
0.8276 1.4483 0.0000
0.8276 1.4828 0.0000
0.8276 1.5172 0.0000
0.8276 1.5517 0.0000
0.8276 1.5862 0.0000
0.8276 1.6207 0.0000
0.8276 1.6552 0.0000
0.8276 1.6897 0.0000
0.8276 1.7241 0.0000
0.8276 1.7586 0.0000
0.8276 1.7931 0.0000
0.8276 1.8276 0.0000
0.8276 1.8621 0.0000
0.8276 1.8966 0.0000
0.8276 1.9310 0.0000
0.8276 1.9655 0.0000
0.8276 2.0000 0.0000
0.8966 1.0000 0.0000
0.8966 1.0345 0.0000
0.8966 1.0690 0.0000
0.8966 1.1034 0.0000
0.8966 1.1379 0.0000
0.8966 1.1724 0.0000
0.8966 1.2069 0.0000
0.8966 1.2414 0.0000
0.8966 1.2759 0.0000
0.8966 1.3103 0.0000
0.8966 1.3448 0.0000
0.8966 1.3793 0.0000
0.8966 1.4138 0.0000
0.8966 1.4483 0.0000
0.8966 1.4828 0.0000
0.8966 1.5172 0.0000
0.8966 1.5517 0.0000
0.8966 1.5862 0.0000
0.8966 1.6207 0.0000
0.8966 1.6552 0.0000
0.8966 1.6897 0.0000
0.8966 1.7241 0.0000
0.8966 1.7586 0.0000
0.8966 1.7931 0.0000
0.8966 1.8276 0.0000
0.8966 1.8621 0.0000
0.8966 1.8966 0.0000
0.8966 1.9310 0.0000
0.8966 1.9655 0.0000
0.8966 2.0000 0.0000
0.9655 1.0000 0.0000
0.9655 1.0345 0.0000
0.9655 1.0690 0.0000
0.9655 1.1034 0.0000
0.9655 1.1379 0.0000
0.9655 1.1724 0.0000
0.9655 1.2069 0.0000
0.9655 1.2414 0.0000
0.9655 1.2759 0.0000
0.9655 1.3103 0.0000
0.9655 1.3448 0.0000
0.9655 1.3793 0.0000
0.9655 1.4138 0.0000
0.9655 1.4483 0.0000
0.9655 1.4828 0.0000
0.9655 1.5172 0.0000
0.9655 1.5517 0.0000
0.9655 1.5862 0.0000
0.9655 1.6207 0.0000
0.9655 1.6552 0.0000
0.9655 1.6897 0.0000
0.9655 1.7241 0.0000
0.9655 1.7586 0.0000
0.9655 1.7931 0.0000
0.9655 1.8276 0.0000
0.9655 1.8621 0.0000
0.9655 1.8966 0.0000
0.9655 1.9310 0.0000
0.9655 1.9655 0.0000
0.9655 2.0000 0.0000
1.0345 1.0000 0.0000
1.0345 1.0345 0.0000
1.0345 1.0690 0.0000
1.0345 1.1034 0.0000
1.0345 1.1379 0.0000
1.0345 1.1724 0.0000
1.0345 1.2069 0.0000
1.0345 1.2414 0.0000
1.0345 1.2759 0.0000
1.0345 1.3103 0.0000
1.0345 1.3448 0.0000
[...]
         <PointData>
            <DataArray Name="fValues" NumberOfComponents="3" format="ascii" type="Float64">
-6.45817e-20 -3.02674e-21        00000 
 3.00659e-19 -4.90376e-20        00000 
 1.81934e-19  2.87291e-19        00000 
 3.28956e-19 -4.36509e-19        00000 
-7.67946e-19  1.89629e-19        00000 
 7.57638e-19  3.90283e-20        00000 
-8.27548e-20 -3.48084e-20        00000 
 9.44833e-21  6.91810e-21        00000 
-1.03410e-21 -1.15941e-21        00000 
 1.05095e-22  1.85710e-22        00000 
-9.00896e-24 -2.93815e-23        00000 
 4.00715e-25  4.64281e-24        00000 
 7.90575e-26 -7.35763e-25        00000 
-3.29418e-26  1.17105e-25        00000 
 8.22638e-27 -1.87263e-26        00000 
-1.75731e-27  3.00836e-27        00000 
 3.48412e-28 -4.85391e-28        00000 
-6.61859e-29  7.86302e-29        00000 
 1.22361e-29 -1.27842e-29        00000 
-2.22086e-30  2.08544e-30        00000 
 3.97839e-31 -3.41218e-31        00000 
-7.05838e-32  5.59828e-32        00000 
 1.24318e-32 -9.20787e-33        00000 
-2.17728e-33  1.51792e-33        00000 
 3.79637e-34 -2.50749e-34        00000 
-6.59608e-35  4.15006e-35        00000 
 1.14281e-35 -6.88070e-36        00000 
-1.97699e-36  1.14346e-36        00000 
 3.50857e-37 -1.95294e-37        00000 
-1.17385e-37  6.32878e-38        00000 
 1.66742e-20  1.93760e-20        00000 
-1.34739e-19 -5.08487e-20        00000 
 4.17358e-18 -5.23335e-19        00000 
 9.98282e-03  2.54071e-18        00000 
 1.05739e-17 -2.94432e-20        00000 
-3.07681e-19 -3.42267e-19        00000 
 3.98318e-20  4.61255e-20        00000 
-4.13720e-21 -6.85237e-21        00000 
 3.81414e-22  1.05537e-21        00000 
-2.40177e-23 -1.64901e-22        00000 
-1.23565e-24  2.59832e-23        00000 
 9.16548e-25 -4.12086e-24        00000 
-2.51147e-25  6.57269e-25        00000 
 5.57367e-26 -1.05369e-25        00000 
-1.12813e-26  1.69704e-26        00000 
 2.17074e-27 -2.74469e-27        00000 
-4.04802e-28  4.45600e-28        00000 
 7.39248e-29 -7.25926e-29        00000 
-1.33031e-29  1.18630e-29        00000 
 2.36838e-30 -1.94415e-30        00000 
-4.18261e-31  3.19435e-31        00000 
 7.34095e-32 -5.26082e-32        00000 
-1.28218e-32  8.68272e-33        00000 
 2.23085e-33 -1.43585e-33        00000 
-3.86939e-34  2.37872e-34        00000 
 6.69445e-35 -3.94727e-35        00000 
-1.15583e-35  6.56024e-36        00000 
 1.99381e-36 -1.09263e-36        00000 
-3.52970e-37  1.87010e-37        00000 
 1.17871e-37 -6.07116e-38        00000 
 4.30295e-20 -4.14614e-20        00000 
-3.58250e-19  1.74117e-19        00000 
-9.98282e-03  2.07736e-18        00000 
 8.54322e-01 -6.85173e-17        00000 
-9.98282e-03 -2.04142e-18        00000 
-3.29687e-19  3.97599e-19        00000 
 5.20834e-20 -3.77309e-20        00000 
-7.08745e-21  4.65028e-21        00000 
 1.01228e-21 -6.69340e-22        00000 
-1.52451e-22  1.04097e-22        00000 
 2.39838e-23 -1.67650e-23        00000 
-3.89538e-24  2.74189e-24        00000 
 6.46509e-25 -4.51562e-25        00000 
-1.08811e-25  7.46207e-26        00000 
 1.84735e-26 -1.23546e-26        00000 
-3.15284e-27  2.04817e-27        00000 
 5.39711e-28 -3.39910e-28        00000 
-9.25383e-29  5.64662e-29        00000 
 1.58783e-29 -9.38919e-30        00000 
-2.72510e-30  1.56271e-30        00000 
 4.67645e-31 -2.60338e-31        00000 
-8.02289e-32  4.34107e-32        00000 
 1.37589e-32 -7.24522e-33        00000 
-2.35863e-33  1.21029e-33        00000 
 4.04161e-34 -2.02350e-34        00000 
-6.92264e-35  3.38591e-35        00000 
 1.18531e-35 -5.67027e-36        00000 
-2.03042e-36  9.51022e-37        00000 
 3.57263e-37 -1.63866e-37        00000 
-1.18746e-37  5.34960e-38        00000 
-2.79583e-20  3.76801e-20        00000 
 9.36949e-21 -1.24321e-19        00000 
 7.54469e-19  5.96327e-20        00000 
 9.98282e-03 -4.42372e-18        00000 
-1.05384e-17 -6.87539e-18        00000 
 9.42253e-19  1.74522e-19        00000 
-1.09763e-19 -7.40265e-21        00000 
 1.44882e-20  7.75486e-23        00000 
-2.00598e-21  7.94870e-23        00000 
 2.87882e-22 -2.33500e-23        00000 
-4.25715e-23  5.18258e-24        00000 
 6.45857e-24 -1.03881e-24        00000 
-1.00133e-24  1.97415e-25        00000 
 1.58085e-25 -3.63098e-26        00000 
-2.53334e-26  6.53458e-27        00000 
 4.10940e-27 -1.15827e-27        00000 
-6.73176e-28  2.03070e-28        00000 
 1.11148e-28 -3.53163e-29        00000 
-1.84677e-29  6.10495e-30        00000 
 3.08397e-30 -1.05051e-30        00000 
-5.17078e-31  1.80134e-31        00000 
 8.69764e-32 -3.08050e-32        00000 
-1.46679e-32  5.25702e-33        00000 
 2.47878e-33 -8.95685e-34        00000 
-4.19602e-34  1.52414e-34        00000 
 7.11261e-35 -2.59105e-35        00000 
-1.20701e-35  4.40160e-36        00000 
 2.05178e-36 -7.47888e-37        00000 
-3.58548e-37  1.30463e-37        00000 
 1.18534e-37 -4.30282e-38        00000 
 2.15582e-21 -1.98864e-20        00000 
 3.07571e-20  4.34146e-20        00000 
 4.25395e-20 -3.65624e-19        00000 
-6.19953e-20  4.12503e-19        00000 
 9.48249e-19  1.68792e-19        00000 
-5.32453e-19 -2.75169e-19        00000 
 8.66896e-20  2.87810e-20        00000 
-1.30977e-20 -3.05560e-21        00000 
 1.97649e-21  3.33571e-22        00000 
-3.00008e-22 -3.62738e-23        00000 
 4.59451e-23  3.72041e-24        00000 
-7.10837e-24 -3.20168e-25        00000 
 1.11138e-24  1.28144e-26        00000 
-1.75544e-25  3.51998e-27        00000 
 2.79941e-26 -1.39262e-27        00000 
-4.50345e-27  3.48779e-28        00000 
 7.30178e-28 -7.52356e-29        00000 
-1.19213e-28  1.50745e-29        00000 
 1.95820e-29 -2.89190e-30        00000 
-3.23356e-30  5.39310e-31        00000 
 5.36397e-31 -9.86219e-32        00000 
-8.93303e-32  1.77799e-32        00000 
 1.49271e-32 -3.17140e-33        00000 
-2.50157e-33  5.61064e-34        00000 
 4.20269e-34 -9.86239e-35        00000 
-7.07568e-35  1.72476e-35        00000 
 1.19347e-35 -3.00393e-36        00000 
-2.01780e-36  5.21854e-37        00000 
 3.50849e-37 -9.29355e-38        00000 
-1.15523e-37  3.11710e-38        00000 
 2.01532e-21  8.09826e-21        00000 
-1.69522e-23 -2.14804e-20        00000 
-8.18984e-21  4.75743e-20        00000 
 4.87960e-20 -4.00263e-20        00000 
-1.00355e-19 -6.25113e-21        00000 
 8.61920e-20  2.84911e-20        00000 
-3.33679e-20 -1.45204e-20        00000 
 7.01360e-21  2.48267e-21        00000 
-1.26455e-21 -3.63738e-22        00000 
 2.15382e-22  5.08759e-23        00000 
-3.57500e-23 -6.96322e-24        00000 
 5.86251e-24  9.35095e-25        00000 
-9.56494e-25 -1.22465e-25        00000 
 1.55870e-25  1.54373e-26        00000 
-2.54265e-26 -1.82630e-27        00000 
 4.15721e-27  1.91513e-28        00000 
-6.81701e-28 -1.47471e-29        00000 
 1.12148e-28 -1.69457e-31        00000 
-1.85107e-29  4.32350e-31        00000 
 3.06519e-30 -1.34529e-31        00000 
-5.09123e-31  3.21267e-32        00000 
 8.48066e-32 -6.86954e-33        00000 
-1.41638e-32  1.38259e-33        00000 
 2.37122e-33 -2.67889e-34        00000 
-3.97838e-34  5.05795e-35        00000 
 6.68790e-35 -9.37345e-36        00000 
-1.12627e-35  1.71306e-36        00000 
 1.90114e-36 -3.10004e-37        00000 
-3.30028e-37  5.72650e-38        00000 
 1.08516e-37 -1.97669e-38        00000 
-5.74361e-23 -2.82526e-21        00000 
-4.78106e-22  4.28847e-21        00000 
 3.09632e-21 -6.36526e-21        00000 
-8.76923e-21  4.88166e-21        00000 
 1.37863e-20 -1.21517e-22        00000 
-1.26685e-20 -2.97612e-21        00000 
 6.96312e-21  2.46623e-21        00000 
-2.36565e-21 -9.28386e-22        00000 
 5.59843e-22  1.97587e-22        00000 
-1.13298e-22 -3.49908e-23        00000 
 2.12041e-23  5.71452e-24        00000 
-3.79859e-24 -8.93657e-25        00000 
 6.62970e-25  1.35898e-25        00000 
-1.13861e-25 -2.02185e-26        00000 
 1.93601e-26  2.94708e-27        00000 
-3.27161e-27 -4.20144e-28        00000 
 5.50856e-28  5.83037e-29        00000 
-9.25687e-29 -7.80414e-30        00000 
 1.55428e-29  9.90377e-31        00000 
-2.60950e-30 -1.14915e-31        00000 
 4.38293e-31  1.10640e-32        00000 
-7.36694e-32 -5.40318e-34        00000 
 1.23939e-32 -1.20100e-34        00000 
-2.08724e-33  5.39196e-35        00000 
 3.51885e-34 -1.44628e-35        00000 
-5.93873e-35  3.29642e-36        00000 
 1.00334e-35 -6.93029e-37        00000 
-1.69817e-36  1.38996e-37        00000 
 2.95475e-37 -2.78848e-38        00000 
-9.73270e-38  1.02156e-38        00000 
-6.55464e-23  6.35129e-22        00000 
 2.06408e-22 -7.62827e-22        00000 
-6.90231e-22  9.01885e-22        00000 
 1.45671e-21 -6.64946e-22        00000 
-2.03287e-21  1.05596e-22        00000 
 1.91968e-21  3.17656e-22        00000 
-1.24087e-21 -3.58326e-22        00000 
 5.56219e-22  1.96577e-22        00000 
-1.79173e-22 -6.62107e-23        00000 
 4.50854e-23  1.56735e-23        00000 
-9.85430e-24 -3.12863e-24        00000 
 1.98130e-24  5.69498e-25        00000 
-3.77967e-25 -9.80712e-26        00000 
 6.96483e-26  1.62800e-26        00000 
-1.25345e-26 -2.63154e-27        00000 
 2.21895e-27  4.16470e-28        00000 
-3.88257e-28 -6.47098e-29        00000 
 6.73702e-29  9.88024e-30        00000 
-1.16203e-29 -1.48158e-30        00000 
 1.99578e-30  2.17731e-31        00000 
-3.41730e-31 -3.12305e-32        00000 
 5.83888e-32  4.34089e-33        00000 
-9.96189e-33 -5.77242e-34        00000 
 1.69799e-33  7.16257e-35        00000 
-2.89248e-34 -7.82531e-36        00000 
 4.92566e-35  6.18504e-37        00000 
-8.38711e-36  1.10182e-38        00000 
 1.42926e-36 -2.08632e-38        00000 
-2.50243e-37  6.96915e-39        00000 
 8.28407e-38 -3.24847e-39        00000 
 2.88035e-23 -1.21660e-22        00000 
-5.53594e-23  1.30769e-22        00000 
 1.33255e-22 -1.34474e-22        00000 
-2.38393e-22  9.68621e-23        00000 
 3.10612e-22 -2.52155e-23        00000 
-2.97663e-22 -3.37681e-23        00000 
 2.11258e-22  4.96496e-23        00000 
-1.11844e-22 -3.46176e-23        00000 
 4.48428e-23  1.56077e-23        00000 
-1.40872e-23 -5.01499e-24        00000 
 3.67396e-24  1.25772e-24        00000 
-8.46917e-25 -2.71768e-25        00000 
 1.79876e-25  5.35379e-26        00000 
-3.61233e-26 -9.92543e-27        00000 
 6.97374e-27  1.76399e-27        00000 
-1.30843e-27 -3.03933e-28        00000 
 2.40374e-28  5.11262e-29        00000 
-4.34669e-29 -8.43374e-30        00000 
 7.76619e-30  1.36806e-30        00000 
-1.37483e-30 -2.18563e-31        00000 
 2.41649e-31  3.44123e-32        00000 
-4.22383e-32 -5.33872e-33        00000 
 7.35085e-33  8.15258e-34        00000 
-1.27493e-33 -1.22288e-34        00000 
 2.20530e-34  1.79544e-35        00000 
-3.80656e-35 -2.56529e-36        00000 
 6.55974e-36  3.53187e-37        00000 
-1.12987e-36 -4.60165e-38        00000 
 1.99803e-37  5.49125e-39        00000 
-6.66791e-38 -1.06891e-39        00000 
-8.11163e-24  2.17094e-23        00000 
 1.24639e-23 -2.20404e-23        00000 
-2.43118e-23  2.08162e-23        00000 
 3.89675e-23 -1.47842e-23        00000 
-4.85104e-23  5.00461e-24        00000 
 4.69116e-23  3.42940e-24        00000 
-3.53816e-23 -6.74183e-24        00000 
 2.09088e-23  5.62129e-24        00000 
-9.75975e-24 -3.10238e-24        00000 
 3.65787e-24  1.25326e-24        00000 
-1.13354e-24 -3.93515e-25        00000 
 3.02557e-25  1.02213e-25        00000 
-7.24691e-26 -2.33330e-26        00000 
 1.60609e-26  4.87710e-27        00000 
-3.36411e-27 -9.58164e-28        00000 
 6.75787e-28  1.79937e-28        00000 
-1.31536e-28 -3.26602e-29        00000 
 2.49896e-29  5.77275e-30        00000 
-4.65895e-30 -9.98708e-31        00000 
 8.55790e-31  1.69720e-31        00000 
-1.55350e-31 -2.84007e-32        00000 
 2.79340e-32  4.68752e-33        00000 
-4.98446e-33 -7.63859e-34        00000 
 8.83863e-34  1.22955e-34        00000 
-1.55929e-34 -1.95494e-35        00000 
 2.73927e-35  3.06863e-36        00000 
-4.79555e-36 -4.74991e-37        00000 
 8.37827e-37  7.23932e-38        00000 
-1.50156e-37 -1.10412e-38        00000 
 5.06616e-38  3.15868e-39        00000 
 1.90169e-24 -3.73982e-24        00000 
-2.57037e-24  3.68165e-24        00000 
 4.32309e-24 -3.30507e-24        00000 
-6.38868e-24  2.33291e-24        00000 
 7.69159e-24 -9.32870e-25        00000 
-7.48203e-24 -3.04232e-25        00000 
 5.88909e-24  9.02851e-25        00000 
-3.76195e-24 -8.74941e-25        00000 
 1.96004e-24  5.62420e-25        00000 
-8.40554e-25 -2.69885e-25        00000 
 3.01477e-25  1.01900e-25        00000 
-9.26481e-26 -3.15854e-26        00000 
 2.51328e-26  8.39779e-27        00000 
-6.19476e-27 -1.99469e-27        00000 
 1.41990e-27  4.36351e-28        00000 
-3.07936e-28 -8.98055e-29        00000 
 6.39962e-29  1.76484e-29        00000 
-1.28648e-29 -3.34615e-30        00000 
 2.51902e-30  6.16641e-31        00000 
-4.82980e-31 -1.11040e-31        00000 
 9.10432e-32  1.96149e-32        00000 
-1.69257e-32 -3.40874e-33        00000 
 3.11097e-33  5.84018e-34        00000 
-5.66427e-34 -9.87993e-35        00000 
 1.02323e-34  1.65214e-35        00000 
-1.83626e-35 -2.73286e-36        00000 
 3.27708e-36  4.47331e-37        00000 
-5.82616e-37 -7.25027e-38        00000 
 1.06161e-37  1.18995e-38        00000 
-3.63073e-38 -3.67948e-39        00000 
-4.03928e-25  6.32341e-25        00000 
 5.03394e-25 -6.11995e-25        00000 
-7.58931e-25  5.33563e-25        00000 
 1.05202e-24 -3.76803e-25        00000 
-1.23339e-24  1.69270e-25        00000 
 1.20430e-24  1.63969e-26        00000 
-9.78226e-25 -1.18989e-25        00000 
 6.62175e-25  1.32752e-25        00000 
-3.74761e-25 -9.65262e-26        00000 
 1.78332e-25  5.29986e-26        00000 
-7.20305e-26 -2.31955e-26        00000 
 2.50592e-26  8.37534e-27        00000 
-7.65818e-27 -2.57516e-27        00000 
 2.10248e-27  6.96140e-28        00000 
-5.29806e-28 -1.70354e-28        00000 
 1.24773e-28  3.86238e-29        00000 
-2.78561e-29 -8.25589e-30        00000 
 5.96045e-30  1.68517e-30        00000 
-1.23267e-30 -3.31586e-31        00000 
 2.47994e-31  6.33384e-32        00000 
-4.87808e-32 -1.18071e-32        00000 
 9.41864e-33  2.15655e-33        00000 
-1.79070e-33 -3.87119e-34        00000 
 3.36083e-34  6.84577e-35        00000 
-6.23937e-35 -1.19476e-35        00000 
 1.14769e-35  2.06076e-36        00000 
-2.09462e-36 -3.51663e-37        00000 
 3.80080e-37  5.94583e-38        00000 
-7.06207e-38 -1.02153e-38        00000 
 2.45421e-38  3.29853e-39        00000 
 8.08000e-26 -1.05836e-25        00000 
-9.53452e-26  1.01474e-25        00000 
 1.32307e-25 -8.70799e-26        00000 
-1.74051e-25  6.18359e-26        00000 
 1.99556e-25 -3.02991e-26        00000 
-1.95269e-25  1.88869e-27        00000 
 1.62470e-25  1.53085e-26        00000 
-1.15011e-25 -1.97823e-26        00000 
 6.94176e-26  1.59921e-26        00000 
-3.58573e-26 -9.79946e-27        00000 
 1.59477e-26  4.83573e-27        00000 
-6.16395e-27 -1.98449e-27        00000 
 2.09736e-27  6.94494e-28        00000 
-6.38417e-28 -2.12368e-28        00000 
 1.76895e-28  5.81264e-29        00000 
-4.53650e-29 -1.45564e-29        00000 
 1.09237e-29  3.39651e-30        00000 
-2.49911e-30 -7.49079e-31        00000 
 5.48375e-31  1.57884e-31        00000 
-1.16280e-31 -3.20733e-32        00000 
 2.39690e-32  6.32089e-33        00000 
-4.82588e-33 -1.21461e-33        00000 
 9.52663e-34  2.28471e-34        00000 
-1.84959e-34 -4.22000e-35        00000 
 3.54061e-35  7.67269e-36        00000 
-6.69638e-36 -1.37590e-36        00000 
 1.25348e-36  2.43736e-37        00000 
-2.32785e-37 -4.27391e-38        00000 
 4.42264e-38  7.62397e-39        00000 
-1.56526e-38 -2.54597e-39        00000 
-1.55401e-26  1.76164e-26        00000 
 1.76474e-26 -1.68065e-26        00000 
-2.29696e-26  1.43151e-26        00000 
 2.89257e-26 -1.02565e-26        00000 
-3.25254e-26  5.37968e-27        00000 
 3.18536e-26 -9.63717e-28        00000 
-2.70053e-26 -1.89249e-27        00000 
 1.98079e-26  2.90314e-27        00000 
-1.25861e-26 -2.58531e-27        00000 
 6.94564e-27  1.73858e-27        00000 
-3.34261e-27 -9.47956e-28        00000 
 1.41154e-27  4.33156e-28        00000 
-5.27605e-28 -1.69585e-28        00000 
 1.76534e-28  5.80037e-29        00000 
-5.35761e-29 -1.76669e-29        00000 
 1.49543e-29  4.88232e-30        00000 
-3.89004e-30 -1.24532e-30        00000 
 9.54168e-31  2.97477e-31        00000 
-2.22885e-31 -6.73480e-32        00000 
 4.99889e-32  1.45892e-32        00000 
-1.08368e-32 -3.04687e-33        00000 
 2.28310e-33  6.17161e-34        00000 
-4.69532e-34 -1.21824e-34        00000 
 9.46015e-35  2.35243e-35        00000 
-1.87291e-35 -4.45735e-36        00000 
 3.65251e-36  8.30798e-37        00000 
-7.03122e-37 -1.52637e-37        00000 
 1.33984e-37  2.77123e-38        00000 
-2.60952e-38 -5.11954e-39        00000 
 9.42522e-39  1.76226e-39        00000 
 2.90888e-27 -2.92388e-27        00000 
-3.21259e-27  2.78288e-27        00000 
 3.97684e-27 -2.36493e-27        00000 
-4.82685e-27  1.71326e-27        00000 
 5.33418e-27 -9.49778e-28        00000 
-5.22299e-27  2.54889e-28        00000 
 4.49431e-27  2.17849e-28        00000 
-3.39272e-27 -4.19470e-28        00000 
 2.24809e-27  4.10297e-28        00000 
-1.30983e-27 -2.99419e-28        00000 
 6.72977e-28  1.77743e-28        00000 
-3.06222e-28 -8.89801e-29        00000 
 1.24150e-28  3.83751e-29        00000 
-4.52056e-29 -1.44979e-29        00000 
 1.49283e-29  4.87304e-30        00000 
-4.52021e-30 -1.47984e-30        00000 
 1.26924e-30  4.12111e-31        00000 
-3.34077e-31 -1.06696e-31        00000 
 8.32314e-32  2.59891e-32        00000 
-1.97931e-32 -6.01588e-33        00000 
 4.52496e-33  1.33431e-33        00000 
-1.00039e-33 -2.85486e-34        00000 
 2.14943e-34  5.92462e-35        00000 
-4.50670e-35 -1.19788e-35        00000 
 9.25252e-36  2.36824e-36        00000 
-1.86538e-36 -4.59183e-37        00000 
 3.70201e-37  8.75338e-38        00000 
-7.25539e-38 -1.64554e-38        00000 
 1.45210e-38  3.14706e-39        00000 
-5.36268e-39 -1.11557e-39        00000 
-5.34022e-28  4.84668e-28        00000 
 5.77653e-28 -4.60940e-28        00000 
-6.87176e-28  3.92073e-28        00000 
 8.08350e-28 -2.87515e-28        00000 
-8.79455e-28  1.66938e-28        00000 
 8.60239e-28 -5.65473e-29        00000 
-7.49063e-28 -2.16292e-29        00000 
 5.79012e-28  5.95126e-29        00000 
-3.97254e-28 -6.41330e-29        00000 
 2.42183e-28  5.04249e-29        00000 
-1.31464e-28 -3.22397e-29        00000 
 6.37380e-29  1.74615e-29        00000 
-2.77202e-29 -8.18913e-30        00000 
 1.08768e-29  3.37701e-30        00000 
-3.87834e-30 -1.24080e-30        00000 
 1.26735e-30  4.11401e-31        00000 
-3.83047e-31 -1.24645e-31        00000 
 1.08090e-31  3.49297e-32        00000 
-2.87336e-32 -9.15567e-33        00000 
 7.25456e-33  2.26709e-33        00000 
-1.75218e-33 -5.34849e-34        00000 
 4.07373e-34  1.21087e-34        00000 
-9.16541e-35 -2.64651e-35        00000 
 2.00450e-35  5.61197e-36        00000 
-4.27760e-36 -1.15936e-36        00000 
 8.93569e-37  2.34138e-37        00000 
-1.83227e-37 -4.63589e-38        00000 
 3.70124e-38  9.03081e-39        00000 
-7.62917e-39 -1.78901e-39        00000 
 2.88583e-39  6.53116e-40        00000 
 9.66397e-29 -8.03132e-29        00000 
-1.02894e-28  7.63963e-29        00000 
 1.18559e-28 -6.51690e-29        00000 
-1.35791e-28  4.83973e-29        00000 
 1.45660e-28 -2.92319e-29        00000 
-1.42240e-28  1.15671e-29        00000 
 1.25043e-28  1.36388e-30        00000 
-9.85814e-29 -8.24591e-30        00000 
 6.96458e-29  9.88768e-30        00000 
-4.41179e-29 -8.34325e-30        00000 
 2.50950e-29  5.70050e-30        00000 
-1.28468e-29 -3.30810e-30        00000 
 5.93777e-30  1.66939e-30        00000 
-2.48837e-30 -7.43674e-31        00000 
 9.50625e-31  2.95939e-31        00000 
-3.33209e-31 -1.06345e-31        00000 
 1.07951e-31  3.48748e-32        00000 