<?xml version="1.0" encoding="utf-8"?>
<VTKFile byte_order="LittleEndian" type="UnstructuredGrid" version="0.1">
   <UnstructuredGrid>
      <Piece NumberOfCells="3364" NumberOfPoints="1741">
         <Points>
            <DataArray Name="Points" NumberOfComponents="3" format="ascii" type="Float32">
0.0000 1.0000 0.0000
0.0000 1.0345 0.0000
0.0000 1.0690 0.0000
0.0000 1.1034 0.0000
0.0000 1.1379 0.0000
0.0000 1.1724 0.0000
0.0000 1.2069 0.0000
0.0000 1.2414 0.0000
0.0000 1.2759 0.0000
0.0000 1.3103 0.0000
0.0000 1.3448 0.0000
0.0000 1.3793 0.0000
0.0000 1.4138 0.0000
0.0000 1.4483 0.0000
0.0000 1.4828 0.0000
0.0000 1.5172 0.0000
0.0000 1.5517 0.0000
0.0000 1.5862 0.0000
0.0000 1.6207 0.0000
0.0000 1.6552 0.0000
0.0000 1.6897 0.0000
0.0000 1.7241 0.0000
0.0000 1.7586 0.0000
0.0000 1.7931 0.0000
0.0000 1.8276 0.0000
0.0000 1.8621 0.0000
0.0000 1.8966 0.0000
0.0000 1.9310 0.0000
0.0000 1.9655 0.0000
0.0000 2.0000 0.0000
0.0690 1.0000 0.0000
0.0690 1.0345 0.0000
0.0690 1.0690 0.0000
0.0690 1.1034 0.0000
0.0690 1.1379 0.0000
0.0690 1.1724 0.0000
0.0690 1.2069 0.0000
0.0690 1.2414 0.0000
0.0690 1.2759 0.0000
0.0690 1.3103 0.0000
0.0690 1.3448 0.0000
0.0690 1.3793 0.0000
0.0690 1.4138 0.0000
0.0690 1.4483 0.0000
0.0690 1.4828 0.0000
0.0690 1.5172 0.0000
0.0690 1.5517 0.0000
0.0690 1.5862 0.0000
0.0690 1.6207 0.0000
0.0690 1.6552 0.0000
0.0690 1.6897 0.0000
0.0690 1.7241 0.0000
0.0690 1.7586 0.0000
0.0690 1.7931 0.0000
0.0690 1.8276 0.0000
0.0690 1.8621 0.0000
0.0690 1.8966 0.0000
0.0690 1.9310 0.0000
0.0690 1.9655 0.0000
0.0690 2.0000 0.0000
0.1379 1.0000 0.0000
0.1379 1.0345 0.0000
0.1379 1.0690 0.0000
0.1379 1.1034 0.0000
0.1379 1.1379 0.0000
0.1379 1.1724 0.0000
0.1379 1.2069 0.0000
0.1379 1.2414 0.0000
0.1379 1.2759 0.0000
0.1379 1.3103 0.0000
0.1379 1.3448 0.0000
0.1379 1.3793 0.0000
0.1379 1.4138 0.0000
0.1379 1.4483 0.0000
0.1379 1.4828 0.0000
0.1379 1.5172 0.0000
0.1379 1.5517 0.0000
0.1379 1.5862 0.0000
0.1379 1.6207 0.0000
0.1379 1.6552 0.0000
0.1379 1.6897 0.0000
0.1379 1.7241 0.0000
0.1379 1.7586 0.0000
0.1379 1.7931 0.0000
0.1379 1.8276 0.0000
0.1379 1.8621 0.0000
0.1379 1.8966 0.0000
0.1379 1.9310 0.0000
0.1379 1.9655 0.0000
0.1379 2.0000 0.0000
0.2069 1.0000 0.0000
0.2069 1.0345 0.0000
0.2069 1.0690 0.0000
0.2069 1.1034 0.0000
0.2069 1.1379 0.0000
0.2069 1.1724 0.0000
0.2069 1.2069 0.0000
0.2069 1.2414 0.0000
0.2069 1.2759 0.0000
0.2069 1.3103 0.0000
0.2069 1.3448 0.0000
0.2069 1.3793 0.0000
0.2069 1.4138 0.0000
0.2069 1.4483 0.0000
0.2069 1.4828 0.0000
0.2069 1.5172 0.0000
0.2069 1.5517 0.0000
0.2069 1.5862 0.0000
0.2069 1.6207 0.0000
0.2069 1.6552 0.0000
0.2069 1.6897 0.0000
0.2069 1.7241 0.0000
0.2069 1.7586 0.0000
0.2069 1.7931 0.0000
0.2069 1.8276 0.0000
0.2069 1.8621 0.0000
0.2069 1.8966 0.0000
0.2069 1.9310 0.0000
0.2069 1.9655 0.0000
0.2069 2.0000 0.0000
0.2759 1.0000 0.0000
0.2759 1.0345 0.0000
0.2759 1.0690 0.0000
0.2759 1.1034 0.0000
0.2759 1.1379 0.0000
0.2759 1.1724 0.0000
0.2759 1.2069 0.0000
0.2759 1.2414 0.0000
0.2759 1.2759 0.0000
0.2759 1.3103 0.0000
0.2759 1.3448 0.0000
0.2759 1.3793 0.0000
0.2759 1.4138 0.0000
0.2759 1.4483 0.0000
0.2759 1.4828 0.0000
0.2759 1.5172 0.0000
0.2759 1.5517 0.0000
0.2759 1.5862 0.0000
0.2759 1.6207 0.0000
0.2759 1.6552 0.0000
0.2759 1.6897 0.0000
0.2759 1.7241 0.0000
0.2759 1.7586 0.0000
0.2759 1.7931 0.0000
0.2759 1.8276 0.0000
0.2759 1.8621 0.0000
0.2759 1.8966 0.0000
0.2759 1.9310 0.0000
0.2759 1.9655 0.0000
0.2759 2.0000 0.0000
0.3448 1.0000 0.0000
0.3448 1.0345 0.0000
0.3448 1.0690 0.0000
0.3448 1.1034 0.0000
0.3448 1.1379 0.0000
0.3448 1.1724 0.0000
0.3448 1.2069 0.0000
0.3448 1.2414 0.0000
0.3448 1.2759 0.0000
0.3448 1.3103 0.0000
0.3448 1.3448 0.0000
0.3448 1.3793 0.0000
0.3448 1.4138 0.0000
0.3448 1.4483 0.0000
0.3448 1.4828 0.0000
0.3448 1.5172 0.0000
0.3448 1.5517 0.0000
0.3448 1.5862 0.0000
0.3448 1.6207 0.0000
0.3448 1.6552 0.0000
0.3448 1.6897 0.0000
0.3448 1.7241 0.0000
0.3448 1.7586 0.0000
0.3448 1.7931 0.0000
0.3448 1.8276 0.0000
0.3448 1.8621 0.0000
0.3448 1.8966 0.0000
0.3448 1.9310 0.0000
0.3448 1.9655 0.0000
0.3448 2.0000 0.0000
0.4138 1.0000 0.0000
0.4138 1.0345 0.0000
0.4138 1.0690 0.0000
0.4138 1.1034 0.0000
0.4138 1.1379 0.0000
0.4138 1.1724 0.0000
0.4138 1.2069 0.0000
0.4138 1.2414 0.0000
0.4138 1.2759 0.0000
0.4138 1.3103 0.0000
0.4138 1.3448 0.0000
0.4138 1.3793 0.0000
0.4138 1.4138 0.0000
0.4138 1.4483 0.0000
0.4138 1.4828 0.0000
0.4138 1.5172 0.0000
0.4138 1.5517 0.0000
0.4138 1.5862 0.0000
0.4138 1.6207 0.0000
0.4138 1.6552 0.0000
0.4138 1.6897 0.0000
0.4138 1.7241 0.0000
0.4138 1.7586 0.0000
0.4138 1.7931 0.0000
0.4138 1.8276 0.0000
0.4138 1.8621 0.0000
0.4138 1.8966 0.0000
0.4138 1.9310 0.0000
0.4138 1.9655 0.0000
0.4138 2.0000 0.0000
0.4828 1.0000 0.0000
0.4828 1.0345 0.0000
0.4828 1.0690 0.0000
0.4828 1.1034 0.0000
0.4828 1.1379 0.0000
0.4828 1.1724 0.0000
0.4828 1.2069 0.0000
0.4828 1.2414 0.0000
0.4828 1.2759 0.0000
0.4828 1.3103 0.0000
0.4828 1.3448 0.0000
0.4828 1.3793 0.0000
0.4828 1.4138 0.0000
0.4828 1.4483 0.0000
0.4828 1.4828 0.0000
0.4828 1.5172 0.0000
0.4828 1.5517 0.0000
0.4828 1.5862 0.0000
0.4828 1.6207 0.0000
0.4828 1.6552 0.0000
0.4828 1.6897 0.0000
0.4828 1.7241 0.0000
0.4828 1.7586 0.0000
0.4828 1.7931 0.0000
0.4828 1.8276 0.0000
0.4828 1.8621 0.0000
0.4828 1.8966 0.0000
0.4828 1.9310 0.0000
0.4828 1.9655 0.0000
0.4828 2.0000 0.0000
0.5517 1.0000 0.0000
0.5517 1.0345 0.0000
0.5517 1.0690 0.0000
0.5517 1.1034 0.0000
0.5517 1.1379 0.0000
0.5517 1.1724 0.0000
0.5517 1.2069 0.0000
0.5517 1.2414 0.0000
0.5517 1.2759 0.0000
0.5517 1.3103 0.0000
0.5517 1.3448 0.0000
0.5517 1.3793 0.0000
0.5517 1.4138 0.0000
0.5517 1.4483 0.0000
0.5517 1.4828 0.0000
0.5517 1.5172 0.0000
0.5517 1.5517 0.0000
0.5517 1.5862 0.0000
0.5517 1.6207 0.0000
0.5517 1.6552 0.0000
0.5517 1.6897 0.0000
0.5517 1.7241 0.0000
0.5517 1.7586 0.0000
0.5517 1.7931 0.0000
0.5517 1.8276 0.0000
0.5517 1.8621 0.0000
0.5517 1.8966 0.0000
0.5517 1.9310 0.0000
0.5517 1.9655 0.0000
0.5517 2.0000 0.0000
0.6207 1.0000 0.0000
0.6207 1.0345 0.0000
0.6207 1.0690 0.0000
0.6207 1.1034 0.0000
0.6207 1.1379 0.0000
0.6207 1.1724 0.0000
0.6207 1.2069 0.0000
0.6207 1.2414 0.0000
0.6207 1.2759 0.0000
0.6207 1.3103 0.0000
0.6207 1.3448 0.0000
0.6207 1.3793 0.0000
0.6207 1.4138 0.0000
0.6207 1.4483 0.0000
0.6207 1.4828 0.0000
0.6207 1.5172 0.0000
0.6207 1.5517 0.0000
0.6207 1.5862 0.0000
0.6207 1.6207 0.0000
0.6207 1.6552 0.0000
0.6207 1.6897 0.0000
0.6207 1.7241 0.0000
0.6207 1.7586 0.0000
0.6207 1.7931 0.0000
0.6207 1.8276 0.0000
0.6207 1.8621 0.0000
0.6207 1.8966 0.0000
0.6207 1.9310 0.0000
0.6207 1.9655 0.0000
0.6207 2.0000 0.0000
0.6897 1.0000 0.0000
0.6897 1.0345 0.0000
0.6897 1.0690 0.0000
0.6897 1.1034 0.0000
0.6897 1.1379 0.0000
0.6897 1.1724 0.0000
0.6897 1.2069 0.0000
0.6897 1.2414 0.0000
0.6897 1.2759 0.0000
0.6897 1.3103 0.0000
0.6897 1.3448 0.0000
0.6897 1.3793 0.0000
0.6897 1.4138 0.0000
0.6897 1.4483 0.0000
0.6897 1.4828 0.0000
0.6897 1.5172 0.0000
0.6897 1.5517 0.0000
0.6897 1.5862 0.0000
0.6897 1.6207 0.0000
0.6897 1.6552 0.0000
0.6897 1.6897 0.0000
0.6897 1.7241 0.0000
0.6897 1.7586 0.0000
0.6897 1.7931 0.0000
0.6897 1.8276 0.0000
0.6897 1.8621 0.0000
0.6897 1.8966 0.0000
0.6897 1.9310 0.0000
0.6897 1.9655 0.0000
0.6897 2.0000 0.0000
0.7586 1.0000 0.0000
0.7586 1.0345 0.0000
0.7586 1.0690 0.0000
0.7586 1.1034 0.0000
0.7586 1.1379 0.0000
0.7586 1.1724 0.0000
0.7586 1.2069 0.0000
0.7586 1.2414 0.0000
0.7586 1.2759 0.0000
0.7586 1.3103 0.0000
0.7586 1.3448 0.0000
0.7586 1.3793 0.0000
0.7586 1.4138 0.0000
0.7586 1.4483 0.0000
0.7586 1.4828 0.0000
0.7586 1.5172 0.0000
0.7586 1.5517 0.0000
0.7586 1.5862 0.0000
0.7586 1.6207 0.0000
0.7586 1.6552 0.0000
0.7586 1.6897 0.0000
0.7586 1.7241 0.0000
0.7586 1.7586 0.0000
0.7586 1.7931 0.0000
0.7586 1.8276 0.0000
0.7586 1.8621 0.0000
0.7586 1.8966 0.0000
0.7586 1.9310 0.0000
0.7586 1.9655 0.0000
0.7586 2.0000 0.0000
0.8276 1.0000 0.0000
0.8276 1.0345 0.0000
0.8276 1.0690 0.0000
0.8276 1.1034 0.0000
0.8276 1.1379 0.0000
0.8276 1.1724 0.0000
0.8276 1.2069 0.0000
0.8276 1.2414 0.0000
0.8276 1.2759 0.0000
0.8276 1.3103 0.0000
0.8276 1.3448 0.0000
0.8276 1.3793 0.0000
0.8276 1.4138 0.0000
0.8276 1.4483 0.0000
0.8276 1.4828 0.0000
0.8276 1.5172 0.0000
0.8276 1.5517 0.0000
0.8276 1.5862 0.0000
0.8276 1.6207 0.0000
0.8276 1.6552 0.0000
0.8276 1.6897 0.0000
0.8276 1.7241 0.0000
0.8276 1.7586 0.0000
0.8276 1.7931 0.0000
0.8276 1.8276 0.0000
0.8276 1.8621 0.0000
0.8276 1.8966 0.0000
0.8276 1.9310 0.0000
0.8276 1.9655 0.0000
0.8276 2.0000 0.0000
0.8966 1.0000 0.0000
0.8966 1.0345 0.0000
0.8966 1.0690 0.0000
0.8966 1.1034 0.0000
0.8966 1.1379 0.0000
0.8966 1.1724 0.0000
0.8966 1.2069 0.0000
0.8966 1.2414 0.0000
0.8966 1.2759 0.0000
0.8966 1.3103 0.0000
0.8966 1.3448 0.0000
0.8966 1.3793 0.0000
0.8966 1.4138 0.0000
0.8966 1.4483 0.0000
0.8966 1.4828 0.0000
0.8966 1.5172 0.0000
0.8966 1.5517 0.0000
0.8966 1.5862 0.0000
0.8966 1.6207 0.0000
0.8966 1.6552 0.0000
0.8966 1.6897 0.0000
0.8966 1.7241 0.0000
0.8966 1.7586 0.0000
0.8966 1.7931 0.0000
0.8966 1.8276 0.0000
0.8966 1.8621 0.0000
0.8966 1.8966 0.0000
0.8966 1.9310 0.0000
0.8966 1.9655 0.0000
0.8966 2.0000 0.0000
0.9655 1.0000 0.0000
0.9655 1.0345 0.0000
0.9655 1.0690 0.0000
0.9655 1.1034 0.0000
0.9655 1.1379 0.0000
0.9655 1.1724 0.0000
0.9655 1.2069 0.0000
0.9655 1.2414 0.0000
0.9655 1.2759 0.0000
0.9655 1.3103 0.0000
0.9655 1.3448 0.0000
0.9655 1.3793 0.0000
0.9655 1.4138 0.0000
0.9655 1.4483 0.0000
0.9655 1.4828 0.0000
0.9655 1.5172 0.0000
0.9655 1.5517 0.0000
0.9655 1.5862 0.0000
0.9655 1.6207 0.0000
0.9655 1.6552 0.0000
0.9655 1.6897 0.0000
0.9655 1.7241 0.0000
0.9655 1.7586 0.0000
0.9655 1.7931 0.0000
0.9655 1.8276 0.0000
0.9655 1.8621 0.0000
0.9655 1.8966 0.0000
0.9655 1.9310 0.0000
0.9655 1.9655 0.0000
0.9655 2.0000 0.0000
1.0345 1.0000 0.0000
1.0345 1.0345 0.0000
1.0345 1.0690 0.0000
1.0345 1.1034 0.0000
1.0345 1.1379 0.0000
1.0345 1.1724 0.0000
1.0345 1.2069 0.0000
1.0345 1.2414 0.0000
1.0345 1.2759 0.0000
1.0345 1.3103 0.0000
1.0345 1.3448 0.0000
[...]
         <PointData>
            <DataArray Name="fValues" NumberOfComponents="3" format="ascii" type="Float64">
 6.70721e-39 -1.24228e-38        00000 
-1.59020e-38  3.36614e-38        00000 
 6.63877e-38 -1.68031e-37        00000 
-2.75176e-37  8.54670e-37        00000 
 1.06631e-36 -4.28239e-36        00000 
-3.70351e-36  2.10613e-35        00000 
 1.03910e-35 -1.01371e-34        00000 
-1.38318e-35  4.75839e-34        00000 
-9.61298e-35 -2.16924e-33        00000 
 1.12272e-33  9.55594e-33        00000 
-7.69909e-33 -4.04324e-32        00000 
 4.29382e-32  1.63130e-31        00000 
-2.08874e-31 -6.22250e-31        00000 
 9.02424e-31  2.22181e-30        00000 
-3.45553e-30 -7.34345e-30        00000 
 1.15942e-29  2.21979e-29        00000 
-3.35985e-29 -6.06136e-29        00000 
 8.28335e-29  1.47695e-28        00000 
-1.71529e-28 -3.17270e-28        00000 
 2.95074e-28  5.93128e-28        00000 
-4.20625e-28 -9.49489e-28        00000 
 4.97952e-28  1.26868e-27        00000 
-4.99991e-28 -1.34138e-27        00000 
 3.65651e-28  9.49393e-28        00000 
-1.68191e-28 -7.10858e-30        00000 
 7.21610e-29 -1.34126e-27        00000 
-2.02186e-28  2.76907e-27        00000 
 5.28168e-28 -3.94059e-27        00000 
-8.68660e-28  4.66492e-27        00000 
 1.01280e-27 -4.90352e-27        00000 
-9.00152e-39  1.42252e-38        00000 
 2.20470e-38 -3.90730e-38        00000 
-9.64371e-38  1.98435e-37        00000 
 4.23428e-37 -1.02816e-36        00000 
-1.77647e-36  5.26020e-36        00000 
 6.97336e-36 -2.64889e-35        00000 
-2.46686e-35  1.30967e-34        00000 
 7.16285e-35 -6.33872e-34        00000 
-1.11459e-34  2.99242e-33        00000 
-5.31479e-34 -1.37189e-32        00000 
 6.97131e-33  6.07513e-32        00000 
-4.92523e-32 -2.58146e-31        00000 
 2.79086e-31  1.04409e-30        00000 
-1.37144e-30 -3.98024e-30        00000 
 5.94756e-30  1.41351e-29        00000 
-2.26142e-29 -4.61383e-29        00000 
 7.40891e-29  1.36402e-28        00000 
-2.05159e-28 -3.59757e-28        00000 
 4.70134e-28  8.33927e-28        00000 
-8.78067e-28 -1.67335e-27        00000 
 1.31262e-27  2.85641e-27        00000 
-1.59243e-27 -4.04487e-27        00000 
 1.67596e-27  4.52450e-27        00000 
-1.19192e-27 -3.46738e-27        00000 
 3.91138e-28  4.83749e-28        00000 
 5.73293e-29  3.94349e-27        00000 
 3.63399e-28 -8.61242e-27        00000 
-1.56080e-27  1.23169e-26        00000 
 2.83851e-27 -1.44882e-26        00000 
-3.38245e-27  1.51716e-26        00000 
 1.66050e-38 -1.95944e-38        00000 
-4.27132e-38  5.53277e-38        00000 
 1.99508e-37 -2.90699e-37        00000 
-9.43706e-37  1.56058e-36        00000 
 4.34021e-36 -8.29963e-36        00000 
-1.92121e-35  4.36109e-35        00000 
 8.07354e-35 -2.25939e-34        00000 
-3.14516e-34  1.15121e-33        00000 
 1.08165e-33 -5.75097e-33        00000 
-2.86387e-33  2.80589e-32        00000 
 2.06954e-33 -1.33060e-31        00000 
 4.31730e-32  6.09578e-31        00000 
-4.20223e-31 -2.67725e-30        00000 
 2.72630e-30  1.11642e-29        00000 
-1.46050e-29 -4.36732e-29        00000 
 6.72164e-29  1.57928e-28        00000 
-2.63843e-28 -5.18917e-28        00000 
 8.62422e-28  1.52057e-27        00000 
-2.29652e-27 -3.89919e-27        00000 
 4.82088e-27  8.58943e-27        00000 
-7.89978e-27 -1.59421e-26        00000 
 9.55756e-27  2.43086e-26        00000 
-1.11444e-26 -2.91071e-26        00000 
 7.64832e-27  2.42378e-26        00000 
-1.39888e-27 -6.24020e-27        00000 
-2.53760e-27 -2.18433e-26        00000 
-4.73252e-29  5.12695e-26        00000 
 8.60647e-27 -7.34248e-26        00000 
-1.79112e-26  8.52366e-26        00000 
 2.18845e-26 -8.86204e-26        00000 
-3.15929e-38  2.82961e-38        00000 
 8.44028e-38 -8.20722e-38        00000 
-4.13813e-37  4.45342e-37        00000 
 2.06300e-36 -2.47088e-36        00000 
-1.00848e-35  1.36136e-35        00000 
 4.80320e-35 -7.43112e-35        00000 
-2.21246e-34  4.01187e-34        00000 
 9.74671e-34 -2.13767e-33        00000 
-4.03170e-33  1.12125e-32        00000 
 1.51283e-32 -5.77066e-32        00000 
-4.75205e-32  2.90221e-31        00000 
 9.21225e-32 -1.41888e-30        00000 
 2.19742e-31  6.69844e-30        00000 
-3.90107e-30 -3.02729e-29        00000 
 2.92944e-29  1.29514e-28        00000 
-1.70685e-28 -5.16977e-28        00000 
 8.29235e-28  1.89052e-27        00000 
-3.32321e-27 -6.19597e-27        00000 
 1.05969e-26  1.77675e-26        00000 
-2.63956e-26 -4.35252e-26        00000 
 4.76650e-26  8.89665e-26        00000 
-6.56156e-26 -1.47692e-25        00000 
 7.66677e-26  1.90722e-25        00000 
-5.25446e-26 -1.72209e-25        00000 
 2.85876e-27  6.08809e-26        00000 
 3.12318e-26  1.24525e-25        00000 
-1.49802e-26 -3.17370e-25        00000 
-4.81492e-26  4.52260e-25        00000 
 1.17422e-25 -5.13257e-25        00000 
-1.46918e-25  5.27296e-25        00000 
 5.70793e-38 -3.95868e-38        00000 
-1.57098e-37  1.17493e-37        00000 
 7.99651e-37 -6.55225e-37        00000 
-4.15013e-36  3.73841e-36        00000 
 2.12396e-35 -2.12234e-35        00000 
-1.06718e-34  1.19659e-34        00000 
 5.24059e-34 -6.69108e-34        00000 
-2.49945e-33  3.70471e-33        00000 
 1.14705e-32 -2.02694e-32        00000 
-4.98995e-32  1.09306e-31        00000 
 2.00340e-31 -5.79109e-31        00000 
-7.01664e-31  3.00172e-30        00000 
 1.82470e-30 -1.51394e-29        00000 
-7.23946e-31  7.37641e-29        00000 
-3.29964e-29 -3.43871e-28        00000 
 3.06649e-28  1.51394e-27        00000 
-2.00295e-27 -6.18511e-27        00000 
 1.04609e-26  2.29080e-26        00000 
-4.29876e-26 -7.47105e-26        00000 
 1.30563e-25  2.07812e-25        00000 
-2.98602e-25 -4.77885e-25        00000 
 3.92653e-25  8.80264e-25        00000 
-5.51606e-25 -1.24392e-24        00000 
 3.75017e-25  1.22555e-24        00000 
 1.72842e-26 -5.39787e-25        00000 
-3.10937e-25 -7.10701e-25        00000 
 2.07460e-25  2.00339e-24        00000 
 2.66415e-25 -2.81750e-24        00000 
-7.82752e-25  3.08028e-24        00000 
 9.99458e-25 -3.10149e-24        00000 
-9.65478e-38  5.18556e-38        00000 
 2.72370e-37 -1.57006e-37        00000 
-1.42979e-36  8.96524e-37        00000 
 7.66880e-36 -5.24079e-36        00000 
-4.07331e-35  3.05395e-35        00000 
 2.13573e-34 -1.77131e-34        00000 
-1.10224e-33  1.02158e-33        00000 
 5.57806e-33 -5.85164e-33        00000 
-2.75348e-32  3.32411e-32        00000 
 1.31562e-31 -1.86917e-31        00000 
-6.01097e-31  1.03790e-30        00000 
 2.57035e-30 -5.67325e-30        00000 
-9.84269e-30  3.04003e-29        00000 
 3.02332e-29 -1.58808e-28        00000 
-4.96210e-29  8.02599e-28        00000 
-2.08350e-28 -3.88270e-27        00000 
 2.94730e-27  1.77103e-26        00000 
-2.32921e-26 -7.45419e-26        00000 
 1.35321e-25  2.80790e-25        00000 
-5.76760e-25 -9.09078e-25        00000 
 1.57268e-24  2.42080e-24        00000 
-2.99950e-24 -5.08480e-24        00000 
 3.91013e-24  8.03829e-24        00000 
-2.81835e-24 -8.75549e-24        00000 
-2.99635e-25  4.60270e-24        00000 
 2.85823e-24  4.04601e-24        00000 
-2.16607e-24 -1.29776e-23        00000 
-1.48356e-24  1.78259e-23        00000 
 5.30925e-24 -1.83582e-23        00000 
-6.85332e-24  1.78615e-23        00000 
 1.52755e-37 -6.24395e-38        00000 
-4.39997e-37  1.92448e-37        00000 
 2.37001e-36 -1.12226e-36        00000 
-1.30652e-35  6.70376e-36        00000 
 7.15608e-35 -3.99846e-35        00000 
-3.88509e-34  2.37846e-34        00000 
 2.08680e-33 -1.41011e-33        00000 
-1.10630e-32  8.32590e-33        00000 
 5.77053e-32 -4.89108e-32        00000 
-2.94882e-31  2.85515e-31        00000 
 1.46739e-30 -1.65347e-30        00000 
-7.04499e-30  9.47917e-30        00000 
 3.20964e-29 -5.36409e-29        00000 
-1.33675e-28  2.98441e-28        00000 
 4.57878e-28 -1.62356e-27        00000 
-1.06811e-27  8.56873e-27        00000 
 1.67124e-29 -4.33719e-26        00000 
 2.18514e-26  2.06936e-25        00000 
-2.66044e-25 -9.06218e-25        00000 
 1.80794e-24  3.49536e-24        00000 
-8.24863e-24 -1.11858e-23        00000 
 1.76329e-23  2.78838e-23        00000 
-2.78703e-23 -5.10204e-23        00000 
 2.26037e-23  6.28732e-23        00000 
 2.66907e-24 -3.88702e-23        00000 
-2.56051e-23 -2.27515e-23        00000 
 2.03732e-23  8.70209e-23        00000 
 8.91042e-24 -1.15299e-22        00000 
-3.66976e-23  1.08114e-22        00000 
 4.68482e-23 -9.90489e-23        00000 
-2.26319e-37  6.78340e-38        00000 
 6.63338e-37 -2.12561e-37        00000 
-3.65031e-36  1.26379e-36        00000 
 2.05854e-35 -7.70002e-36        00000 
-1.15641e-34  4.69102e-35        00000 
 6.45976e-34 -2.85498e-34        00000 
-3.58383e-33  1.73521e-33        00000 
 1.97175e-32 -1.05278e-32        00000 
-1.07369e-31  6.37267e-32        00000 
 5.77192e-31 -3.84588e-31        00000 
-3.05299e-30  2.31179e-30        00000 
 1.58200e-29 -1.38237e-29        00000 
-7.98547e-29  8.20841e-29        00000 
 3.89240e-28 -4.82829e-28        00000 
-1.78470e-27  2.80359e-27        00000 
 6.53726e-27 -1.59887e-26        00000 
-1.74130e-26  8.88743e-26        00000 
 3.00664e-26 -4.75821e-25        00000 
-2.75212e-26  2.40692e-24        00000 
-3.00406e-24 -1.11346e-23        00000 
 2.47509e-23  4.44901e-23        00000 
-9.30070e-23 -1.39494e-22        00000 
 1.99237e-22  3.12226e-22        00000 
-1.94777e-22 -4.53195e-22        00000 
-1.55385e-23  3.31900e-22        00000 
 2.31792e-22  1.22787e-22        00000 
-1.83552e-22 -6.10600e-22        00000 
-6.75408e-23  7.68672e-22        00000 
 2.59203e-22 -6.23184e-22        00000 
-3.11114e-22  5.11052e-22        00000 
 3.14383e-37 -6.44151e-38        00000 
-9.34662e-37  2.05251e-37        00000 
 5.23372e-36 -1.24397e-36        00000 
-3.00640e-35  7.72690e-36        00000 
 1.72384e-34 -4.80404e-35        00000 
-9.85308e-34  2.98762e-34        00000 
 5.61002e-33 -1.85834e-33        00000 
-3.17899e-32  1.15600e-32        00000 
 1.79075e-31 -7.19034e-32        00000 
-1.00121e-30  4.47086e-31        00000 
 5.54430e-30 -2.77794e-30        00000 
-3.03248e-29  1.72390e-29        00000 
 1.63297e-28 -1.06762e-28        00000 
-8.63979e-28  6.59084e-28        00000 
 4.52102e-27 -4.04886e-27        00000 
-2.40950e-26  2.46862e-26        00000 
 8.93260e-26 -1.48774e-25        00000 
-2.32359e-25  8.80378e-25        00000 
 5.07678e-25 -5.05842e-24        00000 
-7.83275e-24  2.76607e-23        00000 
-3.87097e-23 -1.38513e-22        00000 
 3.31599e-22  5.86028e-22        00000 
-1.38293e-21 -1.76387e-21        00000 
 1.80962e-21  3.25039e-21        00000 
-1.37881e-23 -2.92091e-21        00000 
-2.18991e-21 -5.77681e-22        00000 
 1.65173e-21  4.55252e-21        00000 
 7.39866e-22 -5.31905e-21        00000 
-1.87770e-21  3.43889e-21        00000 
 1.87596e-21 -2.26232e-21        00000 
-4.09921e-37  4.95640e-38        00000 
 1.23246e-36 -1.61350e-37        00000 
-6.99618e-36  1.00126e-36        00000 
 4.07726e-35 -6.36272e-36        00000 
-2.37554e-34  4.04838e-35        00000 
 1.38229e-33 -2.57804e-34        00000 
-8.03026e-33  1.64336e-33        00000 
 4.65563e-32 -1.04878e-32        00000 
-2.69215e-31  6.70202e-32        00000 
 1.55147e-30 -4.28907e-31        00000 
-8.90031e-30  2.74920e-30        00000 
 5.07330e-29 -1.76510e-29        00000 
-2.86499e-28  1.13517e-28        00000 
 1.59521e-27 -7.31192e-28        00000 
-8.70283e-27  4.71588e-27        00000 
 4.71738e-26 -3.04358e-26        00000 
-3.51645e-25  1.96326e-25        00000 
 1.34905e-24 -1.26290e-24        00000 
-6.70316e-24  8.06664e-24        00000 
 2.61322e-23 -5.07331e-23        00000 
-4.03353e-23  3.08658e-22        00000 
-8.76579e-22 -1.74334e-21        00000 
 8.05680e-21  8.17296e-21        00000 
-1.85371e-20 -2.24091e-20        00000 
 3.98598e-21  2.70996e-20        00000 
 2.30033e-20  1.16245e-21        00000 
-1.53582e-20 -3.71623e-20        00000 
-1.09027e-20  3.80776e-20        00000 
 1.36064e-20 -1.68620e-20        00000 
-8.33129e-21  6.79845e-21        00000 
 5.02241e-37 -2.28344e-38        00000 
-1.52269e-36  7.86959e-38        00000 
 8.73157e-36 -5.17040e-37        00000 
-5.14310e-35  3.45428e-36        00000 
 3.03193e-34 -2.30222e-35        00000 
-1.78744e-33  1.53145e-34        00000 
 1.05373e-32 -1.01760e-33        00000 
-6.21130e-32  6.75921e-33        00000 
 3.66058e-31 -4.49125e-32        00000 
-2.15657e-30  2.98740e-31        00000 
 1.26972e-29 -1.99055e-30        00000 
-7.46741e-29  1.32960e-29        00000 
 4.38189e-28 -8.90964e-29        00000 
-2.55814e-27  5.99440e-28        00000 
 1.47204e-26 -4.05284e-27        00000 
-8.01414e-26  2.75625e-26        00000 
 2.83130e-25 -1.88744e-25        00000 
-2.95619e-24  1.30281e-24        00000 
 1.64066e-23 -9.07286e-24        00000 
-8.78763e-23  6.37674e-23        00000 
 4.68001e-22 -4.51578e-22        00000 
-5.07691e-22  3.19665e-21        00000 
-7.90983e-21 -2.19309e-20        00000 
 1.66544e-19  1.26115e-19        00000 
-1.48938e-19 -2.71563e-19        00000 
-3.58261e-19  3.85387e-20        00000 
 2.04536e-19  3.58277e-19        00000 
 1.89257e-19 -2.69047e-19        00000 
-6.12111e-20  4.31239e-20        00000 
 2.44606e-20 -1.26293e-20        00000 
-5.78829e-37 -1.33477e-38        00000 
 1.76478e-36  3.52760e-38        00000 
-1.01884e-35 -1.65888e-37        00000 
 6.04377e-35  7.48374e-37        00000 
-3.59059e-34 -2.90668e-36        00000 
 2.13495e-33  7.14924e-36        00000 
-1.27060e-32  2.45690e-35        00000 
 7.56970e-32 -5.93815e-34        00000 
-4.51516e-31  6.54624e-33        00000 
 2.69706e-30 -5.94314e-32        00000 
-1.61392e-29  4.94337e-31        00000 
 9.68010e-29 -3.91960e-30        00000 
-5.82495e-28  3.02120e-29        00000 
 3.52292e-27 -2.29008e-28        00000 
-2.15027e-26  1.72045e-27        00000 
 1.34070e-25 -1.28870e-26        00000 
-9.03922e-25  9.67480e-26        00000 
 4.82183e-24 -7.31708e-25        00000 
-2.90935e-23  5.60655e-24        00000 
 1.73824e-22 -4.38254e-23        00000 
-1.01568e-21  3.52739e-22        00000 
 6.16520e-21 -2.96265e-21        00000 
-3.63680e-20  2.64948e-20        00000 
 6.43235e-20 -2.58991e-19        00000 
 4.29836e-18  2.31968e-18        00000 
 9.98282e-03 -4.98299e-20        00000 
 3.44044e-18 -5.65613e-18        00000 
-8.87374e-19  4.45587e-19        00000 
 1.50434e-19 -5.30286e-20        00000 
-4.75439e-20  1.38732e-20        00000 
 6.28150e-37  5.38710e-38        00000 
-1.92097e-36 -1.63975e-37        00000 
 1.11301e-35  9.44701e-37        00000 
-6.62712e-35 -5.59123e-36        00000 
 3.95303e-34  3.31300e-35        00000 
-2.36074e-33 -1.96384e-34        00000 
 1.41164e-32  1.16452e-33        00000 
-8.45344e-32 -6.90753e-33        00000 
 5.07066e-31  4.09838e-32        00000 
-3.04746e-30 -2.43205e-31        00000 
 1.83579e-29  1.44324e-30        00000 
-1.10912e-28 -8.56275e-30        00000 
 6.72742e-28  5.07742e-29        00000 
-4.10483e-27 -3.00736e-28        00000 
 2.53142e-26  1.77766e-27        00000 
-1.60016e-25 -1.04710e-26        00000 
 1.09962e-24  6.13029e-26        00000 
-6.19465e-24 -3.55027e-25        00000 
 3.89253e-23  2.01465e-24        00000 
-2.49634e-22 -1.09625e-23        00000 
 1.57918e-21  5.38264e-23        00000 
-1.02204e-20 -1.81203e-22        00000 
 8.22648e-20 -8.99583e-22        00000 
-7.54972e-19  4.31555e-20        00000 
-9.98282e-03 -1.31807e-17        00000 
 8.54322e-01  2.61341e-17        00000 
-9.98282e-03 -1.14419e-17        00000 
 1.51071e-18 -1.40820e-19        00000 
-2.16395e-19  2.47202e-20        00000 
 6.26795e-20 -7.69423e-21        00000 
-6.42510e-37 -9.20985e-38        00000 
 1.96605e-36  2.85522e-37        00000 
-1.13991e-35 -1.68123e-36        00000 
 6.79164e-35  1.01778e-35        00000 
-4.05373e-34 -6.17990e-35        00000 
 2.42231e-33  3.76202e-34        00000 
-1.44922e-32 -2.29663e-33        00000 
 8.68189e-32  1.40650e-32        00000 
-5.20852e-31 -8.64462e-32        00000 
 3.12955e-30  5.33482e-31        00000 
-1.88342e-29 -3.30762e-30        00000 
 1.13528e-28  2.06178e-29        00000 
-6.85222e-28 -1.29325e-28        00000 
 4.13659e-27  8.17165e-28        00000 
-2.48719e-26 -5.20875e-27        00000 
 1.46080e-25  3.35533e-26        00000 
-7.19966e-25 -2.18955e-25        00000 
 6.37213e-24  1.45211e-24        00000 
-4.00223e-23 -9.83239e-24        00000 
 2.52289e-22  6.84283e-23        00000 
-1.61901e-21 -4.94575e-22        00000 
 1.13644e-20  3.77718e-21        00000 
-7.88903e-20 -3.14891e-20        00000 
 4.54564e-19  3.08948e-19        00000 
-2.40824e-18 -4.86114e-18        00000 
 9.98282e-03 -2.36585e-18        00000 
 1.00765e-17  2.01631e-18        00000 
-1.23980e-18 -1.53278e-19        00000 
 1.89934e-19  8.47867e-21        00000 
-5.68121e-20 -1.44249e-22        00000 
 6.19988e-37  1.21649e-37        00000 
-1.89393e-36 -3.78840e-37        00000 
 1.09583e-35  2.24209e-36        00000 
-6.51465e-35 -1.36403e-35        00000 
 3.87888e-34  8.32376e-35        00000 
-2.31144e-33 -5.09263e-34        00000 
 1.37856e-32  3.12462e-33        00000 
-8.22893e-32 -1.92317e-32        00000 
 4.91624e-31  1.18783e-31        00000 
-2.93947e-30 -7.36522e-31        00000 
 1.75867e-29  4.58690e-30        00000 
-1.05253e-28 -2.87080e-29        00000 
 6.29664e-28  1.80688e-28        00000 
-3.76017e-27 -1.14459e-27        00000 
 2.23637e-26  7.30470e-27        00000 
-1.32743e-25 -4.70229e-26        00000 
 8.67747e-25  3.05793e-25        00000 
-5.41660e-24 -2.01268e-24        00000 
 3.28199e-23  1.34393e-23        00000 
-1.98567e-22 -9.13078e-23        00000 
 1.19869e-21  6.33358e-22        00000 
-6.81157e-21 -4.49904e-21        00000 
 3.80769e-20  3.26457e-20        00000 
-1.85446e-19 -2.31228e-19        00000 
 7.07091e-19  3.83849e-19        00000 
-8.09047e-19 -1.12469e-19        00000 
-2.03354e-19 -1.53022e-19        00000 
 4.81192e-19  9.67940e-20        00000 
-1.01112e-19 -1.42417e-20        00000 
 3.53158e-20  3.23486e-21        00000 
-5.64788e-37 -1.38147e-37        00000 
 1.71863e-36  4.29647e-37        00000 
-9.89774e-36 -2.53821e-36        00000 
 5.85558e-35  1.54085e-35        00000 
-3.46797e-34 -9.37785e-35        00000 
 2.05456e-33  5.71903e-34        00000 
-1.21752e-32 -3.49522e-33        00000 
 7.21647e-32  2.14107e-32        00000 
-4.27796e-31 -1.31483e-31        00000 
 2.53613e-30  8.09604e-31        00000 
-1.50343e-29 -4.99953e-30        00000 
 8.91127e-29  3.09692e-29        00000 
-5.28201e-28 -1.92468e-28        00000 
 3.13367e-27  1.20031e-27        00000 
-1.86723e-26 -7.51237e-27        00000 
 1.12739e-25  4.71836e-26        00000 
-6.55431e-25 -2.97296e-25        00000 
 3.94224e-24  1.87744e-24        00000 
-2.22630e-23 -1.18570e-23        00000 
 1.23815e-22  7.45239e-23        00000 
-6.63347e-22 -4.60854e-22        00000 
 3.14641e-21  2.72233e-21        00000 
-1.38816e-20 -1.39714e-20        00000 
 4.84815e-20  3.62580e-20        00000 
-9.04183e-20 -4.43703e-20        00000 
 8.13993e-20  1.91438e-20        00000 
 3.34990e-21  1.00012e-20        00000 
-4.55195e-20 -1.42082e-20        00000 
 3.06682e-20  5.94128e-21        00000 
-1.47835e-20 -2.24031e-21        00000 
 4.85960e-37  1.40268e-37        00000 
-1.46990e-36 -4.34000e-37        00000 
 8.40461e-36  2.54772e-36        00000 
-4.93519e-35 -1.53608e-35        00000 
 2.89925e-34  9.27735e-35        00000 
-1.70252e-33 -5.60889e-34        00000 
 9.99230e-33  3.39436e-33        00000 
-5.86073e-32 -2.05611e-32        00000 
 3.43474e-31  1.24655e-31        00000 
-2.01114e-30 -7.56296e-31        00000 
 1.17644e-29  4.59089e-30        00000 
-6.87564e-29 -2.78730e-29        00000 
 4.01652e-28  1.69173e-28        00000 
-2.34726e-27 -1.02566e-27        00000 
 1.37321e-26  6.20395e-27        00000 
-8.00370e-26 -3.73681e-26        00000 
 4.79073e-25  2.23440e-25        00000 