<?xml version="1.0" encoding="utf-8"?>
<VTKFile byte_order="LittleEndian" type="UnstructuredGrid" version="0.1">
   <UnstructuredGrid>
      <Piece NumberOfCells="3364" NumberOfPoints="1741">
         <Points>
            <DataArray Name="Points" NumberOfComponents="3" format="ascii" type="Float32">
0.0000 1.0000 0.0000
0.0000 1.0345 0.0000
0.0000 1.0690 0.0000
0.0000 1.1034 0.0000
0.0000 1.1379 0.0000
0.0000 1.1724 0.0000
0.0000 1.2069 0.0000
0.0000 1.2414 0.0000
0.0000 1.2759 0.0000
0.0000 1.3103 0.0000
0.0000 1.3448 0.0000
0.0000 1.3793 0.0000
0.0000 1.4138 0.0000
0.0000 1.4483 0.0000
0.0000 1.4828 0.0000
0.0000 1.5172 0.0000
0.0000 1.5517 0.0000
0.0000 1.5862 0.0000
0.0000 1.6207 0.0000
0.0000 1.6552 0.0000
0.0000 1.6897 0.0000
0.0000 1.7241 0.0000
0.0000 1.7586 0.0000
0.0000 1.7931 0.0000
0.0000 1.8276 0.0000
0.0000 1.8621 0.0000
0.0000 1.8966 0.0000
0.0000 1.9310 0.0000
0.0000 1.9655 0.0000
0.0000 2.0000 0.0000
0.0690 1.0000 0.0000
0.0690 1.0345 0.0000
0.0690 1.0690 0.0000
0.0690 1.1034 0.0000
0.0690 1.1379 0.0000
0.0690 1.1724 0.0000
0.0690 1.2069 0.0000
0.0690 1.2414 0.0000
0.0690 1.2759 0.0000
0.0690 1.3103 0.0000
0.0690 1.3448 0.0000
0.0690 1.3793 0.0000
0.0690 1.4138 0.0000
0.0690 1.4483 0.0000
0.0690 1.4828 0.0000
0.0690 1.5172 0.0000
0.0690 1.5517 0.0000
0.0690 1.5862 0.0000
0.0690 1.6207 0.0000
0.0690 1.6552 0.0000
0.0690 1.6897 0.0000
0.0690 1.7241 0.0000
0.0690 1.7586 0.0000
0.0690 1.7931 0.0000
0.0690 1.8276 0.0000
0.0690 1.8621 0.0000
0.0690 1.8966 0.0000
0.0690 1.9310 0.0000
0.0690 1.9655 0.0000
0.0690 2.0000 0.0000
0.1379 1.0000 0.0000
0.1379 1.0345 0.0000
0.1379 1.0690 0.0000
0.1379 1.1034 0.0000
0.1379 1.1379 0.0000
0.1379 1.1724 0.0000
0.1379 1.2069 0.0000
0.1379 1.2414 0.0000
0.1379 1.2759 0.0000
0.1379 1.3103 0.0000
0.1379 1.3448 0.0000
0.1379 1.3793 0.0000
0.1379 1.4138 0.0000
0.1379 1.4483 0.0000
0.1379 1.4828 0.0000
0.1379 1.5172 0.0000
0.1379 1.5517 0.0000
0.1379 1.5862 0.0000
0.1379 1.6207 0.0000
0.1379 1.6552 0.0000
0.1379 1.6897 0.0000
0.1379 1.7241 0.0000
0.1379 1.7586 0.0000
0.1379 1.7931 0.0000
0.1379 1.8276 0.0000
0.1379 1.8621 0.0000
0.1379 1.8966 0.0000
0.1379 1.9310 0.0000
0.1379 1.9655 0.0000
0.1379 2.0000 0.0000
0.2069 1.0000 0.0000
0.2069 1.0345 0.0000
0.2069 1.0690 0.0000
0.2069 1.1034 0.0000
0.2069 1.1379 0.0000
0.2069 1.1724 0.0000
0.2069 1.2069 0.0000
0.2069 1.2414 0.0000
0.2069 1.2759 0.0000
0.2069 1.3103 0.0000
0.2069 1.3448 0.0000
0.2069 1.3793 0.0000
0.2069 1.4138 0.0000
0.2069 1.4483 0.0000
0.2069 1.4828 0.0000
0.2069 1.5172 0.0000
0.2069 1.5517 0.0000
0.2069 1.5862 0.0000
0.2069 1.6207 0.0000
0.2069 1.6552 0.0000
0.2069 1.6897 0.0000
0.2069 1.7241 0.0000
0.2069 1.7586 0.0000
0.2069 1.7931 0.0000
0.2069 1.8276 0.0000
0.2069 1.8621 0.0000
0.2069 1.8966 0.0000
0.2069 1.9310 0.0000
0.2069 1.9655 0.0000
0.2069 2.0000 0.0000
0.2759 1.0000 0.0000
0.2759 1.0345 0.0000
0.2759 1.0690 0.0000
0.2759 1.1034 0.0000
0.2759 1.1379 0.0000
0.2759 1.1724 0.0000
0.2759 1.2069 0.0000
0.2759 1.2414 0.0000
0.2759 1.2759 0.0000
0.2759 1.3103 0.0000
0.2759 1.3448 0.0000
0.2759 1.3793 0.0000
0.2759 1.4138 0.0000
0.2759 1.4483 0.0000
0.2759 1.4828 0.0000
0.2759 1.5172 0.0000
0.2759 1.5517 0.0000
0.2759 1.5862 0.0000
0.2759 1.6207 0.0000
0.2759 1.6552 0.0000
0.2759 1.6897 0.0000
0.2759 1.7241 0.0000
0.2759 1.7586 0.0000
0.2759 1.7931 0.0000
0.2759 1.8276 0.0000
0.2759 1.8621 0.0000
0.2759 1.8966 0.0000
0.2759 1.9310 0.0000
0.2759 1.9655 0.0000
0.2759 2.0000 0.0000
0.3448 1.0000 0.0000
0.3448 1.0345 0.0000
0.3448 1.0690 0.0000
0.3448 1.1034 0.0000
0.3448 1.1379 0.0000
0.3448 1.1724 0.0000
0.3448 1.2069 0.0000
0.3448 1.2414 0.0000
0.3448 1.2759 0.0000
0.3448 1.3103 0.0000
0.3448 1.3448 0.0000
0.3448 1.3793 0.0000
0.3448 1.4138 0.0000
0.3448 1.4483 0.0000
0.3448 1.4828 0.0000
0.3448 1.5172 0.0000
0.3448 1.5517 0.0000
0.3448 1.5862 0.0000
0.3448 1.6207 0.0000
0.3448 1.6552 0.0000
0.3448 1.6897 0.0000
0.3448 1.7241 0.0000
0.3448 1.7586 0.0000
0.3448 1.7931 0.0000
0.3448 1.8276 0.0000
0.3448 1.8621 0.0000
0.3448 1.8966 0.0000
0.3448 1.9310 0.0000
0.3448 1.9655 0.0000
0.3448 2.0000 0.0000
0.4138 1.0000 0.0000
0.4138 1.0345 0.0000
0.4138 1.0690 0.0000
0.4138 1.1034 0.0000
0.4138 1.1379 0.0000
0.4138 1.1724 0.0000
0.4138 1.2069 0.0000
0.4138 1.2414 0.0000
0.4138 1.2759 0.0000
0.4138 1.3103 0.0000
0.4138 1.3448 0.0000
0.4138 1.3793 0.0000
0.4138 1.4138 0.0000
0.4138 1.4483 0.0000
0.4138 1.4828 0.0000
0.4138 1.5172 0.0000
0.4138 1.5517 0.0000
0.4138 1.5862 0.0000
0.4138 1.6207 0.0000
0.4138 1.6552 0.0000
0.4138 1.6897 0.0000
0.4138 1.7241 0.0000
0.4138 1.7586 0.0000
0.4138 1.7931 0.0000
0.4138 1.8276 0.0000
0.4138 1.8621 0.0000
0.4138 1.8966 0.0000
0.4138 1.9310 0.0000
0.4138 1.9655 0.0000
0.4138 2.0000 0.0000
0.4828 1.0000 0.0000
0.4828 1.0345 0.0000
0.4828 1.0690 0.0000
0.4828 1.1034 0.0000
0.4828 1.1379 0.0000
0.4828 1.1724 0.0000
0.4828 1.2069 0.0000
0.4828 1.2414 0.0000
0.4828 1.2759 0.0000
0.4828 1.3103 0.0000
0.4828 1.3448 0.0000
0.4828 1.3793 0.0000
0.4828 1.4138 0.0000
0.4828 1.4483 0.0000
0.4828 1.4828 0.0000
0.4828 1.5172 0.0000
0.4828 1.5517 0.0000
0.4828 1.5862 0.0000
0.4828 1.6207 0.0000
0.4828 1.6552 0.0000
0.4828 1.6897 0.0000
0.4828 1.7241 0.0000
0.4828 1.7586 0.0000
0.4828 1.7931 0.0000
0.4828 1.8276 0.0000
0.4828 1.8621 0.0000
0.4828 1.8966 0.0000
0.4828 1.9310 0.0000
0.4828 1.9655 0.0000
0.4828 2.0000 0.0000
0.5517 1.0000 0.0000
0.5517 1.0345 0.0000
0.5517 1.0690 0.0000
0.5517 1.1034 0.0000
0.5517 1.1379 0.0000
0.5517 1.1724 0.0000
0.5517 1.2069 0.0000
0.5517 1.2414 0.0000
0.5517 1.2759 0.0000
0.5517 1.3103 0.0000
0.5517 1.3448 0.0000
0.5517 1.3793 0.0000
0.5517 1.4138 0.0000
0.5517 1.4483 0.0000
0.5517 1.4828 0.0000
0.5517 1.5172 0.0000
0.5517 1.5517 0.0000
0.5517 1.5862 0.0000
0.5517 1.6207 0.0000
0.5517 1.6552 0.0000
0.5517 1.6897 0.0000
0.5517 1.7241 0.0000
0.5517 1.7586 0.0000
0.5517 1.7931 0.0000
0.5517 1.8276 0.0000
0.5517 1.8621 0.0000
0.5517 1.8966 0.0000
0.5517 1.9310 0.0000
0.5517 1.9655 0.0000
0.5517 2.0000 0.0000
0.6207 1.0000 0.0000
0.6207 1.0345 0.0000
0.6207 1.0690 0.0000
0.6207 1.1034 0.0000
0.6207 1.1379 0.0000
0.6207 1.1724 0.0000
0.6207 1.2069 0.0000
0.6207 1.2414 0.0000
0.6207 1.2759 0.0000
0.6207 1.3103 0.0000
0.6207 1.3448 0.0000
0.6207 1.3793 0.0000
0.6207 1.4138 0.0000
0.6207 1.4483 0.0000
0.6207 1.4828 0.0000
0.6207 1.5172 0.0000
0.6207 1.5517 0.0000
0.6207 1.5862 0.0000
0.6207 1.6207 0.0000
0.6207 1.6552 0.0000
0.6207 1.6897 0.0000
0.6207 1.7241 0.0000
0.6207 1.7586 0.0000
0.6207 1.7931 0.0000
0.6207 1.8276 0.0000
0.6207 1.8621 0.0000
0.6207 1.8966 0.0000
0.6207 1.9310 0.0000
0.6207 1.9655 0.0000
0.6207 2.0000 0.0000
0.6897 1.0000 0.0000
0.6897 1.0345 0.0000
0.6897 1.0690 0.0000
0.6897 1.1034 0.0000
0.6897 1.1379 0.0000
0.6897 1.1724 0.0000
0.6897 1.2069 0.0000
0.6897 1.2414 0.0000
0.6897 1.2759 0.0000
0.6897 1.3103 0.0000
0.6897 1.3448 0.0000
0.6897 1.3793 0.0000
0.6897 1.4138 0.0000
0.6897 1.4483 0.0000
0.6897 1.4828 0.0000
0.6897 1.5172 0.0000
0.6897 1.5517 0.0000
0.6897 1.5862 0.0000
0.6897 1.6207 0.0000
0.6897 1.6552 0.0000
0.6897 1.6897 0.0000
0.6897 1.7241 0.0000
0.6897 1.7586 0.0000
0.6897 1.7931 0.0000
0.6897 1.8276 0.0000
0.6897 1.8621 0.0000
0.6897 1.8966 0.0000
0.6897 1.9310 0.0000
0.6897 1.9655 0.0000
0.6897 2.0000 0.0000
0.7586 1.0000 0.0000
0.7586 1.0345 0.0000
0.7586 1.0690 0.0000
0.7586 1.1034 0.0000
0.7586 1.1379 0.0000
0.7586 1.1724 0.0000
0.7586 1.2069 0.0000
0.7586 1.2414 0.0000
0.7586 1.2759 0.0000
0.7586 1.3103 0.0000
0.7586 1.3448 0.0000
0.7586 1.3793 0.0000
0.7586 1.4138 0.0000
0.7586 1.4483 0.0000
0.7586 1.4828 0.0000
0.7586 1.5172 0.0000
0.7586 1.5517 0.0000
0.7586 1.5862 0.0000
0.7586 1.6207 0.0000
0.7586 1.6552 0.0000
0.7586 1.6897 0.0000
0.7586 1.7241 0.0000
0.7586 1.7586 0.0000
0.7586 1.7931 0.0000
0.7586 1.8276 0.0000
0.7586 1.8621 0.0000
0.7586 1.8966 0.0000
0.7586 1.9310 0.0000
0.7586 1.9655 0.0000
0.7586 2.0000 0.0000
0.8276 1.0000 0.0000
0.8276 1.0345 0.0000
0.8276 1.0690 0.0000
0.8276 1.1034 0.0000
0.8276 1.1379 0.0000
0.8276 1.1724 0.0000
0.8276 1.2069 0.0000
0.8276 1.2414 0.0000
0.8276 1.2759 0.0000
0.8276 1.3103 0.0000
0.8276 1.3448 0.0000
0.8276 1.3793 0.0000
0.8276 1.4138 0.0000
0.8276 1.4483 0.0000
0.8276 1.4828 0.0000
0.8276 1.5172 0.0000
0.8276 1.5517 0.0000
0.8276 1.5862 0.0000
0.8276 1.6207 0.0000
0.8276 1.6552 0.0000
0.8276 1.6897 0.0000
0.8276 1.7241 0.0000
0.8276 1.7586 0.0000
0.8276 1.7931 0.0000
0.8276 1.8276 0.0000
0.8276 1.8621 0.0000
0.8276 1.8966 0.0000
0.8276 1.9310 0.0000
0.8276 1.9655 0.0000
0.8276 2.0000 0.0000
0.8966 1.0000 0.0000
0.8966 1.0345 0.0000
0.8966 1.0690 0.0000
0.8966 1.1034 0.0000
0.8966 1.1379 0.0000
0.8966 1.1724 0.0000
0.8966 1.2069 0.0000
0.8966 1.2414 0.0000
0.8966 1.2759 0.0000
0.8966 1.3103 0.0000
0.8966 1.3448 0.0000
0.8966 1.3793 0.0000
0.8966 1.4138 0.0000
0.8966 1.4483 0.0000
0.8966 1.4828 0.0000
0.8966 1.5172 0.0000
0.8966 1.5517 0.0000
0.8966 1.5862 0.0000
0.8966 1.6207 0.0000
0.8966 1.6552 0.0000
0.8966 1.6897 0.0000
0.8966 1.7241 0.0000
0.8966 1.7586 0.0000
0.8966 1.7931 0.0000
0.8966 1.8276 0.0000
0.8966 1.8621 0.0000
0.8966 1.8966 0.0000
0.8966 1.9310 0.0000
0.8966 1.9655 0.0000
0.8966 2.0000 0.0000
0.9655 1.0000 0.0000
0.9655 1.0345 0.0000
0.9655 1.0690 0.0000
0.9655 1.1034 0.0000
0.9655 1.1379 0.0000
0.9655 1.1724 0.0000
0.9655 1.2069 0.0000
0.9655 1.2414 0.0000
0.9655 1.2759 0.0000
0.9655 1.3103 0.0000
0.9655 1.3448 0.0000
0.9655 1.3793 0.0000
0.9655 1.4138 0.0000
0.9655 1.4483 0.0000
0.9655 1.4828 0.0000
0.9655 1.5172 0.0000
0.9655 1.5517 0.0000
0.9655 1.5862 0.0000
0.9655 1.6207 0.0000
0.9655 1.6552 0.0000
0.9655 1.6897 0.0000
0.9655 1.7241 0.0000
0.9655 1.7586 0.0000
0.9655 1.7931 0.0000
0.9655 1.8276 0.0000
0.9655 1.8621 0.0000
0.9655 1.8966 0.0000
0.9655 1.9310 0.0000
0.9655 1.9655 0.0000
0.9655 2.0000 0.0000
1.0345 1.0000 0.0000
1.0345 1.0345 0.0000
1.0345 1.0690 0.0000
1.0345 1.1034 0.0000
1.0345 1.1379 0.0000
1.0345 1.1724 0.0000
1.0345 1.2069 0.0000
1.0345 1.2414 0.0000
1.0345 1.2759 0.0000
1.0345 1.3103 0.0000
1.0345 1.3448 0.0000
[...]
         <PointData>
            <DataArray Name="fValues" NumberOfComponents="3" format="ascii" type="Float64">
 1.64303e-31  1.77390e-29        00000 
-1.78687e-31 -1.78899e-29        00000 
 2.16459e-31  1.81509e-29        00000 
-2.63519e-31 -1.81047e-29        00000 
 3.02363e-31  1.72655e-29        00000 
-3.18581e-31 -1.48126e-29        00000 
 3.05823e-31  1.36567e-29        00000 
-2.67170e-31 -1.07205e-29        00000 
 2.12625e-31  7.27743e-30        00000 
-1.54406e-31 -4.37290e-30        00000 
 1.02497e-31  2.42395e-30        00000 
-6.23144e-32 -1.28795e-30        00000 
 3.47688e-32  6.63027e-31        00000 
-1.78457e-32 -3.27650e-31        00000 
 8.44871e-33  1.53618e-31        00000 
-3.70104e-33 -6.77408e-32        00000 
 1.50556e-33  2.79773e-32        00000 
-5.71046e-34 -1.08187e-32        00000 
 2.02851e-34  3.92414e-33        00000 
-6.78053e-35 -1.33880e-33        00000 
 2.14309e-35  4.31098e-34        00000 
-6.43588e-36 -1.31544e-34        00000 
 1.84502e-36  3.82039e-35        00000 
-5.07159e-37 -1.06083e-35        00000 
 1.34222e-37  2.82865e-36        00000 
-3.43297e-38 -7.27235e-37        00000 
 8.51552e-39  1.80971e-37        00000 
-2.05952e-39 -4.38394e-38        00000 
 5.08317e-40  1.08239e-38        00000 
-2.22329e-40 -4.73242e-39        00000 
-4.61176e-31 -5.27933e-29        00000 
 5.10261e-31  5.34898e-29        00000 
-6.39151e-31 -5.47952e-29        00000 
 7.99653e-31  5.50383e-29        00000 
-9.31986e-31 -5.31775e-29        00000 
 9.87352e-31  4.74066e-29        00000 
-9.45251e-31 -4.28136e-29        00000 
 8.17920e-31  3.26271e-29        00000 
-6.40833e-31 -2.10846e-29        00000 
 4.55590e-31  1.19942e-29        00000 
-2.94543e-31 -6.44616e-30        00000 
 1.73566e-31  3.38784e-30        00000 
-9.34592e-32 -1.72243e-30        00000 
 4.61183e-32  8.34084e-31        00000 
-2.09259e-32 -3.79852e-31        00000 
 8.76505e-33  1.61469e-31        00000 
-3.40427e-33 -6.39857e-32        00000 
 1.23210e-33  2.36821e-32        00000 
-4.17763e-34 -8.21092e-33        00000 
 1.33432e-34  2.67655e-33        00000 
-4.03659e-35 -8.23900e-34        00000 
 1.16276e-35  2.40675e-34        00000 
-3.20514e-36 -6.70592e-35        00000 
 8.49304e-37  1.79097e-35        00000 
-2.17237e-37 -4.60548e-36        00000 
 5.38354e-38  1.14497e-36        00000 
-1.29699e-38 -2.76254e-37        00000 
 3.05294e-39  6.50416e-38        00000 
-7.33669e-40 -1.56189e-38        00000 
 3.14314e-40  6.68407e-39        00000 
 2.38617e-30  2.95356e-28        00000 
-2.70678e-30 -3.01142e-28        00000 
 3.54878e-30  3.13229e-28        00000 
-4.59694e-30 -3.17314e-28        00000 
 5.45950e-30  3.05644e-28        00000 
-5.81886e-30 -2.88030e-28        00000 
 5.54883e-30  2.54690e-28        00000 
-4.74259e-30 -1.88458e-28        00000 
 3.64281e-30  1.11782e-28        00000 
-2.52126e-30 -5.94566e-29        00000 
 1.57648e-30  3.16346e-29        00000 
-8.92952e-31 -1.64938e-29        00000 
 4.59577e-31  8.23721e-30        00000 
-2.15684e-31 -3.87436e-30        00000 
 9.26888e-32  1.69190e-30        00000 
-3.66525e-32 -6.83949e-31        00000 
 1.34108e-32  2.56593e-31        00000 
-4.56791e-33 -8.96478e-32        00000 
 1.45764e-33  2.92772e-32        00000 
-4.38561e-34 -8.98067e-33        00000 
 1.25183e-34  2.60240e-33        00000 
-3.40963e-35 -7.16739e-34        00000 
 8.90862e-36  1.88718e-34        00000 
-2.24340e-36 -4.77537e-35        00000 
 5.46785e-37  1.16669e-35        00000 
-1.29460e-37 -2.76373e-36        00000 
 2.98744e-38  6.37284e-37        00000 
-6.75042e-39 -1.43784e-37        00000 
 1.55693e-39  3.30916e-38        00000 
-6.45490e-40 -1.36912e-38        00000 
-1.24418e-29 -1.69046e-27        00000 
 1.45796e-29  1.73595e-27        00000 
-2.01981e-29 -1.83786e-27        00000 
 2.71946e-29  1.90372e-27        00000 
-3.29400e-29 -1.78370e-27        00000 
 3.53086e-29  1.66742e-27        00000 
-3.35020e-29 -1.61321e-27        00000 
 2.82359e-29  1.11885e-27        00000 
-2.12135e-29 -5.63804e-28        00000 
 1.42530e-29  3.00823e-28        00000 
-8.59073e-30 -1.60982e-28        00000 
 4.66032e-30  8.28065e-29        00000 
-2.28404e-30 -4.05436e-29        00000 
 1.01587e-30  1.83451e-29        00000 
-4.12224e-31 -7.61976e-30        00000 
 1.53557e-31  2.91670e-30        00000 
-5.28739e-32 -1.03364e-30        00000 
 1.69527e-32  3.40296e-31        00000 
-5.09903e-33 -1.04604e-31        00000 
 1.44915e-33  3.02213e-32        00000 
-3.91759e-34 -8.26561e-33        00000 
 1.01351e-34  2.15492e-33        00000 
-2.52270e-35 -5.38811e-34        00000 
 6.06960e-36  1.29863e-34        00000 
-1.41735e-36 -3.03131e-35        00000 
 3.22358e-37  6.88269e-36        00000 
-7.16299e-38 -1.52594e-36        00000 
 1.56172e-38  3.31840e-37        00000 
-3.47525e-39 -7.36198e-38        00000 
 1.39978e-39  2.95711e-38        00000 
 6.28461e-29  9.62654e-27        00000 
-7.70871e-29 -9.97154e-27        00000 
 1.14580e-28  1.07696e-26        00000 
-1.61349e-28 -1.14251e-26        00000 
 1.99692e-28  1.11877e-26        00000 
-2.15248e-28 -7.78420e-27        00000 
 2.02925e-28  1.27339e-26        00000 
-1.68210e-28 -5.35952e-27        00000 
 1.23150e-28  2.77758e-27        00000 
-7.99405e-29 -1.56101e-27        00000 
 4.61822e-29  8.11534e-28        00000 
-2.38416e-29 -4.16942e-28        00000 
 1.10521e-29  1.97253e-28        00000 
-4.62720e-30 -8.46267e-29        00000 
 1.76181e-30  3.31520e-29        00000 
-6.14888e-31 -1.19570e-29        00000 
 1.98405e-31  3.97846e-30        00000 
-5.97086e-32 -1.22723e-30        00000 
 1.69017e-32  3.53691e-31        00000 
-4.53554e-33 -9.60653e-32        00000 
 1.16190e-33  2.47953e-32        00000 
-2.85881e-34 -6.12649e-33        00000 
 6.79141e-35  1.45680e-33        00000 
-1.56471e-35 -3.35136e-34        00000 
 3.50967e-36  7.49575e-35        00000 
-7.68906e-37 -1.63727e-35        00000 
 1.65003e-37  3.50281e-36        00000 
-3.48181e-38 -7.36768e-37        00000 
 7.50090e-39  1.58135e-37        00000 
-2.94316e-39 -6.18379e-38        00000 
-3.02029e-28 -5.44163e-26        00000 
 3.96621e-28  5.69857e-26        00000 
-6.46518e-28 -6.30230e-26        00000 
 9.59540e-28  6.84075e-26        00000 
-1.21611e-27 -6.87211e-26        00000 
 1.31804e-27  6.18487e-26        00000 
-1.23246e-27 -4.83964e-26        00000 
 1.00149e-27  3.08884e-26        00000 
-7.11116e-28 -1.57748e-26        00000 
 4.43274e-28  7.62952e-27        00000 
-2.43695e-28 -4.16970e-27        00000 
 1.18778e-28  2.09252e-27        00000 
-5.16516e-29 -9.34926e-28        00000 
 2.01950e-29  3.75326e-28        00000 
-7.16412e-30 -1.38308e-28        00000 
 2.32933e-30  4.66441e-29        00000 
-7.01460e-31 -1.44532e-29        00000 
 1.97648e-31  4.15360e-30        00000 
-5.25931e-32 -1.11897e-30        00000 
 1.33246e-32  2.85495e-31        00000 
-3.23667e-33 -6.95861e-32        00000 
 7.58263e-34  1.63080e-32        00000 
-1.72175e-34 -3.69226e-33        00000 
 3.80500e-35  8.12256e-34        00000 
-8.21282e-36 -1.74678e-34        00000 
 1.73647e-36  3.68083e-35        00000 
-3.60568e-37 -7.61618e-36        00000 
 7.37853e-38  1.55256e-36        00000 
-1.54225e-38 -3.23074e-37        00000 
 5.90492e-39  1.23197e-37        00000 
 1.33519e-27  3.04663e-25        00000 
-1.96005e-27 -3.23596e-25        00000 
 3.62141e-27  3.68528e-25        00000 
-5.71972e-27 -4.10271e-25        00000 
 7.44406e-27  4.18046e-25        00000 
-8.11198e-27 -3.75732e-25        00000 
 7.50685e-27  2.88530e-25        00000 
-5.95469e-27 -1.78221e-25        00000 
 4.07582e-27  6.53308e-26        00000 
-2.42093e-27 -3.99983e-26        00000 
 1.25516e-27  2.16989e-26        00000 
-5.71969e-28 -1.03104e-26        00000 
 2.31066e-28  4.21903e-27        00000 
-8.36261e-29 -1.59770e-27        00000 
 2.74424e-29  5.48568e-28        00000 
-8.27015e-30 -1.70968e-28        00000 
 2.31740e-30  4.89631e-29        00000 
-6.10585e-31 -1.30600e-29        00000 
 1.52733e-31  3.28672e-30        00000 
-3.65643e-32 -7.88753e-31        00000 
 8.43356e-33  1.81910e-31        00000 
-1.88440e-33 -4.04607e-32        00000 
 4.09743e-34  8.72987e-33        00000 
-8.70260e-35 -1.84713e-33        00000 
 1.81110e-35  3.83125e-34        00000 
-3.70274e-36 -7.80364e-35        00000 
 7.45367e-37  1.56422e-35        00000 
-1.48194e-37 -3.09541e-36        00000 
 3.01126e-38  6.25647e-37        00000 
-1.12673e-38 -2.32983e-37        00000 
-4.99344e-27 -1.68410e-24        00000 
 9.08047e-27  1.82259e-24        00000 
-2.00720e-26 -2.15362e-24        00000 
 3.41662e-26  2.46979e-24        00000 
-4.58351e-26 -2.55268e-24        00000 
 5.02241e-26  2.29043e-24        00000 
-4.58659e-26 -1.73299e-24        00000 
 3.53182e-26  1.02499e-24        00000 
-2.31171e-26 -3.73537e-25        00000 
 1.29525e-26  2.10712e-25        00000 
-6.26058e-27 -1.15728e-25        00000 
 2.63556e-27  4.67244e-26        00000 
-9.78085e-28 -1.83887e-26        00000 
 3.24653e-28  6.47715e-27        00000 
-9.79175e-29 -2.03348e-27        00000 
 2.72531e-29  5.79873e-28        00000 
-7.09681e-30 -1.52757e-28        00000 
 1.74907e-30  3.78192e-29        00000 
-4.11827e-31 -8.90712e-30        00000 
 9.33375e-32  2.02010e-30        00000 
-2.04863e-32 -4.40956e-31        00000 
 4.37589e-33  9.27212e-32        00000 
-9.13269e-34 -1.93258e-32        00000 
 1.86845e-34  3.94333e-33        00000 
-3.75743e-35 -7.89844e-34        00000 
 7.44396e-36  1.55721e-34        00000 
-1.45566e-36 -3.02876e-35        00000 
 2.81738e-37  5.82866e-36        00000 
-5.57664e-38 -1.14657e-36        00000 
 2.04236e-38  4.17627e-37        00000 
 1.10964e-26  9.14778e-24        00000 
-3.73556e-26 -1.01562e-23        00000 
 1.09438e-25  1.25765e-23        00000 
-2.04368e-25 -1.49364e-23        00000 
 2.84162e-25  1.56849e-23        00000 
-3.13189e-25 -1.40263e-23        00000 
 2.81157e-25  1.03652e-23        00000 
-2.08577e-25 -6.00519e-24        00000 
 1.29142e-25  1.40091e-24        00000 
-6.73485e-26 -1.42834e-24        00000 
 2.99031e-26  4.96783e-25        00000 
-1.14623e-26 -2.09891e-25        00000 
 3.86030e-27  7.69468e-26        00000 
-1.16530e-27 -2.43481e-26        00000 
 3.21613e-28  6.90983e-27        00000 
-8.25725e-29 -1.78984e-27        00000 
 1.99993e-29  4.35012e-28        00000 
-4.61982e-30 -9.99861e-29        00000 
 1.02652e-30  2.22561e-29        00000 
-2.20872e-31 -4.80019e-30        00000 
 4.62640e-32  9.64037e-31        00000 
-9.47341e-33 -1.99974e-31        00000 
 1.90287e-33  4.00849e-32        00000 
-3.75977e-34 -7.88175e-33        00000 
 7.32404e-35  1.52628e-33        00000 
-1.40929e-35 -2.91810e-34        00000 
 2.68296e-36  5.51881e-35        00000 
-5.06555e-37 -1.03506e-35        00000 
 9.78754e-38  1.98612e-36        00000 
-3.51425e-38 -7.08883e-37        00000 
 4.83312e-26 -4.84481e-23        00000 
 1.14896e-25  5.58018e-23        00000 
-5.80201e-25 -7.33902e-23        00000 
 1.22212e-24  9.07747e-23        00000 
-1.77641e-24 -9.71115e-23        00000 
 1.97043e-24  8.63898e-23        00000 
-1.72925e-24 -6.18777e-23        00000 
 1.22266e-24  3.32354e-23        00000 
-7.05359e-25 -1.21083e-23        00000 
 3.36230e-25  4.41778e-24        00000 
-1.34566e-25 -2.37274e-24        00000 
 4.61930e-26  9.21180e-25        00000 
-1.39566e-26 -2.95349e-25        00000 
 3.81054e-27  8.27118e-26        00000 
-9.61510e-28 -2.10595e-26        00000 
 2.28116e-28  5.00396e-27        00000 
-5.15427e-29 -1.12779e-27        00000 
 1.11985e-29  2.43837e-28        00000 
-2.35672e-30 -5.09834e-29        00000 
 4.83126e-31  1.03786e-29        00000 
-9.69029e-32 -2.06398e-30        00000 
 1.90835e-32  4.01986e-31        00000 
-3.70040e-33 -7.73394e-32        00000 
 7.08107e-34  1.46842e-32        00000 
-1.33974e-34 -2.75665e-33        00000 
 2.51005e-35  5.12510e-34        00000 
-4.66292e-36 -9.44969e-35        00000 
 8.60679e-37  1.73157e-35        00000 
-1.62687e-37 -3.24921e-36        00000 
 5.73670e-38  1.13872e-36        00000 
-9.52502e-25  2.46384e-22        00000 
 2.37932e-27 -3.00981e-22        00000 
 2.91537e-24  4.28390e-22        00000 
-7.28264e-24 -5.53766e-22        00000 
 1.12233e-23  6.06633e-22        00000 
-1.25392e-23 -5.37428e-22        00000 
 1.06673e-23  3.65344e-22        00000 
-7.07486e-24 -1.84447e-22        00000 
 3.72094e-24  2.46044e-23        00000 
-1.58131e-24 -2.70856e-23        00000 
 5.57277e-25  1.12060e-23        00000 
-1.68519e-25 -3.62944e-24        00000 
 4.53560e-26  9.98463e-25        00000 
-1.11992e-26 -2.47480e-25        00000 
 2.59195e-27  5.71396e-26        00000 
-5.70781e-28 -1.25192e-26        00000 
 1.20887e-28  2.63358e-27        00000 
-2.48189e-29 -5.36329e-28        00000 
 4.96887e-30  1.06405e-28        00000 
-9.74501e-31 -2.06679e-29        00000 
 1.87887e-31  3.94574e-30        00000 
-3.57123e-32 -7.42542e-31        00000 
 6.70687e-33  1.38081e-31        00000 
-1.24677e-33 -2.54325e-32        00000 
 2.29753e-34  4.64574e-33        00000 
-4.20212e-35 -8.42630e-34        00000 
 7.63587e-36  1.51911e-34        00000 
-1.38101e-36 -2.72709e-35        00000 
 2.55949e-37  5.01798e-36        00000 
-8.87958e-38 -1.73065e-36        00000 
 9.07501e-24 -1.16116e-21        00000 
-4.32182e-24  1.58201e-21        00000 
-1.29646e-23 -2.51931e-21        00000 
 4.29649e-23  3.37144e-21        00000 
-7.19414e-23 -3.82116e-21        00000 
 8.10151e-23  3.41819e-21        00000 
-6.58988e-23 -2.11473e-21        00000 
 3.99913e-23  8.94851e-22        00000 
-1.85583e-23 -3.39743e-22        00000 
 6.79648e-24  1.39110e-22        00000 
-2.05669e-24 -4.54953e-23        00000 
 5.42666e-25  1.21529e-23        00000 
-1.30338e-25 -2.90407e-24        00000 
 2.92741e-26  6.47523e-25        00000 
-6.25586e-27 -1.37281e-25        00000 
 1.28701e-27  2.79910e-26        00000 
-2.57040e-28 -5.53370e-27        00000 
 5.01418e-29  1.06754e-27        00000 
-9.59785e-30 -2.01996e-28        00000 
 1.80905e-30  3.76368e-29        00000 
-3.36674e-31 -6.92624e-30        00000 
 6.19987e-32  1.26197e-30        00000 
-1.13164e-32 -2.28044e-31        00000 
 2.05015e-33  4.09227e-32        00000 
-3.69057e-34 -7.30078e-33        00000 
 6.60734e-35  1.29611e-33        00000 
-1.17740e-35 -2.29180e-34        00000 
 2.09142e-36  4.04263e-35        00000 
-3.80926e-37 -7.31606e-36        00000 
 1.30264e-37  2.48911e-36        00000 
-6.57381e-23  6.05349e-21        00000 
 5.17135e-23 -6.49139e-21        00000 
 3.84170e-23  1.66222e-20        00000 
-2.47492e-22 -1.91863e-20        00000 
 4.71099e-22  2.45820e-20        00000 
-5.34441e-22 -2.27584e-20        00000 
 4.05791e-22  1.16919e-20        00000 
-2.16181e-22 -2.99155e-21        00000 
 8.41513e-23  1.71304e-21        00000 
-2.54755e-23 -5.86274e-22        00000 
 6.52836e-24  1.49037e-22        00000 
-1.51251e-24 -3.38674e-23        00000 
 3.27532e-25  7.24599e-24        00000 
-6.75793e-26 -1.48000e-24        00000 
 1.34516e-26  2.91408e-25        00000 
-2.60531e-27 -5.57372e-26        00000 
 4.94008e-28  1.04248e-26        00000 
-9.21203e-29 -1.91707e-27        00000 
 1.69506e-29  3.48050e-28        00000 
-3.08556e-30 -6.25479e-29        00000 
 5.56748e-31  1.11551e-29        00000 
-9.97304e-32 -1.97706e-30        00000 
 1.77570e-32  3.48534e-31        00000 
-3.14561e-33 -6.11642e-32        00000 
 5.54853e-34  1.06942e-32        00000 
-9.75131e-35 -1.86477e-33        00000 
 1.70844e-35  3.24519e-34        00000 
-2.98771e-36 -5.64378e-35        00000 
 5.36054e-37  1.00769e-35        00000 
-1.81039e-37 -3.38997e-36        00000 
 3.56236e-22 -2.00729e-20        00000 
-4.47274e-22  3.44552e-20        00000 
 1.37798e-22 -7.31318e-20        00000 
 1.34242e-21  1.17334e-19        00000 
-3.19288e-21 -1.27122e-19        00000 
 3.63087e-21  9.57022e-20        00000 
-2.45608e-21 -4.86057e-20        00000 
 1.06507e-21  1.91833e-20        00000 
-3.22526e-22 -7.97147e-21        00000 
 7.88956e-23  1.83404e-21        00000 
-1.74296e-23 -3.88495e-22        00000 
 3.61064e-24  7.94695e-23        00000 
-7.15167e-25 -1.55817e-23        00000 
 1.37135e-25  2.95151e-24        00000 
-2.56734e-26 -5.44029e-25        00000 
 4.72048e-27  9.83129e-26        00000 
-8.56039e-28 -1.75254e-26        00000 
 1.53584e-28  3.09668e-27        00000 
-2.73232e-29 -5.42777e-28        00000 
 4.82829e-30  9.47429e-29        00000 
-8.48593e-31 -1.64728e-29        00000 
 1.48486e-31  2.85336e-30        00000 
-2.58878e-32 -4.92654e-31        00000 
 4.49986e-33  8.48493e-32        00000 
-7.80212e-34 -1.45999e-32        00000 
 1.34993e-34  2.51101e-33        00000 
-2.33157e-35 -4.31946e-34        00000 
 4.02426e-36  7.43231e-35        00000 
-7.12971e-37 -1.31254e-35        00000 
 2.38274e-37  4.37529e-36        00000 
-9.61363e-22  7.00644e-20        00000 
 3.01394e-21 -1.29501e-19        00000 
-4.41563e-21  4.13613e-19        00000 
-5.92396e-21 -7.11197e-19        00000 
 2.30407e-20  9.69273e-19        00000 
-2.57244e-20 -5.12430e-19        00000 
 1.39313e-20  2.52284e-19        00000 
-4.22911e-21 -6.50581e-20        00000 
 9.52930e-22  2.21904e-20        00000 
-1.97863e-22 -4.28090e-21        00000 
 3.88805e-23  8.46424e-22        00000 
-7.34788e-24 -1.58863e-22        00000 
 1.35118e-24  2.88249e-23        00000 
-2.43714e-25 -5.09170e-24        00000 
 4.33542e-26  8.85256e-25        00000 
-7.63473e-27 -1.52421e-25        00000 
 1.33444e-27  2.62452e-26        00000 
-2.31926e-28 -4.47631e-27        00000 
 4.01349e-29  7.66018e-28        00000 
-6.92223e-30 -1.30849e-28        00000 
 1.19080e-30  2.22864e-29        00000 
-2.04426e-31 -3.78822e-30        00000 
 3.50370e-32  6.42557e-31        00000 
-5.99725e-33 -1.09279e-31        00000 
 1.02548e-33  1.86014e-32        00000 
-1.75201e-34 -3.17632e-33        00000 
 2.99131e-35  5.42420e-34        00000 
-5.10856e-36 -9.24164e-35        00000 
 8.95909e-37  1.61788e-35        00000 
-2.96886e-37 -5.35781e-36        00000 
 9.31896e-22 -2.04026e-19        00000 
-5.69581e-21  4.63346e-19        00000 
 5.99241e-20 -1.36583e-18        00000 
-4.53321e-21  4.11671e-18        00000 
-1.91871e-19 -6.55144e-18        00000 
 1.91276e-19  2.12286e-18        00000 
-5.90049e-20 -9.24324e-19        00000 
 1.12767e-20  2.12395e-19        00000 
-2.17940e-21 -4.26999e-20        00000 
 4.03530e-22  8.75521e-21        00000 
-7.23216e-23 -1.55317e-21        00000 
 1.26951e-23  2.68288e-22        00000 
-2.19946e-24 -4.49133e-23        00000 
 3.77884e-25  7.48648e-24        00000 
-6.45702e-26 -1.23232e-24        00000 
 1.09936e-26  2.09941e-25        00000 
-1.86728e-27 -3.44131e-26        00000 
 3.16656e-28  5.82886e-27        00000 
-5.36431e-29 -9.81944e-28        00000 
 9.08138e-30  1.64444e-28        00000 
-1.53680e-30 -2.75850e-29        00000 
 2.60010e-31  4.58930e-30        00000 
-4.39877e-32 -7.76443e-31        00000 
 7.44184e-33  1.30890e-31        00000 
-1.25912e-33 -2.23332e-32        00000 
 2.13067e-34  3.81071e-33        00000 
-3.60620e-35 -6.40944e-34        00000 
 6.10950e-36  1.08445e-34        00000 
-1.06325e-36 -1.89112e-35        00000 
 3.50089e-37  6.23998e-36        00000 
 1.06421e-21  3.81709e-19        00000 
-1.25616e-21 -1.34840e-18        00000 
-2.99421e-20  6.01277e-18        00000 
 1.59287e-18 -1.60072e-17        00000 
 2.79438e-18  1.79791e-01        00000 
-9.25285e-19 -1.40518e-17        00000 
 1.20594e-19  2.51950e-18        00000 
-2.27417e-20 -4.97364e-19        00000 
 3.95998e-21  9.41809e-20        00000 
-6.68232e-22 -1.42565e-20        00000 
 1.11425e-22  2.34705e-21        00000 
-1.84997e-23 -3.58652e-22        00000 
 3.06815e-24  5.85716e-23        00000 
-5.09026e-25 -8.62180e-24        00000 
 8.45348e-26  1.62141e-24        00000 
-1.40566e-26 -2.32833e-25        00000 
 2.34050e-27  4.14730e-26        00000 