<?xml version="1.0" encoding="utf-8"?>
<VTKFile byte_order="LittleEndian" type="UnstructuredGrid" version="0.1">
   <UnstructuredGrid>
      <Piece NumberOfCells="3364" NumberOfPoints="1741">
         <Points>
            <DataArray Name="Points" NumberOfComponents="3" format="ascii" type="Float32">
0.0000 1.0000 0.0000
0.0000 1.0345 0.0000
0.0000 1.0690 0.0000
0.0000 1.1034 0.0000
0.0000 1.1379 0.0000
0.0000 1.1724 0.0000
0.0000 1.2069 0.0000
0.0000 1.2414 0.0000
0.0000 1.2759 0.0000
0.0000 1.3103 0.0000
0.0000 1.3448 0.0000
0.0000 1.3793 0.0000
0.0000 1.4138 0.0000
0.0000 1.4483 0.0000
0.0000 1.4828 0.0000
0.0000 1.5172 0.0000
0.0000 1.5517 0.0000
0.0000 1.5862 0.0000
0.0000 1.6207 0.0000
0.0000 1.6552 0.0000
0.0000 1.6897 0.0000
0.0000 1.7241 0.0000
0.0000 1.7586 0.0000
0.0000 1.7931 0.0000
0.0000 1.8276 0.0000
0.0000 1.8621 0.0000
0.0000 1.8966 0.0000
0.0000 1.9310 0.0000
0.0000 1.9655 0.0000
0.0000 2.0000 0.0000
0.0690 1.0000 0.0000
0.0690 1.0345 0.0000
0.0690 1.0690 0.0000
0.0690 1.1034 0.0000
0.0690 1.1379 0.0000
0.0690 1.1724 0.0000
0.0690 1.2069 0.0000
0.0690 1.2414 0.0000
0.0690 1.2759 0.0000
0.0690 1.3103 0.0000
0.0690 1.3448 0.0000
0.0690 1.3793 0.0000
0.0690 1.4138 0.0000
0.0690 1.4483 0.0000
0.0690 1.4828 0.0000
0.0690 1.5172 0.0000
0.0690 1.5517 0.0000
0.0690 1.5862 0.0000
0.0690 1.6207 0.0000
0.0690 1.6552 0.0000
0.0690 1.6897 0.0000
0.0690 1.7241 0.0000
0.0690 1.7586 0.0000
0.0690 1.7931 0.0000
0.0690 1.8276 0.0000
0.0690 1.8621 0.0000
0.0690 1.8966 0.0000
0.0690 1.9310 0.0000
0.0690 1.9655 0.0000
0.0690 2.0000 0.0000
0.1379 1.0000 0.0000
0.1379 1.0345 0.0000
0.1379 1.0690 0.0000
0.1379 1.1034 0.0000
0.1379 1.1379 0.0000
0.1379 1.1724 0.0000
0.1379 1.2069 0.0000
0.1379 1.2414 0.0000
0.1379 1.2759 0.0000
0.1379 1.3103 0.0000
0.1379 1.3448 0.0000
0.1379 1.3793 0.0000
0.1379 1.4138 0.0000
0.1379 1.4483 0.0000
0.1379 1.4828 0.0000
0.1379 1.5172 0.0000
0.1379 1.5517 0.0000
0.1379 1.5862 0.0000
0.1379 1.6207 0.0000
0.1379 1.6552 0.0000
0.1379 1.6897 0.0000
0.1379 1.7241 0.0000
0.1379 1.7586 0.0000
0.1379 1.7931 0.0000
0.1379 1.8276 0.0000
0.1379 1.8621 0.0000
0.1379 1.8966 0.0000
0.1379 1.9310 0.0000
0.1379 1.9655 0.0000
0.1379 2.0000 0.0000
0.2069 1.0000 0.0000
0.2069 1.0345 0.0000
0.2069 1.0690 0.0000
0.2069 1.1034 0.0000
0.2069 1.1379 0.0000
0.2069 1.1724 0.0000
0.2069 1.2069 0.0000
0.2069 1.2414 0.0000
0.2069 1.2759 0.0000
0.2069 1.3103 0.0000
0.2069 1.3448 0.0000
0.2069 1.3793 0.0000
0.2069 1.4138 0.0000
0.2069 1.4483 0.0000
0.2069 1.4828 0.0000
0.2069 1.5172 0.0000
0.2069 1.5517 0.0000
0.2069 1.5862 0.0000
0.2069 1.6207 0.0000
0.2069 1.6552 0.0000
0.2069 1.6897 0.0000
0.2069 1.7241 0.0000
0.2069 1.7586 0.0000
0.2069 1.7931 0.0000
0.2069 1.8276 0.0000
0.2069 1.8621 0.0000
0.2069 1.8966 0.0000
0.2069 1.9310 0.0000
0.2069 1.9655 0.0000
0.2069 2.0000 0.0000
0.2759 1.0000 0.0000
0.2759 1.0345 0.0000
0.2759 1.0690 0.0000
0.2759 1.1034 0.0000
0.2759 1.1379 0.0000
0.2759 1.1724 0.0000
0.2759 1.2069 0.0000
0.2759 1.2414 0.0000
0.2759 1.2759 0.0000
0.2759 1.3103 0.0000
0.2759 1.3448 0.0000
0.2759 1.3793 0.0000
0.2759 1.4138 0.0000
0.2759 1.4483 0.0000
0.2759 1.4828 0.0000
0.2759 1.5172 0.0000
0.2759 1.5517 0.0000
0.2759 1.5862 0.0000
0.2759 1.6207 0.0000
0.2759 1.6552 0.0000
0.2759 1.6897 0.0000
0.2759 1.7241 0.0000
0.2759 1.7586 0.0000
0.2759 1.7931 0.0000
0.2759 1.8276 0.0000
0.2759 1.8621 0.0000
0.2759 1.8966 0.0000
0.2759 1.9310 0.0000
0.2759 1.9655 0.0000
0.2759 2.0000 0.0000
0.3448 1.0000 0.0000
0.3448 1.0345 0.0000
0.3448 1.0690 0.0000
0.3448 1.1034 0.0000
0.3448 1.1379 0.0000
0.3448 1.1724 0.0000
0.3448 1.2069 0.0000
0.3448 1.2414 0.0000
0.3448 1.2759 0.0000
0.3448 1.3103 0.0000
0.3448 1.3448 0.0000
0.3448 1.3793 0.0000
0.3448 1.4138 0.0000
0.3448 1.4483 0.0000
0.3448 1.4828 0.0000
0.3448 1.5172 0.0000
0.3448 1.5517 0.0000
0.3448 1.5862 0.0000
0.3448 1.6207 0.0000
0.3448 1.6552 0.0000
0.3448 1.6897 0.0000
0.3448 1.7241 0.0000
0.3448 1.7586 0.0000
0.3448 1.7931 0.0000
0.3448 1.8276 0.0000
0.3448 1.8621 0.0000
0.3448 1.8966 0.0000
0.3448 1.9310 0.0000
0.3448 1.9655 0.0000
0.3448 2.0000 0.0000
0.4138 1.0000 0.0000
0.4138 1.0345 0.0000
0.4138 1.0690 0.0000
0.4138 1.1034 0.0000
0.4138 1.1379 0.0000
0.4138 1.1724 0.0000
0.4138 1.2069 0.0000
0.4138 1.2414 0.0000
0.4138 1.2759 0.0000
0.4138 1.3103 0.0000
0.4138 1.3448 0.0000
0.4138 1.3793 0.0000
0.4138 1.4138 0.0000
0.4138 1.4483 0.0000
0.4138 1.4828 0.0000
0.4138 1.5172 0.0000
0.4138 1.5517 0.0000
0.4138 1.5862 0.0000
0.4138 1.6207 0.0000
0.4138 1.6552 0.0000
0.4138 1.6897 0.0000
0.4138 1.7241 0.0000
0.4138 1.7586 0.0000
0.4138 1.7931 0.0000
0.4138 1.8276 0.0000
0.4138 1.8621 0.0000
0.4138 1.8966 0.0000
0.4138 1.9310 0.0000
0.4138 1.9655 0.0000
0.4138 2.0000 0.0000
0.4828 1.0000 0.0000
0.4828 1.0345 0.0000
0.4828 1.0690 0.0000
0.4828 1.1034 0.0000
0.4828 1.1379 0.0000
0.4828 1.1724 0.0000
0.4828 1.2069 0.0000
0.4828 1.2414 0.0000
0.4828 1.2759 0.0000
0.4828 1.3103 0.0000
0.4828 1.3448 0.0000
0.4828 1.3793 0.0000
0.4828 1.4138 0.0000
0.4828 1.4483 0.0000
0.4828 1.4828 0.0000
0.4828 1.5172 0.0000
0.4828 1.5517 0.0000
0.4828 1.5862 0.0000
0.4828 1.6207 0.0000
0.4828 1.6552 0.0000
0.4828 1.6897 0.0000
0.4828 1.7241 0.0000
0.4828 1.7586 0.0000
0.4828 1.7931 0.0000
0.4828 1.8276 0.0000
0.4828 1.8621 0.0000
0.4828 1.8966 0.0000
0.4828 1.9310 0.0000
0.4828 1.9655 0.0000
0.4828 2.0000 0.0000
0.5517 1.0000 0.0000
0.5517 1.0345 0.0000
0.5517 1.0690 0.0000
0.5517 1.1034 0.0000
0.5517 1.1379 0.0000
0.5517 1.1724 0.0000
0.5517 1.2069 0.0000
0.5517 1.2414 0.0000
0.5517 1.2759 0.0000
0.5517 1.3103 0.0000
0.5517 1.3448 0.0000
0.5517 1.3793 0.0000
0.5517 1.4138 0.0000
0.5517 1.4483 0.0000
0.5517 1.4828 0.0000
0.5517 1.5172 0.0000
0.5517 1.5517 0.0000
0.5517 1.5862 0.0000
0.5517 1.6207 0.0000
0.5517 1.6552 0.0000
0.5517 1.6897 0.0000
0.5517 1.7241 0.0000
0.5517 1.7586 0.0000
0.5517 1.7931 0.0000
0.5517 1.8276 0.0000
0.5517 1.8621 0.0000
0.5517 1.8966 0.0000
0.5517 1.9310 0.0000
0.5517 1.9655 0.0000
0.5517 2.0000 0.0000
0.6207 1.0000 0.0000
0.6207 1.0345 0.0000
0.6207 1.0690 0.0000
0.6207 1.1034 0.0000
0.6207 1.1379 0.0000
0.6207 1.1724 0.0000
0.6207 1.2069 0.0000
0.6207 1.2414 0.0000
0.6207 1.2759 0.0000
0.6207 1.3103 0.0000
0.6207 1.3448 0.0000
0.6207 1.3793 0.0000
0.6207 1.4138 0.0000
0.6207 1.4483 0.0000
0.6207 1.4828 0.0000
0.6207 1.5172 0.0000
0.6207 1.5517 0.0000
0.6207 1.5862 0.0000
0.6207 1.6207 0.0000
0.6207 1.6552 0.0000
0.6207 1.6897 0.0000
0.6207 1.7241 0.0000
0.6207 1.7586 0.0000
0.6207 1.7931 0.0000
0.6207 1.8276 0.0000
0.6207 1.8621 0.0000
0.6207 1.8966 0.0000
0.6207 1.9310 0.0000
0.6207 1.9655 0.0000
0.6207 2.0000 0.0000
0.6897 1.0000 0.0000
0.6897 1.0345 0.0000
0.6897 1.0690 0.0000
0.6897 1.1034 0.0000
0.6897 1.1379 0.0000
0.6897 1.1724 0.0000
0.6897 1.2069 0.0000
0.6897 1.2414 0.0000
0.6897 1.2759 0.0000
0.6897 1.3103 0.0000
0.6897 1.3448 0.0000
0.6897 1.3793 0.0000
0.6897 1.4138 0.0000
0.6897 1.4483 0.0000
0.6897 1.4828 0.0000
0.6897 1.5172 0.0000
0.6897 1.5517 0.0000
0.6897 1.5862 0.0000
0.6897 1.6207 0.0000
0.6897 1.6552 0.0000
0.6897 1.6897 0.0000
0.6897 1.7241 0.0000
0.6897 1.7586 0.0000
0.6897 1.7931 0.0000
0.6897 1.8276 0.0000
0.6897 1.8621 0.0000
0.6897 1.8966 0.0000
0.6897 1.9310 0.0000
0.6897 1.9655 0.0000
0.6897 2.0000 0.0000
0.7586 1.0000 0.0000
0.7586 1.0345 0.0000
0.7586 1.0690 0.0000
0.7586 1.1034 0.0000
0.7586 1.1379 0.0000
0.7586 1.1724 0.0000
0.7586 1.2069 0.0000
0.7586 1.2414 0.0000
0.7586 1.2759 0.0000
0.7586 1.3103 0.0000
0.7586 1.3448 0.0000
0.7586 1.3793 0.0000
0.7586 1.4138 0.0000
0.7586 1.4483 0.0000
0.7586 1.4828 0.0000
0.7586 1.5172 0.0000
0.7586 1.5517 0.0000
0.7586 1.5862 0.0000
0.7586 1.6207 0.0000
0.7586 1.6552 0.0000
0.7586 1.6897 0.0000
0.7586 1.7241 0.0000
0.7586 1.7586 0.0000
0.7586 1.7931 0.0000
0.7586 1.8276 0.0000
0.7586 1.8621 0.0000
0.7586 1.8966 0.0000
0.7586 1.9310 0.0000
0.7586 1.9655 0.0000
0.7586 2.0000 0.0000
0.8276 1.0000 0.0000
0.8276 1.0345 0.0000
0.8276 1.0690 0.0000
0.8276 1.1034 0.0000
0.8276 1.1379 0.0000
0.8276 1.1724 0.0000
0.8276 1.2069 0.0000
0.8276 1.2414 0.0000
0.8276 1.2759 0.0000
0.8276 1.3103 0.0000
0.8276 1.3448 0.0000
0.8276 1.3793 0.0000
0.8276 1.4138 0.0000
0.8276 1.4483 0.0000
0.8276 1.4828 0.0000
0.8276 1.5172 0.0000
0.8276 1.5517 0.0000
0.8276 1.5862 0.0000
0.8276 1.6207 0.0000
0.8276 1.6552 0.0000
0.8276 1.6897 0.0000
0.8276 1.7241 0.0000
0.8276 1.7586 0.0000
0.8276 1.7931 0.0000
0.8276 1.8276 0.0000
0.8276 1.8621 0.0000
0.8276 1.8966 0.0000
0.8276 1.9310 0.0000
0.8276 1.9655 0.0000
0.8276 2.0000 0.0000
0.8966 1.0000 0.0000
0.8966 1.0345 0.0000
0.8966 1.0690 0.0000
0.8966 1.1034 0.0000
0.8966 1.1379 0.0000
0.8966 1.1724 0.0000
0.8966 1.2069 0.0000
0.8966 1.2414 0.0000
0.8966 1.2759 0.0000
0.8966 1.3103 0.0000
0.8966 1.3448 0.0000
0.8966 1.3793 0.0000
0.8966 1.4138 0.0000
0.8966 1.4483 0.0000
0.8966 1.4828 0.0000
0.8966 1.5172 0.0000
0.8966 1.5517 0.0000
0.8966 1.5862 0.0000
0.8966 1.6207 0.0000
0.8966 1.6552 0.0000
0.8966 1.6897 0.0000
0.8966 1.7241 0.0000
0.8966 1.7586 0.0000
0.8966 1.7931 0.0000
0.8966 1.8276 0.0000
0.8966 1.8621 0.0000
0.8966 1.8966 0.0000
0.8966 1.9310 0.0000
0.8966 1.9655 0.0000
0.8966 2.0000 0.0000
0.9655 1.0000 0.0000
0.9655 1.0345 0.0000
0.9655 1.0690 0.0000
0.9655 1.1034 0.0000
0.9655 1.1379 0.0000
0.9655 1.1724 0.0000
0.9655 1.2069 0.0000
0.9655 1.2414 0.0000
0.9655 1.2759 0.0000
0.9655 1.3103 0.0000
0.9655 1.3448 0.0000
0.9655 1.3793 0.0000
0.9655 1.4138 0.0000
0.9655 1.4483 0.0000
0.9655 1.4828 0.0000
0.9655 1.5172 0.0000
0.9655 1.5517 0.0000
0.9655 1.5862 0.0000
0.9655 1.6207 0.0000
0.9655 1.6552 0.0000
0.9655 1.6897 0.0000
0.9655 1.7241 0.0000
0.9655 1.7586 0.0000
0.9655 1.7931 0.0000
0.9655 1.8276 0.0000
0.9655 1.8621 0.0000
0.9655 1.8966 0.0000
0.9655 1.9310 0.0000
0.9655 1.9655 0.0000
0.9655 2.0000 0.0000
1.0345 1.0000 0.0000
1.0345 1.0345 0.0000
1.0345 1.0690 0.0000
1.0345 1.1034 0.0000
1.0345 1.1379 0.0000
1.0345 1.1724 0.0000
1.0345 1.2069 0.0000
1.0345 1.2414 0.0000
1.0345 1.2759 0.0000
1.0345 1.3103 0.0000
1.0345 1.3448 0.0000
[...]
         <PointData>
            <DataArray Name="fValues" NumberOfComponents="3" format="ascii" type="Float64">
-1.84894e-22  1.31555e-22        00000 
 2.69503e-22 -5.61466e-23        00000 
 1.11044e-22  8.88352e-23        00000 
-2.87757e-22 -4.40879e-22        00000 
 3.60893e-22  3.55341e-22        00000 
-2.11277e-22  5.53896e-22        00000 
       00000  8.88352e-23        00000 
-7.04569e-23  1.10499e-21        00000 
-8.88352e-23  1.77670e-22        00000 
 6.07261e-22 -2.75285e-21        00000 
 2.66506e-22  1.24369e-21        00000 
 4.35298e-22 -1.39519e-21        00000 
 2.44297e-22        00000        00000 
 1.00771e-22 -2.57951e-21        00000 
 8.88352e-23  1.06602e-21        00000 
-2.69271e-22 -1.50680e-21        00000 
       00000  5.33011e-22        00000 
 2.33225e-23 -2.96008e-21        00000 
 1.24369e-21 -5.33011e-22        00000 
-2.90199e-22  8.70596e-22        00000 
 7.10681e-22 -1.95437e-21        00000 
 1.75438e-21  3.91326e-21        00000 
-8.88352e-22 -2.30971e-21        00000 
 1.03802e-21  7.25497e-22        00000 
-3.10923e-22  1.59903e-21        00000 
 3.55395e-22 -1.66820e-21        00000 
-6.21846e-22  2.22088e-21        00000 
 2.73967e-22 -1.31951e-21        00000 
 7.62976e-23 -3.24790e-22        00000 
 3.33479e-22  8.11974e-23        00000 
 2.72191e-06  1.14126e-06        00000 
 1.78764e-06  4.70912e-07        00000 
 1.47339e-06 -3.83454e-07        00000 
 1.40783e-06 -1.75081e-06        00000 
 1.22575e-06 -3.79986e-06        00000 
 5.58905e-07 -6.52103e-06        00000 
-9.21727e-07 -9.69463e-06        00000 
-3.36983e-06 -1.28289e-05        00000 
-6.38633e-06 -1.51677e-05        00000 
-8.12661e-06 -1.59650e-05        00000 
-8.19942e-06 -1.64883e-05        00000 
-7.36496e-06 -1.68656e-05        00000 
-5.04106e-06 -1.70030e-05        00000 
-2.33182e-06 -1.80629e-05        00000 
-4.83547e-07 -1.83134e-05        00000 
 1.63192e-06 -1.82213e-05        00000 
 3.80991e-06 -1.79716e-05        00000 
 5.79095e-06 -1.76442e-05        00000 
 7.36286e-06 -1.72362e-05        00000 
 8.40507e-06 -1.67157e-05        00000 
 8.88015e-06 -1.60517e-05        00000 
 8.81898e-06 -1.52307e-05        00000 
 8.30074e-06 -1.42661e-05        00000 
 7.42928e-06 -1.31982e-05        00000 
 6.31049e-06 -1.20875e-05        00000 
 5.04693e-06 -1.09983e-05        00000 
 3.78469e-06 -9.98679e-06        00000 
 2.68233e-06 -9.16986e-06        00000 
 1.93402e-06 -8.71256e-06        00000 
 2.68986e-06 -8.76229e-06        00000 
 4.36742e-06  5.25504e-06        00000 
 3.04638e-06  5.10121e-06        00000 
 3.26007e-06  4.57317e-06        00000 
 4.22117e-06  3.26148e-06        00000 
 5.16656e-06  8.57184e-07        00000 
 5.39275e-06 -2.97939e-06        00000 
 4.14934e-06 -8.60547e-06        00000 
 6.08194e-07 -1.62477e-05        00000 
-5.88670e-06 -2.55193e-05        00000 
-1.50041e-05 -3.44743e-05        00000 
-1.70519e-05 -3.73445e-05        00000 
-1.05297e-05 -4.14511e-05        00000 
-4.82771e-06 -5.00409e-05        00000 
-4.76554e-06 -5.13801e-05        00000 
-1.67610e-06 -5.13934e-05        00000 
 2.27231e-06 -5.05241e-05        00000 
 6.33799e-06 -4.88423e-05        00000 
 9.91849e-06 -4.63127e-05        00000 
 1.26599e-05 -4.29996e-05        00000 
 1.43796e-05 -3.90479e-05        00000 
 1.50458e-05 -3.46545e-05        00000 
 1.47525e-05 -3.00421e-05        00000 
 1.36808e-05 -2.54375e-05        00000 
 1.20537e-05 -2.10559e-05        00000 
 1.00873e-05 -1.70950e-05        00000 
 7.94200e-06 -1.37317e-05        00000 
 5.70508e-06 -1.10826e-05        00000 
 3.73583e-06 -9.02970e-06        00000 
 2.32682e-06 -7.53199e-06        00000 
 6.05073e-07 -6.36942e-06        00000 
 1.57620e-06  9.91888e-06        00000 
 1.07002e-06  1.16476e-05        00000 
 2.60517e-06  1.30312e-05        00000 
 4.86589e-06  1.43589e-05        00000 
 7.31122e-06  1.55519e-05        00000 
 9.64610e-06  1.59647e-05        00000 
 1.15883e-05  1.41593e-05        00000 
 1.25233e-05  7.74484e-06        00000 
 1.13111e-05 -7.10274e-06        00000 
 6.37556e-06 -3.59835e-05        00000 
-1.04744e-05 -8.59528e-05        00000 
 8.99129e-07 -1.16068e-04        00000 
-1.35364e-05 -1.03970e-04        00000 
-7.37041e-06 -1.04401e-04        00000 
-3.22655e-06 -1.05993e-04        00000 
 1.08973e-06 -1.05032e-04        00000 
 4.96377e-06 -1.00433e-04        00000 
 8.22157e-06 -9.23685e-05        00000 
 1.06902e-05 -8.15289e-05        00000 
 1.22730e-05 -6.88746e-05        00000 
 1.29625e-05 -5.54550e-05        00000 
 1.28348e-05 -4.22491e-05        00000 
 1.20251e-05 -3.00422e-05        00000 
 1.06965e-05 -1.93527e-05        00000 
 9.00956e-06 -1.04119e-05        00000 
 7.09569e-06 -3.21562e-06        00000 
 5.04381e-06  2.23872e-06        00000 
 2.95545e-06  5.28736e-06        00000 
 4.44113e-06  4.36627e-06        00000 
 8.17231e-06 -2.00995e-06        00000 
-1.64769e-06  1.30986e-05        00000 
-3.13436e-06  1.07403e-05        00000 
-3.54670e-06  1.36950e-05        00000 
-2.54848e-06  2.12271e-05        00000 
-1.92566e-06  3.23161e-05        00000 
-1.19732e-06  4.70476e-05        00000 
-1.72483e-07  6.60067e-05        00000 
 1.32303e-06  8.95907e-05        00000 
 3.65789e-06  1.17371e-04        00000 
 6.77285e-06  1.46141e-04        00000 
 1.96245e-05  1.63181e-04        00000 
-4.07308e-06  1.91605e-04        00000 
 2.81476e-07  2.22093e-04        00000 
 4.08892e-06  2.42541e-04        00000 
 9.92875e-07  2.50902e-04        00000 
-2.57223e-06  2.50811e-04        00000 
-6.22299e-06  2.42763e-04        00000 
-9.38551e-06  2.27515e-04        00000 
-1.17207e-05  2.06502e-04        00000 
-1.30491e-05  1.81615e-04        00000 
-1.33579e-05  1.54896e-04        00000 
-1.27738e-05  1.28265e-04        00000 
-1.15177e-05  1.03312e-04        00000 
-9.85170e-06  8.11753e-05        00000 
-8.03603e-06  6.25293e-05        00000 
-6.30155e-06  4.76503e-05        00000 
-4.74009e-06  3.64514e-05        00000 
-2.88695e-06  2.80494e-05        00000 
 4.39530e-06  1.99979e-05        00000 
 8.57538e-06  2.06900e-05        00000 
 4.32059e-07 -1.98011e-05        00000 
-1.37160e-06 -2.28851e-05        00000 
-8.33437e-06 -3.15938e-05        00000 
-1.13138e-05 -4.10785e-05        00000 
-1.47800e-05 -5.46288e-05        00000 
-1.85648e-05 -7.29243e-05        00000 
-2.24440e-05 -9.59627e-05        00000 
-2.61407e-05 -1.23188e-04        00000 
-2.92347e-05 -1.53106e-04        00000 
-3.22262e-05 -1.82783e-04        00000 
-2.54985e-05 -2.13736e-04        00000 
-1.68210e-05 -2.41209e-04        00000 
-7.54192e-06 -2.60787e-04        00000 
-3.53786e-06 -2.77347e-04        00000 
-1.30322e-06 -2.87141e-04        00000 
 1.75227e-06 -2.87236e-04        00000 
 4.70481e-06 -2.77965e-04        00000 
 7.18074e-06 -2.60348e-04        00000 
 8.91282e-06 -2.36109e-04        00000 
 9.78864e-06 -2.07461e-04        00000 
 9.83524e-06 -1.76782e-04        00000 
 9.19308e-06 -1.46294e-04        00000 
 8.07143e-06 -1.17821e-04        00000 
 6.69968e-06 -9.26560e-05        00000 
 5.28699e-06 -7.15517e-05        00000 
 3.98259e-06 -5.47729e-05        00000 
 2.81328e-06 -4.20932e-05        00000 
 1.37572e-06 -3.25818e-05        00000 
-2.95184e-07 -2.54208e-05        00000 
-6.24696e-07 -2.25402e-05        00000 
 2.60713e-06  2.25809e-05        00000 
 1.32089e-06  2.69115e-05        00000 
 2.81884e-06  3.48292e-05        00000 
 4.79746e-06  4.56714e-05        00000 
 6.67947e-06  6.06037e-05        00000 
 8.89078e-06  8.06284e-05        00000 
 1.14017e-05  1.05873e-04        00000 
 1.40922e-05  1.35768e-04        00000 
 1.68136e-05  1.68935e-04        00000 
 1.83582e-05  2.03869e-04        00000 
 1.77103e-05  2.38998e-04        00000 
 1.49218e-05  2.70975e-04        00000 
 1.10893e-05  2.97209e-04        00000 
 6.56362e-06  3.16748e-04        00000 
 2.12973e-06  3.27618e-04        00000 
-2.35318e-06  3.27699e-04        00000 
-6.62288e-06  3.16707e-04        00000 
-1.01412e-05  2.95839e-04        00000 
-1.25513e-05  2.67224e-04        00000 
-1.37039e-05  2.33574e-04        00000 
-1.36593e-05  1.97762e-04        00000 
-1.26427e-05  1.62436e-04        00000 
-1.09727e-05  1.29720e-04        00000 
-8.98443e-06  1.01070e-04        00000 
-6.96338e-06  7.72625e-05        00000 
-5.09515e-06  5.84800e-05        00000 
-3.42318e-06  4.43864e-05        00000 
-1.98520e-06  3.42500e-05        00000 
-1.21404e-06  2.71645e-05        00000 
-2.68737e-06  2.29112e-05        00000 
-4.64589e-06 -2.37862e-05        00000 
-1.92783e-06 -2.88077e-05        00000 
-2.72090e-06 -3.68558e-05        00000 
-4.62778e-06 -4.86645e-05        00000 
-6.92977e-06 -6.53831e-05        00000 
-9.62741e-06 -8.79063e-05        00000 
-1.27153e-05 -1.16598e-04        00000 
-1.59995e-05 -1.51112e-04        00000 
-1.90047e-05 -1.90371e-04        00000 
-2.09827e-05 -2.32648e-04        00000 
-2.12088e-05 -2.75491e-04        00000 
-1.94127e-05 -3.15560e-04        00000 
-1.55246e-05 -3.49539e-04        00000 
-9.92182e-06 -3.74517e-04        00000 
-3.37273e-06 -3.87888e-04        00000 
 3.39918e-06 -3.87842e-04        00000 
 9.70766e-06 -3.74143e-04        00000 
 1.48561e-05 -3.48248e-04        00000 
 1.83280e-05 -3.12902e-04        00000 
 1.99177e-05 -2.71594e-04        00000 
 1.97355e-05 -2.27984e-04        00000 
 1.81380e-05 -1.85373e-04        00000 
 1.56143e-05 -1.46340e-04        00000 
 1.26653e-05 -1.12563e-04        00000 
 9.70493e-06 -8.48396e-05        00000 
 6.99950e-06 -6.32293e-05        00000 
 4.67277e-06 -4.72523e-05        00000 
 2.82412e-06 -3.60690e-05        00000 
 2.11906e-06 -2.85208e-05        00000 
 4.70575e-06 -2.36532e-05        00000 
 6.25304e-06  2.50556e-05        00000 
 2.68597e-06  3.05525e-05        00000 
 3.50994e-06  3.92081e-05        00000 
 5.89038e-06  5.23622e-05        00000 
 8.96588e-06  7.14352e-05        00000 
 1.26744e-05  9.75250e-05        00000 
 1.69106e-05  1.31286e-04        00000 
 2.13340e-05  1.72679e-04        00000 
 2.53146e-05  2.20749e-04        00000 
 2.80127e-05  2.73474e-04        00000 
 2.86144e-05  3.27682e-04        00000 
 2.65375e-05  3.79209e-04        00000 
 2.15682e-05  4.23467e-04        00000 
 1.40526e-05  4.56053e-04        00000 
 4.88238e-06  4.73360e-04        00000 
-4.79971e-06  4.73245e-04        00000 
-1.38106e-05  4.55577e-04        00000 
-2.10944e-05  4.22334e-04        00000 
-2.59170e-05  3.77195e-04        00000 
-2.80049e-05  3.24811e-04        00000 
-2.75519e-05  2.69995e-04        00000 
-2.51086e-05  2.17008e-04        00000 
-2.14066e-05  1.69065e-04        00000 
-1.71758e-05  1.28140e-04        00000 
-1.30050e-05  9.50329e-05        00000 
-9.26986e-06  6.96111e-05        00000 
-6.14268e-06  5.11259e-05        00000 
-3.72602e-06  3.84562e-05        00000 
-2.85657e-06  3.01383e-05        00000 
-6.35727e-06  2.47877e-05        00000 
-7.69858e-06 -2.65535e-05        00000 
-3.41832e-06 -3.25500e-05        00000 
-4.48882e-06 -4.21057e-05        00000 
-7.53185e-06 -5.70378e-05        00000 
-1.15811e-05 -7.91589e-05        00000 
-1.65770e-05 -1.09982e-04        00000 
-2.23492e-05 -1.50611e-04        00000 
-2.84107e-05 -2.01390e-04        00000 
-3.39176e-05 -2.61479e-04        00000 
-3.77701e-05 -3.28504e-04        00000 
-3.88411e-05 -3.98411e-04        00000 
-3.62565e-05 -4.65689e-04        00000 
-2.96700e-05 -5.24006e-04        00000 
-1.94777e-05 -5.67147e-04        00000 
-6.81486e-06 -5.90083e-04        00000 
 6.68959e-06 -5.89948e-04        00000 
 1.92604e-05 -5.66674e-04        00000 
 2.93315e-05 -5.23043e-04        00000 
 3.58545e-05 -4.64120e-04        00000 
 3.84760e-05 -3.96249e-04        00000 
 3.75280e-05 -3.25901e-04        00000 
 3.38503e-05 -2.58678e-04        00000 
 2.85208e-05 -1.98663e-04        00000 
 2.25860e-05 -1.48192e-04        00000 
 1.68642e-05 -1.08013e-04        00000 
 1.18565e-05 -7.76751e-05        00000 
 7.76661e-06 -5.59995e-05        00000 
 4.67300e-06 -4.14312e-05        00000 
 3.55141e-06 -3.21212e-05        00000 
 7.83482e-06 -2.62484e-05        00000 
 9.00974e-06  2.82788e-05        00000 
 4.11977e-06  3.48489e-05        00000 
 5.52145e-06  4.55224e-05        00000 
 9.34933e-06  6.26511e-05        00000 
 1.45638e-05  8.85631e-05        00000 
 2.11546e-05  1.25389e-04        00000 
 2.89230e-05  1.74901e-04        00000 
 3.72309e-05  2.37994e-04        00000 
 4.49458e-05  3.14028e-04        00000 
 5.05528e-05  4.00228e-04        00000 
 5.24419e-05  4.91394e-04        00000 
 4.93142e-05  5.80135e-04        00000 
 4.06060e-05  6.57719e-04        00000 
 2.67883e-05  7.15441e-04        00000 
 9.39507e-06  7.46232e-04        00000 
-9.26309e-06  7.46102e-04        00000 
-2.66060e-05  7.15016e-04        00000 
-4.03599e-05  6.56921e-04        00000 
-4.90393e-05  5.78906e-04        00000 
-5.21994e-05  4.89749e-04        00000 
-5.03984e-05  3.98269e-04        00000 
-4.49110e-05  3.11923e-04        00000 
-3.73154e-05  2.35932e-04        00000 
-2.90956e-05  1.73046e-04        00000 
-2.13684e-05  1.23848e-04        00000 
-1.47763e-05  8.73716e-05        00000 
-9.53315e-06  6.17900e-05        00000 
-5.66150e-06  4.49321e-05        00000 
-4.22397e-06  3.44432e-05        00000 
-9.16056e-06  2.79744e-05        00000 
-1.01615e-05 -3.01918e-05        00000 
-4.78150e-06 -3.74078e-05        00000 
-6.57141e-06 -4.93718e-05        00000 
-1.12885e-05 -6.90834e-05        00000 
-1.78838e-05 -9.95418e-05        00000 
-2.64532e-05 -1.43741e-04        00000 
-3.68156e-05 -2.04414e-04        00000 
-4.81774e-05 -2.83299e-04        00000 
-5.90268e-05 -3.80149e-04        00000 
-6.72538e-05 -4.91772e-04        00000 
-7.05336e-05 -6.11495e-04        00000 
-6.69183e-05 -7.29373e-04        00000 
-5.54794e-05 -8.33337e-04        00000 
-3.67721e-05 -9.11163e-04        00000 
-1.29151e-05 -9.52845e-04        00000 
 1.27931e-05 -9.52730e-04        00000 
 3.66234e-05 -9.10801e-04        00000 
 5.52979e-05 -8.32688e-04        00000 
 6.67250e-05 -7.28411e-04        00000 
 7.03660e-05 -6.10237e-04        00000 
 6.71476e-05 -4.90292e-04        00000 
 5.90028e-05 -3.78561e-04        00000 
 4.82355e-05 -2.81736e-04        00000 
 3.69366e-05 -2.02991e-04        00000 
 2.66069e-05 -1.42537e-04        00000 
 1.80406e-05 -9.85903e-05        00000 
 1.14258e-05 -6.83741e-05        00000 
 6.67523e-06 -4.88634e-05        00000 
 4.86425e-06 -3.70397e-05        00000 
 1.03133e-05 -2.99057e-05        00000 
 1.11162e-05  3.22405e-05        00000 
 5.38323e-06  4.01564e-05        00000 
 7.60438e-06  5.35376e-05        00000 
 1.33032e-05  7.61638e-05        00000 
 2.15164e-05  1.11900e-04        00000 
 3.25320e-05  1.64912e-04        00000 
 4.62585e-05  2.39314e-04        00000 
 6.17558e-05  3.38133e-04        00000 
 7.70286e-05  4.61860e-04        00000 
 8.91342e-05  6.06955e-04        00000 
 9.46971e-05  7.64891e-04        00000 
 9.07754e-05  9.22269e-04        00000 
 7.58419e-05  1.06236e-03        00000 
 5.05241e-05  1.16792e-03        00000 
 1.77746e-05  1.22470e-03        00000 
-1.76690e-05  1.22460e-03        00000 
-5.04047e-05  1.16762e-03        00000 
-7.57064e-05  1.06184e-03        00000 
-9.06369e-05  9.21518e-04        00000 
-9.45788e-05  7.63927e-04        00000 
-8.90591e-05  6.05832e-04        00000 
-7.70104e-05  4.60658e-04        00000 
-6.17949e-05  3.36945e-04        00000 
-4.63427e-05  2.38221e-04        00000 
-3.26416e-05  1.63974e-04        00000 
-2.16305e-05  1.11142e-04        00000 
-1.34041e-05  7.55829e-05        00000 
-7.68079e-06  5.31051e-05        00000 
-5.44940e-06  3.98310e-05        00000 
-1.12604e-05  3.19813e-05        00000 
-1.18367e-05 -3.43692e-05        00000 
-5.89518e-06 -4.30130e-05        00000 
-8.56975e-06 -5.78801e-05        00000 
-1.53194e-05 -8.36670e-05        00000 
-2.53933e-05 -1.25332e-04        00000 
-3.94004e-05 -1.88613e-04        00000 
-5.74616e-05 -2.79578e-04        00000 
-7.85362e-05 -4.03219e-04        00000 
-1.00032e-04 -5.61348e-04        00000 
-1.17853e-04 -7.50296e-04        00000 
-1.27085e-04 -9.59264e-04        00000 
-1.23262e-04 -1.17020e-03        00000 
-1.03882e-04 -1.35985e-03        00000 
-6.95962e-05 -1.50377e-03        00000 
-2.45375e-05 -1.58152e-03        00000 
 2.44495e-05 -1.58144e-03        00000 
 6.95014e-05 -1.50353e-03        00000 
 1.03780e-04 -1.35944e-03        00000 
 1.23161e-04 -1.16962e-03        00000 
 1.27000e-04 -9.58524e-04        00000 
 1.17799e-04 -7.49441e-04        00000 
 1.00017e-04 -5.60435e-04        00000 
 7.85624e-05 -4.02313e-04        00000 
 5.75203e-05 -2.78738e-04        00000 
 3.94784e-05 -1.87882e-04        00000 
 2.54757e-05 -1.24730e-04        00000 
 1.53929e-05 -8.31933e-05        00000 
 8.62580e-06 -5.75158e-05        00000 
 5.94816e-06 -4.27306e-05        00000 
 1.19683e-05 -3.41400e-05        00000 
 1.22925e-05  3.65249e-05        00000 
 6.28128e-06  4.58940e-05        00000 
 9.39755e-06  6.22435e-05        00000 
 1.72214e-05  9.13105e-05        00000 
 2.93735e-05  1.39401e-04        00000 
 4.69732e-05  2.14318e-04        00000 
 7.05600e-05  3.24865e-04        00000 
 9.91130e-05  4.78992e-04        00000 
 1.29338e-04  6.80790e-04        00000 
 1.55564e-04  9.26956e-04        00000 
 1.70618e-04  1.20401e-03        00000 
 1.67695e-04  1.48766e-03        00000 
 1.42709e-04  1.74547e-03        00000 
 9.62125e-05  1.94262e-03        00000 
 3.40132e-05  2.04962e-03        00000 
-3.39415e-05  2.04956e-03        00000 
-9.61377e-05  1.94242e-03        00000 
-1.42632e-04  1.74514e-03        00000 
-1.67621e-04  1.48721e-03        00000 
-1.70556e-04  1.20344e-03        00000 
-1.55525e-04  9.26304e-04        00000 
-1.29328e-04  6.80094e-04        00000 
-9.91306e-05  4.78300e-04        00000 
-7.06010e-05  3.24218e-04        00000 
-4.70287e-05  2.13748e-04        00000 
-2.94329e-05  1.38923e-04        00000 
-1.72748e-05  9.09258e-05        00000 
-9.43856e-06  6.19394e-05        00000 
-6.32365e-06  4.56524e-05        00000 
-1.24096e-05  3.63259e-05        00000 
-1.24669e-05 -3.86642e-05        00000 
-6.50389e-06 -4.87244e-05        00000 
-1.00013e-05 -6.64691e-05        00000 
-1.88459e-05 -9.87632e-05        00000 
-3.32178e-05 -1.53516e-04        00000 
-5.50159e-05 -2.41181e-04        00000 
-8.55359e-05 -3.74331e-04        00000 
-1.24036e-04 -5.65325e-04        00000 
-1.66472e-04 -8.22054e-04        00000 
-2.05040e-04 -1.14257e-03        00000 
-2.29260e-04 -1.51039e-03        00000 
-2.28724e-04 -1.89295e-03        00000 
-1.96765e-04 -2.24481e-03        00000 
-1.33587e-04 -2.51615e-03        00000 
-4.73761e-05 -2.66417e-03        00000 
 4.73185e-05 -2.66412e-03        00000 
 1.33528e-04 -2.51600e-03        00000 
 1.96706e-04 -2.24456e-03        00000 
 2.28669e-04 -1.89259e-03        00000 
 2.29216e-04 -1.50996e-03        00000 
 2.05012e-04 -1.14207e-03        00000 
 1.66463e-04 -8.21523e-04        00000 
 1.24048e-04 -5.64795e-04        00000 
 8.55647e-05 -3.73832e-04        00000 
 5.50553e-05 -2.40736e-04        00000 
 3.32605e-05 -1.53137e-04        00000 
 1.88845e-05 -9.84518e-05        00000 
 1.00313e-05 -6.62168e-05        00000 
 6.53772e-06 -4.85199e-05        00000 
 1.25689e-05 -3.84939e-05        00000 
 1.23621e-05  4.07599e-05        00000 
 6.53092e-06  5.14484e-05        00000 
 1.02872e-05  7.04154e-05        00000 
 1.99838e-05  1.05671e-04        00000 
 3.65648e-05  1.66939e-04        00000 
 6.30735e-05  2.67965e-04        00000 
 1.02098e-04  4.26420e-04        00000 
 1.53682e-04  6.61133e-04        00000 
 2.13126e-04  9.86205e-04        00000 
 2.69810e-04  1.40285e-03        00000 
 3.08401e-04  1.89164e-03        00000 
 3.12903e-04  2.40899e-03        00000 
 2.72448e-04  2.89118e-03        00000 
 1.86402e-04  3.26646e-03        00000 
 6.63455e-05  3.47230e-03        00000 
-6.62998e-05  3.47226e-03        00000 
-1.86356e-04  3.26634e-03        00000 