<?xml version="1.0" encoding="utf-8"?>
<VTKFile byte_order="LittleEndian" type="UnstructuredGrid" version="0.1">
   <UnstructuredGrid>
      <Piece NumberOfCells="3364" NumberOfPoints="1741">
         <Points>
            <DataArray Name="Points" NumberOfComponents="3" format="ascii" type="Float32">
0.0000 1.0000 0.0000
0.0000 1.0345 0.0000
0.0000 1.0690 0.0000
0.0000 1.1034 0.0000
0.0000 1.1379 0.0000
0.0000 1.1724 0.0000
0.0000 1.2069 0.0000
0.0000 1.2414 0.0000
0.0000 1.2759 0.0000
0.0000 1.3103 0.0000
0.0000 1.3448 0.0000
0.0000 1.3793 0.0000
0.0000 1.4138 0.0000
0.0000 1.4483 0.0000
0.0000 1.4828 0.0000
0.0000 1.5172 0.0000
0.0000 1.5517 0.0000
0.0000 1.5862 0.0000
0.0000 1.6207 0.0000
0.0000 1.6552 0.0000
0.0000 1.6897 0.0000
0.0000 1.7241 0.0000
0.0000 1.7586 0.0000
0.0000 1.7931 0.0000
0.0000 1.8276 0.0000
0.0000 1.8621 0.0000
0.0000 1.8966 0.0000
0.0000 1.9310 0.0000
0.0000 1.9655 0.0000
0.0000 2.0000 0.0000
0.0690 1.0000 0.0000
0.0690 1.0345 0.0000
0.0690 1.0690 0.0000
0.0690 1.1034 0.0000
0.0690 1.1379 0.0000
0.0690 1.1724 0.0000
0.0690 1.2069 0.0000
0.0690 1.2414 0.0000
0.0690 1.2759 0.0000
0.0690 1.3103 0.0000
0.0690 1.3448 0.0000
0.0690 1.3793 0.0000
0.0690 1.4138 0.0000
0.0690 1.4483 0.0000
0.0690 1.4828 0.0000
0.0690 1.5172 0.0000
0.0690 1.5517 0.0000
0.0690 1.5862 0.0000
0.0690 1.6207 0.0000
0.0690 1.6552 0.0000
0.0690 1.6897 0.0000
0.0690 1.7241 0.0000
0.0690 1.7586 0.0000
0.0690 1.7931 0.0000
0.0690 1.8276 0.0000
0.0690 1.8621 0.0000
0.0690 1.8966 0.0000
0.0690 1.9310 0.0000
0.0690 1.9655 0.0000
0.0690 2.0000 0.0000
0.1379 1.0000 0.0000
0.1379 1.0345 0.0000
0.1379 1.0690 0.0000
0.1379 1.1034 0.0000
0.1379 1.1379 0.0000
0.1379 1.1724 0.0000
0.1379 1.2069 0.0000
0.1379 1.2414 0.0000
0.1379 1.2759 0.0000
0.1379 1.3103 0.0000
0.1379 1.3448 0.0000
0.1379 1.3793 0.0000
0.1379 1.4138 0.0000
0.1379 1.4483 0.0000
0.1379 1.4828 0.0000
0.1379 1.5172 0.0000
0.1379 1.5517 0.0000
0.1379 1.5862 0.0000
0.1379 1.6207 0.0000
0.1379 1.6552 0.0000
0.1379 1.6897 0.0000
0.1379 1.7241 0.0000
0.1379 1.7586 0.0000
0.1379 1.7931 0.0000
0.1379 1.8276 0.0000
0.1379 1.8621 0.0000
0.1379 1.8966 0.0000
0.1379 1.9310 0.0000
0.1379 1.9655 0.0000
0.1379 2.0000 0.0000
0.2069 1.0000 0.0000
0.2069 1.0345 0.0000
0.2069 1.0690 0.0000
0.2069 1.1034 0.0000
0.2069 1.1379 0.0000
0.2069 1.1724 0.0000
0.2069 1.2069 0.0000
0.2069 1.2414 0.0000
0.2069 1.2759 0.0000
0.2069 1.3103 0.0000
0.2069 1.3448 0.0000
0.2069 1.3793 0.0000
0.2069 1.4138 0.0000
0.2069 1.4483 0.0000
0.2069 1.4828 0.0000
0.2069 1.5172 0.0000
0.2069 1.5517 0.0000
0.2069 1.5862 0.0000
0.2069 1.6207 0.0000
0.2069 1.6552 0.0000
0.2069 1.6897 0.0000
0.2069 1.7241 0.0000
0.2069 1.7586 0.0000
0.2069 1.7931 0.0000
0.2069 1.8276 0.0000
0.2069 1.8621 0.0000
0.2069 1.8966 0.0000
0.2069 1.9310 0.0000
0.2069 1.9655 0.0000
0.2069 2.0000 0.0000
0.2759 1.0000 0.0000
0.2759 1.0345 0.0000
0.2759 1.0690 0.0000
0.2759 1.1034 0.0000
0.2759 1.1379 0.0000
0.2759 1.1724 0.0000
0.2759 1.2069 0.0000
0.2759 1.2414 0.0000
0.2759 1.2759 0.0000
0.2759 1.3103 0.0000
0.2759 1.3448 0.0000
0.2759 1.3793 0.0000
0.2759 1.4138 0.0000
0.2759 1.4483 0.0000
0.2759 1.4828 0.0000
0.2759 1.5172 0.0000
0.2759 1.5517 0.0000
0.2759 1.5862 0.0000
0.2759 1.6207 0.0000
0.2759 1.6552 0.0000
0.2759 1.6897 0.0000
0.2759 1.7241 0.0000
0.2759 1.7586 0.0000
0.2759 1.7931 0.0000
0.2759 1.8276 0.0000
0.2759 1.8621 0.0000
0.2759 1.8966 0.0000
0.2759 1.9310 0.0000
0.2759 1.9655 0.0000
0.2759 2.0000 0.0000
0.3448 1.0000 0.0000
0.3448 1.0345 0.0000
0.3448 1.0690 0.0000
0.3448 1.1034 0.0000
0.3448 1.1379 0.0000
0.3448 1.1724 0.0000
0.3448 1.2069 0.0000
0.3448 1.2414 0.0000
0.3448 1.2759 0.0000
0.3448 1.3103 0.0000
0.3448 1.3448 0.0000
0.3448 1.3793 0.0000
0.3448 1.4138 0.0000
0.3448 1.4483 0.0000
0.3448 1.4828 0.0000
0.3448 1.5172 0.0000
0.3448 1.5517 0.0000
0.3448 1.5862 0.0000
0.3448 1.6207 0.0000
0.3448 1.6552 0.0000
0.3448 1.6897 0.0000
0.3448 1.7241 0.0000
0.3448 1.7586 0.0000
0.3448 1.7931 0.0000
0.3448 1.8276 0.0000
0.3448 1.8621 0.0000
0.3448 1.8966 0.0000
0.3448 1.9310 0.0000
0.3448 1.9655 0.0000
0.3448 2.0000 0.0000
0.4138 1.0000 0.0000
0.4138 1.0345 0.0000
0.4138 1.0690 0.0000
0.4138 1.1034 0.0000
0.4138 1.1379 0.0000
0.4138 1.1724 0.0000
0.4138 1.2069 0.0000
0.4138 1.2414 0.0000
0.4138 1.2759 0.0000
0.4138 1.3103 0.0000
0.4138 1.3448 0.0000
0.4138 1.3793 0.0000
0.4138 1.4138 0.0000
0.4138 1.4483 0.0000
0.4138 1.4828 0.0000
0.4138 1.5172 0.0000
0.4138 1.5517 0.0000
0.4138 1.5862 0.0000
0.4138 1.6207 0.0000
0.4138 1.6552 0.0000
0.4138 1.6897 0.0000
0.4138 1.7241 0.0000
0.4138 1.7586 0.0000
0.4138 1.7931 0.0000
0.4138 1.8276 0.0000
0.4138 1.8621 0.0000
0.4138 1.8966 0.0000
0.4138 1.9310 0.0000
0.4138 1.9655 0.0000
0.4138 2.0000 0.0000
0.4828 1.0000 0.0000
0.4828 1.0345 0.0000
0.4828 1.0690 0.0000
0.4828 1.1034 0.0000
0.4828 1.1379 0.0000
0.4828 1.1724 0.0000
0.4828 1.2069 0.0000
0.4828 1.2414 0.0000
0.4828 1.2759 0.0000
0.4828 1.3103 0.0000
0.4828 1.3448 0.0000
0.4828 1.3793 0.0000
0.4828 1.4138 0.0000
0.4828 1.4483 0.0000
0.4828 1.4828 0.0000
0.4828 1.5172 0.0000
0.4828 1.5517 0.0000
0.4828 1.5862 0.0000
0.4828 1.6207 0.0000
0.4828 1.6552 0.0000
0.4828 1.6897 0.0000
0.4828 1.7241 0.0000
0.4828 1.7586 0.0000
0.4828 1.7931 0.0000
0.4828 1.8276 0.0000
0.4828 1.8621 0.0000
0.4828 1.8966 0.0000
0.4828 1.9310 0.0000
0.4828 1.9655 0.0000
0.4828 2.0000 0.0000
0.5517 1.0000 0.0000
0.5517 1.0345 0.0000
0.5517 1.0690 0.0000
0.5517 1.1034 0.0000
0.5517 1.1379 0.0000
0.5517 1.1724 0.0000
0.5517 1.2069 0.0000
0.5517 1.2414 0.0000
0.5517 1.2759 0.0000
0.5517 1.3103 0.0000
0.5517 1.3448 0.0000
0.5517 1.3793 0.0000
0.5517 1.4138 0.0000
0.5517 1.4483 0.0000
0.5517 1.4828 0.0000
0.5517 1.5172 0.0000
0.5517 1.5517 0.0000
0.5517 1.5862 0.0000
0.5517 1.6207 0.0000
0.5517 1.6552 0.0000
0.5517 1.6897 0.0000
0.5517 1.7241 0.0000
0.5517 1.7586 0.0000
0.5517 1.7931 0.0000
0.5517 1.8276 0.0000
0.5517 1.8621 0.0000
0.5517 1.8966 0.0000
0.5517 1.9310 0.0000
0.5517 1.9655 0.0000
0.5517 2.0000 0.0000
0.6207 1.0000 0.0000
0.6207 1.0345 0.0000
0.6207 1.0690 0.0000
0.6207 1.1034 0.0000
0.6207 1.1379 0.0000
0.6207 1.1724 0.0000
0.6207 1.2069 0.0000
0.6207 1.2414 0.0000
0.6207 1.2759 0.0000
0.6207 1.3103 0.0000
0.6207 1.3448 0.0000
0.6207 1.3793 0.0000
0.6207 1.4138 0.0000
0.6207 1.4483 0.0000
0.6207 1.4828 0.0000
0.6207 1.5172 0.0000
0.6207 1.5517 0.0000
0.6207 1.5862 0.0000
0.6207 1.6207 0.0000
0.6207 1.6552 0.0000
0.6207 1.6897 0.0000
0.6207 1.7241 0.0000
0.6207 1.7586 0.0000
0.6207 1.7931 0.0000
0.6207 1.8276 0.0000
0.6207 1.8621 0.0000
0.6207 1.8966 0.0000
0.6207 1.9310 0.0000
0.6207 1.9655 0.0000
0.6207 2.0000 0.0000
0.6897 1.0000 0.0000
0.6897 1.0345 0.0000
0.6897 1.0690 0.0000
0.6897 1.1034 0.0000
0.6897 1.1379 0.0000
0.6897 1.1724 0.0000
0.6897 1.2069 0.0000
0.6897 1.2414 0.0000
0.6897 1.2759 0.0000
0.6897 1.3103 0.0000
0.6897 1.3448 0.0000
0.6897 1.3793 0.0000
0.6897 1.4138 0.0000
0.6897 1.4483 0.0000
0.6897 1.4828 0.0000
0.6897 1.5172 0.0000
0.6897 1.5517 0.0000
0.6897 1.5862 0.0000
0.6897 1.6207 0.0000
0.6897 1.6552 0.0000
0.6897 1.6897 0.0000
0.6897 1.7241 0.0000
0.6897 1.7586 0.0000
0.6897 1.7931 0.0000
0.6897 1.8276 0.0000
0.6897 1.8621 0.0000
0.6897 1.8966 0.0000
0.6897 1.9310 0.0000
0.6897 1.9655 0.0000
0.6897 2.0000 0.0000
0.7586 1.0000 0.0000
0.7586 1.0345 0.0000
0.7586 1.0690 0.0000
0.7586 1.1034 0.0000
0.7586 1.1379 0.0000
0.7586 1.1724 0.0000
0.7586 1.2069 0.0000
0.7586 1.2414 0.0000
0.7586 1.2759 0.0000
0.7586 1.3103 0.0000
0.7586 1.3448 0.0000
0.7586 1.3793 0.0000
0.7586 1.4138 0.0000
0.7586 1.4483 0.0000
0.7586 1.4828 0.0000
0.7586 1.5172 0.0000
0.7586 1.5517 0.0000
0.7586 1.5862 0.0000
0.7586 1.6207 0.0000
0.7586 1.6552 0.0000
0.7586 1.6897 0.0000
0.7586 1.7241 0.0000
0.7586 1.7586 0.0000
0.7586 1.7931 0.0000
0.7586 1.8276 0.0000
0.7586 1.8621 0.0000
0.7586 1.8966 0.0000
0.7586 1.9310 0.0000
0.7586 1.9655 0.0000
0.7586 2.0000 0.0000
0.8276 1.0000 0.0000
0.8276 1.0345 0.0000
0.8276 1.0690 0.0000
0.8276 1.1034 0.0000
0.8276 1.1379 0.0000
0.8276 1.1724 0.0000
0.8276 1.2069 0.0000
0.8276 1.2414 0.0000
0.8276 1.2759 0.0000
0.8276 1.3103 0.0000
0.8276 1.3448 0.0000
0.8276 1.3793 0.0000
0.8276 1.4138 0.0000
0.8276 1.4483 0.0000
0.8276 1.4828 0.0000
0.8276 1.5172 0.0000
0.8276 1.5517 0.0000
0.8276 1.5862 0.0000
0.8276 1.6207 0.0000
0.8276 1.6552 0.0000
0.8276 1.6897 0.0000
0.8276 1.7241 0.0000
0.8276 1.7586 0.0000
0.8276 1.7931 0.0000
0.8276 1.8276 0.0000
0.8276 1.8621 0.0000
0.8276 1.8966 0.0000
0.8276 1.9310 0.0000
0.8276 1.9655 0.0000
0.8276 2.0000 0.0000
0.8966 1.0000 0.0000
0.8966 1.0345 0.0000
0.8966 1.0690 0.0000
0.8966 1.1034 0.0000
0.8966 1.1379 0.0000
0.8966 1.1724 0.0000
0.8966 1.2069 0.0000
0.8966 1.2414 0.0000
0.8966 1.2759 0.0000
0.8966 1.3103 0.0000
0.8966 1.3448 0.0000
0.8966 1.3793 0.0000
0.8966 1.4138 0.0000
0.8966 1.4483 0.0000
0.8966 1.4828 0.0000
0.8966 1.5172 0.0000
0.8966 1.5517 0.0000
0.8966 1.5862 0.0000
0.8966 1.6207 0.0000
0.8966 1.6552 0.0000
0.8966 1.6897 0.0000
0.8966 1.7241 0.0000
0.8966 1.7586 0.0000
0.8966 1.7931 0.0000
0.8966 1.8276 0.0000
0.8966 1.8621 0.0000
0.8966 1.8966 0.0000
0.8966 1.9310 0.0000
0.8966 1.9655 0.0000
0.8966 2.0000 0.0000
0.9655 1.0000 0.0000
0.9655 1.0345 0.0000
0.9655 1.0690 0.0000
0.9655 1.1034 0.0000
0.9655 1.1379 0.0000
0.9655 1.1724 0.0000
0.9655 1.2069 0.0000
0.9655 1.2414 0.0000
0.9655 1.2759 0.0000
0.9655 1.3103 0.0000
0.9655 1.3448 0.0000
0.9655 1.3793 0.0000
0.9655 1.4138 0.0000
0.9655 1.4483 0.0000
0.9655 1.4828 0.0000
0.9655 1.5172 0.0000
0.9655 1.5517 0.0000
0.9655 1.5862 0.0000
0.9655 1.6207 0.0000
0.9655 1.6552 0.0000
0.9655 1.6897 0.0000
0.9655 1.7241 0.0000
0.9655 1.7586 0.0000
0.9655 1.7931 0.0000
0.9655 1.8276 0.0000
0.9655 1.8621 0.0000
0.9655 1.8966 0.0000
0.9655 1.9310 0.0000
0.9655 1.9655 0.0000
0.9655 2.0000 0.0000
1.0345 1.0000 0.0000
1.0345 1.0345 0.0000
1.0345 1.0690 0.0000
1.0345 1.1034 0.0000
1.0345 1.1379 0.0000
1.0345 1.1724 0.0000
1.0345 1.2069 0.0000
1.0345 1.2414 0.0000
1.0345 1.2759 0.0000
1.0345 1.3103 0.0000
1.0345 1.3448 0.0000
[...]
         <PointData>
            <DataArray Name="fValues" NumberOfComponents="3" format="ascii" type="Float64">
-1.12293e-23  1.67270e-22        00000 
 4.49172e-23  7.41135e-22        00000 
 1.11044e-22  4.44176e-23        00000 
 1.18591e-22  1.70213e-22        00000 
 6.66264e-23  1.46578e-21        00000 
 3.21096e-22 -9.23659e-23        00000 
 2.44297e-22  1.46578e-21        00000 
 2.31601e-22  2.98849e-21        00000 
 4.44176e-22  4.44176e-22        00000 
-4.97956e-23  2.03873e-21        00000 
 4.44176e-22  3.46457e-21        00000 
-6.69689e-23  2.56714e-22        00000 
 5.55220e-22 -1.42136e-21        00000 
-7.33698e-24 -7.26304e-23        00000 
 8.88352e-23  4.79710e-21        00000 
 6.13882e-23  7.70143e-21        00000 
-1.99879e-22  7.10681e-21        00000 
-2.08437e-22  8.84768e-23        00000 
       00000 -1.42136e-21        00000 
 7.25497e-23 -1.07708e-21        00000 
-5.33011e-22 -1.06602e-21        00000 
 3.77030e-22 -2.96941e-21        00000 
-7.55099e-22  1.68787e-21        00000 
 9.76630e-23  1.72445e-21        00000 
-3.99758e-22 -8.88352e-23        00000 
-2.25962e-22  3.35888e-21        00000 
-2.22088e-23  1.19927e-21        00000 
-4.61270e-23  6.20618e-22        00000 
 1.03597e-22 -2.51992e-23        00000 
 2.09137e-22 -1.05136e-21        00000 
 3.22892e-06  8.87520e-07        00000 
 5.52816e-07  9.48667e-07        00000 
 8.86248e-07  1.65237e-06        00000 
 1.35841e-06  2.27687e-06        00000 
 1.87758e-06  3.08699e-06        00000 
 2.40735e-06  4.17210e-06        00000 
 2.91578e-06  5.54536e-06        00000 
 3.35282e-06  7.18920e-06        00000 
 3.65764e-06  9.05427e-06        00000 
 3.76793e-06  1.10548e-05        00000 
 3.63189e-06  1.30699e-05        00000 
 3.22065e-06  1.49523e-05        00000 
 2.53810e-06  1.65452e-05        00000 
 1.62543e-06  1.77024e-05        00000 
 5.58293e-07  1.83112e-05        00000 
-5.63301e-07  1.83100e-05        00000 
-1.63055e-06  1.76987e-05        00000 
-2.54340e-06  1.65388e-05        00000 
-3.22615e-06  1.49433e-05        00000 
-3.63754e-06  1.30579e-05        00000 
-3.77360e-06  1.10399e-05        00000 
-3.66315e-06  9.03644e-06        00000 
-3.35798e-06  7.16857e-06        00000 
-2.92038e-06  5.52216e-06        00000 
-2.41124e-06  4.14665e-06        00000 
-1.88064e-06  3.05969e-06        00000 
-1.36066e-06  2.24832e-06        00000 
-8.87508e-07  1.62463e-06        00000 
-5.51182e-07  9.28522e-07        00000 
-3.16880e-06  8.66842e-07        00000 
-3.73437e-06 -1.99497e-06        00000 
-1.08923e-06 -2.38611e-06        00000 
-1.07006e-06 -3.25086e-06        00000 
-1.70295e-06 -4.47312e-06        00000 
-2.38355e-06 -6.14270e-06        00000 
-3.08095e-06 -8.37521e-06        00000 
-3.75631e-06 -1.12096e-05        00000 
-4.34588e-06 -1.46200e-05        00000 
-4.76789e-06 -1.85097e-05        00000 
-4.93656e-06 -2.27016e-05        00000 
-4.77903e-06 -2.69410e-05        00000 
-4.25295e-06 -3.09149e-05        00000 
-3.36070e-06 -3.42862e-05        00000 
-2.15620e-06 -3.67402e-05        00000 
-7.41377e-07 -3.80327e-05        00000 
 7.47717e-07 -3.80302e-05        00000 
 2.16269e-06 -3.67326e-05        00000 
 3.36746e-06 -3.42732e-05        00000 
 4.26000e-06 -3.08963e-05        00000 
 4.78630e-06 -2.69165e-05        00000 
 4.94389e-06 -2.26709e-05        00000 
 4.77505e-06 -1.84730e-05        00000 
 4.35258e-06 -1.45775e-05        00000 
 3.76228e-06 -1.11617e-05        00000 
 3.08599e-06 -8.32266e-06        00000 
 2.38759e-06 -6.08647e-06        00000 
 1.70613e-06 -4.41469e-06        00000 
 1.07251e-06 -3.19336e-06        00000 
 1.07925e-06 -2.33407e-06        00000 
 3.66094e-06 -1.94703e-06        00000 
 3.95173e-06  3.05758e-06        00000 
 1.27177e-06  3.75627e-06        00000 
 1.24110e-06  4.94809e-06        00000 
 1.93398e-06  6.76855e-06        00000 
 2.73990e-06  9.36351e-06        00000 
 3.58103e-06  1.28560e-05        00000 
 4.41147e-06  1.73094e-05        00000 
 5.15347e-06  2.26954e-05        00000 
 5.70417e-06  2.88694e-05        00000 
 5.95250e-06  3.55541e-05        00000 
 5.80127e-06  4.23423e-05        00000 
 5.19086e-06  4.87267e-05        00000 
 4.11886e-06  5.41576e-05        00000 
 2.65005e-06  5.81183e-05        00000 
 9.12634e-07  6.02070e-05        00000 
-9.19879e-07  6.02031e-05        00000 
-2.65751e-06  5.81065e-05        00000 
-4.12668e-06  5.41374e-05        00000 
-5.19909e-06  4.86977e-05        00000 
-5.80984e-06  4.23040e-05        00000 
-5.96118e-06  3.55061e-05        00000 
-5.71267e-06  2.88117e-05        00000 
-5.16143e-06  2.26284e-05        00000 
-4.41856e-06  1.72340e-05        00000 
-3.58701e-06  1.27732e-05        00000 
-2.74473e-06  9.27511e-06        00000 
-1.93788e-06  6.67676e-06        00000 
-1.24335e-06  4.85659e-06        00000 
-1.25849e-06  3.67099e-06        00000 
-3.86645e-06  2.98076e-06        00000 
-4.13209e-06 -4.13986e-06        00000 
-1.40596e-06 -5.11400e-06        00000 
-1.42489e-06 -6.71188e-06        00000 
-2.22163e-06 -9.20469e-06        00000 
-3.17608e-06 -1.28238e-05        00000 
-4.20467e-06 -1.77424e-05        00000 
-5.24659e-06 -2.40589e-05        00000 
-6.20352e-06 -3.17498e-05        00000 
-6.94223e-06 -4.06230e-05        00000 
-7.31473e-06 -5.02867e-05        00000 
-7.18744e-06 -6.01500e-05        00000 
-6.47386e-06 -6.94664e-05        00000 
-5.16266e-06 -7.74178e-05        00000 
-3.33287e-06 -8.32310e-05        00000 
-1.14997e-06 -8.63010e-05        00000 
 1.15830e-06 -8.62955e-05        00000 
 3.34150e-06 -8.32144e-05        00000 
 5.17180e-06 -7.73895e-05        00000 
 6.48359e-06 -6.94256e-05        00000 
 7.19767e-06 -6.00959e-05        00000 
 7.32517e-06 -5.02188e-05        00000 
 6.95250e-06 -4.05412e-05        00000 
 6.21315e-06 -3.16547e-05        00000 
 5.25515e-06 -2.39515e-05        00000 
 4.21187e-06 -1.76247e-05        00000 
 3.18185e-06 -1.26979e-05        00000 
 2.22615e-06 -9.07389e-06        00000 
 1.42716e-06 -6.58096e-06        00000 
 1.38969e-06 -4.99127e-06        00000 
 4.03137e-06 -4.02966e-06        00000 
 4.33109e-06  5.23951e-06        00000 
 1.54712e-06  6.49170e-06        00000 
 1.64639e-06  8.54838e-06        00000 
 2.59046e-06  1.18035e-05        00000 
 3.74625e-06  1.65896e-05        00000 
 5.03013e-06  2.31624e-05        00000 
 6.36804e-06  3.16812e-05        00000 
 7.63294e-06  4.21435e-05        00000 
 8.64783e-06  5.43116e-05        00000 
 9.21045e-06  6.76599e-05        00000 
 9.13256e-06  8.13702e-05        00000 
 8.28605e-06  9.43880e-05        00000 
 6.64419e-06  1.05544e-04        00000 
 4.30519e-06  1.13725e-04        00000 
 1.48852e-06  1.18053e-04        00000 
-1.49826e-06  1.18046e-04        00000 
-4.31535e-06  1.13703e-04        00000 
-6.65509e-06  1.05507e-04        00000 
-8.29781e-06  9.43334e-05        00000 
-9.14506e-06  8.12975e-05        00000 
-9.22333e-06  6.75684e-05        00000 
-8.66055e-06  5.42010e-05        00000 
-7.64488e-06  4.20146e-05        00000 
-6.37863e-06  3.15355e-05        00000 
-5.03896e-06  2.30025e-05        00000 
-3.75323e-06  1.64187e-05        00000 
-2.59576e-06  1.16258e-05        00000 
-1.64884e-06  8.37032e-06        00000 
-1.52719e-06  6.32457e-06        00000 
-4.20929e-06  5.08950e-06        00000 
-4.54791e-06 -6.35380e-06        00000 
-1.70701e-06 -7.89870e-06        00000 
-1.91174e-06 -1.04634e-05        00000 
-3.04816e-06 -1.45844e-05        00000 
-4.47025e-06 -2.07192e-05        00000 
-6.09751e-06 -2.92416e-05        00000 
-7.84236e-06 -4.04093e-05        00000 
-9.54057e-06 -5.42690e-05        00000 
-1.09541e-05 -7.05443e-05        00000 
-1.18026e-05 -8.85533e-05        00000 
-1.18167e-05 -1.07189e-04        00000 
-1.08050e-05 -1.24994e-04        00000 
-8.71462e-06 -1.40328e-04        00000 
-5.66887e-06 -1.51611e-04        00000 
-1.96424e-06 -1.57594e-04        00000 
 1.97577e-06 -1.57585e-04        00000 
 5.68100e-06 -1.51583e-04        00000 
 8.72782e-06 -1.40279e-04        00000 
 1.08194e-05 -1.24923e-04        00000 
 1.18323e-05 -1.07095e-04        00000 
 1.18188e-05 -8.84334e-05        00000 
 1.09702e-05 -7.03988e-05        00000 
 9.55567e-06 -5.40987e-05        00000 
 7.85568e-06 -4.02167e-05        00000 
 6.10852e-06 -2.90299e-05        00000 
 4.47880e-06 -2.04929e-05        00000 
 3.05449e-06 -1.43492e-05        00000 
 1.91449e-06 -1.02277e-05        00000 
 1.68227e-06 -7.67748e-06        00000 
 4.39794e-06 -6.15528e-06        00000 
 4.76737e-06  7.47658e-06        00000 
 1.88428e-06  9.33186e-06        00000 
 2.22110e-06  1.24547e-05        00000 
 3.59768e-06  1.75580e-05        00000 
 5.36232e-06  2.52584e-05        00000 
 7.44308e-06  3.60962e-05        00000 
 9.73903e-06  5.04812e-05        00000 
 1.20390e-05  6.85524e-05        00000 
 1.40216e-05  9.00134e-05        00000 
 1.52953e-05  1.14000e-04        00000 
 1.54721e-05  1.39036e-04        00000 
 1.42642e-05  1.63128e-04        00000 
 1.15756e-05  1.83993e-04        00000 
 7.56103e-06  1.99408e-04        00000 
 2.62576e-06  2.07602e-04        00000 
-2.63949e-06  2.07590e-04        00000 
-7.57564e-06  1.99372e-04        00000 
-1.15918e-05  1.83931e-04        00000 
-1.42822e-05  1.63038e-04        00000 
-1.54918e-05  1.38915e-04        00000 
-1.53159e-05  1.13845e-04        00000 
-1.40422e-05  8.98247e-05        00000 
-1.20583e-05  6.83310e-05        00000 
-9.75601e-06  5.02300e-05        00000 
-7.45694e-06  3.58200e-05        00000 
-5.37287e-06  2.49631e-05        00000 
-3.60530e-06  1.72513e-05        00000 
-2.22422e-06  1.21475e-05        00000 
-1.85325e-06  9.04365e-06        00000 
-4.58052e-06  7.21801e-06        00000 
-4.96868e-06 -8.59659e-06        00000 
-2.07256e-06 -1.07789e-05        00000 
-2.57006e-06 -1.45088e-05        00000 
-4.23779e-06 -2.07195e-05        00000 
-6.43363e-06 -3.02336e-05        00000 
-9.10442e-06 -4.38246e-05        00000 
-1.21387e-05 -6.21304e-05        00000 
-1.52674e-05 -8.54513e-05        00000 
-1.80575e-05 -1.13505e-04        00000 
-1.99602e-05 -1.45221e-04        00000 
-2.04144e-05 -1.78652e-04        00000 
-1.89862e-05 -2.11083e-04        00000 
-1.55087e-05 -2.39347e-04        00000 
-1.01744e-05 -2.60325e-04        00000 
-3.54164e-06 -2.71506e-04        00000 
 3.55802e-06 -2.71491e-04        00000 
 1.01920e-05 -2.60280e-04        00000 
 1.55286e-05 -2.39270e-04        00000 
 1.90088e-05 -2.10969e-04        00000 
 2.04394e-05 -1.78498e-04        00000 
 1.99868e-05 -1.45023e-04        00000 
 1.80841e-05 -1.13263e-04        00000 
 1.52925e-05 -8.51656e-05        00000 
 1.21605e-05 -6.18055e-05        00000 
 9.12199e-06 -4.34669e-05        00000 
 6.44672e-06 -2.98514e-05        00000 
 4.24696e-06 -2.03228e-05        00000 
 2.57354e-06 -1.41120e-05        00000 
 2.03334e-06 -1.04069e-05        00000 
 4.73413e-06 -8.26302e-06        00000 
 5.12763e-06  9.69716e-06        00000 
 2.26184e-06  1.22189e-05        00000 
 2.94892e-06  1.65993e-05        00000 
 4.96074e-06  2.40434e-05        00000 
 7.68949e-06  3.56424e-05        00000 
 1.11182e-05  5.24933e-05        00000 
 1.51332e-05  7.55721e-05        00000 
 1.93973e-05  1.05445e-04        00000 
 2.33290e-05  1.41907e-04        00000 
 2.61593e-05  1.83664e-04        00000 
 2.70739e-05  2.28168e-04        00000 
 2.54181e-05  2.71734e-04        00000 
 2.09086e-05  3.09972e-04        00000 
 1.37811e-05  3.38495e-04        00000 
 4.80908e-06  3.53745e-04        00000 
-4.82859e-06  3.53727e-04        00000 
-1.38024e-05  3.38440e-04        00000 
-2.09331e-05  3.09876e-04        00000 
-2.54465e-05  2.71592e-04        00000 
-2.71059e-05  2.27974e-04        00000 
-2.61937e-05  1.83413e-04        00000 
-2.33637e-05  1.41597e-04        00000 
-1.94300e-05  1.05078e-04        00000 
-1.51614e-05  7.51539e-05        00000 
-1.11406e-05  5.20324e-05        00000 
-7.70570e-06  3.51500e-05        00000 
-4.97170e-06  2.35330e-05        00000 
-2.95265e-06  1.60895e-05        00000 
-2.21198e-06  1.17416e-05        00000 
-4.83193e-06  9.26940e-06        00000 
-5.21798e-06 -1.07568e-05        00000 
-2.43834e-06 -1.36232e-05        00000 
-3.34116e-06 -1.86847e-05        00000 
-5.74886e-06 -2.74778e-05        00000 
-9.12417e-06 -4.14417e-05        00000 
-1.35146e-05 -6.21193e-05        00000 
-1.88221e-05 -9.09797e-05        00000 
-2.46346e-05 -1.29013e-04        00000 
-3.01768e-05 -1.76204e-04        00000 
-3.43719e-05 -2.31035e-04        00000 
-3.60364e-05 -2.90200e-04        00000 
-3.41798e-05 -3.48706e-04        00000 
-2.83297e-05 -4.00461e-04        00000 
-1.87666e-05 -4.39283e-04        00000 
-6.56626e-06 -4.60110e-04        00000 
 6.58935e-06 -4.60088e-04        00000 
 1.87922e-05 -4.39216e-04        00000 
 2.83599e-05 -4.00344e-04        00000 
 3.42156e-05 -3.48530e-04        00000 
 3.60775e-05 -2.89957e-04        00000 
 3.44167e-05 -2.30718e-04        00000 
 3.02223e-05 -1.75810e-04        00000 
 2.46774e-05 -1.28543e-04        00000 
 1.88588e-05 -9.04426e-05        00000 
 1.35432e-05 -6.15268e-05        00000 
 9.14419e-06 -4.08090e-05        00000 
 5.76175e-06 -2.68230e-05        00000 
 3.34488e-06 -1.80321e-05        00000 
 2.37469e-06 -1.30130e-05        00000 
 4.84429e-06 -1.02104e-05        00000 
 5.21311e-06  1.17506e-05        00000 
 2.58431e-06  1.49562e-05        00000 
 3.72165e-06  2.07081e-05        00000 
 6.57027e-06  3.09391e-05        00000 
 1.07136e-05  4.75347e-05        00000 
 1.63078e-05  7.26448e-05        00000 
 2.33044e-05  1.08449e-04        00000 
 3.12193e-05  1.56599e-04        00000 
 3.90294e-05  2.17457e-04        00000 
 4.52301e-05  2.89325e-04        00000 
 4.80982e-05  3.67949e-04        00000 
 4.61325e-05  4.46575e-04        00000 
 3.85536e-05  5.16735e-04        00000 
 2.56788e-05  5.69689e-04        00000 
 9.01049e-06  5.98203e-04        00000 
-9.03757e-06  5.98177e-04        00000 
-2.57094e-05  5.69608e-04        00000 
-3.85907e-05  5.16593e-04        00000 
-4.61777e-05  4.46359e-04        00000 
-4.81512e-05  3.67646e-04        00000 
-4.52887e-05  2.88926e-04        00000 
-3.90894e-05  2.16956e-04        00000 
-3.12757e-05  1.55999e-04        00000 
-2.33524e-05  1.07760e-04        00000 
-1.63443e-05  7.18836e-05        00000 
-1.07382e-05  4.67227e-05        00000 
-6.58508e-06  3.01004e-05        00000 
-3.72477e-06  1.98743e-05        00000 
-2.50280e-06  1.41782e-05        00000 
-4.74042e-06  1.10546e-05        00000 
-5.08880e-06 -1.26530e-05        00000 
-2.67820e-06 -1.61779e-05        00000 
-4.05499e-06 -2.25982e-05        00000 
-7.37411e-06 -3.43075e-05        00000 
-1.24059e-05 -5.37552e-05        00000 
-1.94815e-05 -8.39048e-05        00000 
-2.86642e-05 -1.27947e-04        00000 
-3.94191e-05 -1.88549e-04        00000 
-5.04170e-05 -2.66756e-04        00000 
-5.95623e-05 -3.60811e-04        00000 
-6.43422e-05 -4.65305e-04        00000 
-6.24762e-05 -5.71116e-04        00000 
-5.26860e-05 -6.66446e-04        00000 
-3.53008e-05 -7.38886e-04        00000 
-1.24250e-05 -7.78053e-04        00000 
 1.24563e-05 -7.78023e-04        00000 
 3.53372e-05 -7.38790e-04        00000 
 5.27315e-05 -6.66274e-04        00000 
 6.25333e-05 -5.70852e-04        00000 
 6.44108e-05 -4.64930e-04        00000 
 5.96393e-05 -3.60310e-04        00000 
 5.04966e-05 -2.66121e-04        00000 
 3.94939e-05 -1.87782e-04        00000 
 2.87272e-05 -1.27063e-04        00000 
 1.95282e-05 -8.29270e-05        00000 
 1.24357e-05 -5.27131e-05        00000 
 7.39044e-06 -3.32344e-05        00000 
 4.05644e-06 -2.15347e-05        00000 
 2.57352e-06 -1.51879e-05        00000 
 4.49087e-06 -1.17684e-05        00000 
 4.82673e-06  1.34413e-05        00000 
 2.69561e-06  1.72483e-05        00000 
 4.29481e-06  2.42732e-05        00000 
 8.08569e-06  3.74268e-05        00000 
 1.41089e-05  5.98532e-05        00000 
 2.29685e-05  9.55882e-05        00000 
 3.49447e-05  1.49242e-04        00000 
 4.95123e-05  2.25012e-04        00000 
 6.49812e-05  3.25128e-04        00000 
 7.84470e-05  4.48033e-04        00000 
 8.62414e-05  5.86957e-04        00000 
 8.48884e-05  7.29605e-04        00000 
 7.23007e-05  8.59498e-04        00000 
 4.87585e-05  9.58946e-04        00000 
 1.72189e-05  1.01296e-03        00000 
-1.72546e-05  1.01292e-03        00000 
-4.88011e-05  9.58833e-04        00000 
-7.23562e-05  8.59293e-04        00000 
-8.49604e-05  7.29284e-04        00000 
-8.63302e-05  5.86494e-04        00000 
-7.85485e-05  4.47406e-04        00000 
-6.50872e-05  3.24324e-04        00000 
-4.96120e-05  2.24033e-04        00000 
-3.50279e-05  1.48107e-04        00000 
-2.30282e-05  9.43312e-05        00000 
-1.41445e-05  5.85156e-05        00000 
-8.10252e-06  3.60539e-05        00000 
-4.29266e-06  2.29180e-05        00000 
-2.56081e-06  1.59906e-05        00000 
-4.07098e-06  1.23192e-05        00000 
-4.41892e-06 -1.41002e-05        00000 
-2.61150e-06 -1.81335e-05        00000 
-4.38483e-06 -2.56484e-05        00000 
-8.60299e-06 -4.01083e-05        00000 
-1.56760e-05 -6.54852e-05        00000 
-2.66211e-05 -1.07194e-04        00000 
-4.21079e-05 -1.71805e-04        00000 
-6.17515e-05 -2.65801e-04        00000 
-8.34733e-05 -3.93378e-04        00000 
-1.03276e-04 -5.53693e-04        00000 
-1.15800e-04 -7.38466e-04        00000 
-1.15725e-04 -9.31173e-04        00000 
-9.96508e-05 -1.10874e-03        00000 
-6.76814e-05 -1.24581e-03        00000 
-2.39875e-05 -1.32062e-03        00000 
 2.40273e-05 -1.32058e-03        00000 
 6.77306e-05 -1.24568e-03        00000 
 9.97179e-05 -1.10850e-03        00000 
 1.15816e-04 -9.30788e-04        00000 
 1.15915e-04 -7.37899e-04        00000 
 1.03411e-04 -5.52911e-04        00000 
 8.36153e-05 -3.92361e-04        00000 
 6.18855e-05 -2.64549e-04        00000 
 4.22183e-05 -1.70347e-04        00000 
 2.66977e-05 -1.05576e-04        00000 
 1.57177e-05 -6.37666e-05        00000 
 8.61814e-06 -3.83518e-05        00000 
 4.37579e-06 -2.39231e-05        00000 
 2.43740e-06 -1.65384e-05        00000 
 3.46511e-06 -1.26800e-05        00000 
 3.87227e-06  1.46272e-05        00000 
 2.40407e-06  1.88134e-05        00000 
 4.26318e-06  2.66491e-05        00000 
 8.79668e-06  4.21454e-05        00000 
 1.68927e-05  7.02144e-05        00000 
 3.01729e-05  1.17991e-04        00000 
 4.99706e-05  1.94699e-04        00000 
 7.62961e-05  3.10174e-04        00000 
 1.06728e-04  4.71827e-04        00000 
 1.35825e-04  6.80457e-04        00000 
 1.55744e-04  9.26293e-04        00000 
 1.58312e-04  1.18722e-03        00000 
 1.37984e-04  1.43083e-03        00000 
 9.44447e-05  1.62060e-03        00000 
 3.36026e-05  1.72473e-03        00000 
-3.36456e-05  1.72469e-03        00000 
-9.45005e-05  1.62045e-03        00000 
-1.38064e-04  1.43055e-03        00000 
-1.58426e-04  1.18676e-03        00000 
-1.55893e-04  9.25603e-04        00000 
-1.36004e-04  6.79485e-04        00000 
-1.06920e-04  4.70541e-04        00000 
-7.64772e-05  3.08574e-04        00000 
-5.01181e-05  1.92821e-04        00000 
-3.02711e-05  1.15904e-04        00000 
-1.69401e-05  6.80032e-05        00000 
-8.80604e-06  3.98972e-05        00000 
-4.24171e-06  2.44544e-05        00000 
-2.17849e-06  1.67941e-05        00000 
-2.67106e-06  1.28338e-05        00000 
-3.21218e-06 -1.50364e-05        00000 
-2.06046e-06 -1.92904e-05        00000 
-3.87141e-06 -2.72283e-05        00000 
-8.51722e-06 -4.33412e-05        00000 
-1.74669e-05 -7.35326e-05        00000 
-3.31922e-05 -1.26988e-04        00000 
-5.81088e-05 -2.16435e-04        00000 
-9.30908e-05 -3.56555e-04        00000 
-1.35588e-04 -5.59896e-04        00000 
-1.78314e-04 -8.30566e-04        00000 
-2.09786e-04 -1.15769e-03        00000 
-2.17372e-04 -1.51186e-03        00000 
-1.92015e-04 -1.84740e-03        00000 
-1.32536e-04 -2.11144e-03        00000 
-4.73494e-05 -2.25717e-03        00000 
 4.73942e-05 -2.25712e-03        00000 
 1.32597e-04 -2.11128e-03        00000 