<?xml version="1.0" encoding="utf-8"?>
<VTKFile byte_order="LittleEndian" type="UnstructuredGrid" version="0.1">
   <UnstructuredGrid>
      <Piece NumberOfCells="3364" NumberOfPoints="1741">
         <Points>
            <DataArray Name="Points" NumberOfComponents="3" format="ascii" type="Float32">
0.0000 1.0000 0.0000
0.0000 1.0345 0.0000
0.0000 1.0690 0.0000
0.0000 1.1034 0.0000
0.0000 1.1379 0.0000
0.0000 1.1724 0.0000
0.0000 1.2069 0.0000
0.0000 1.2414 0.0000
0.0000 1.2759 0.0000
0.0000 1.3103 0.0000
0.0000 1.3448 0.0000
0.0000 1.3793 0.0000
0.0000 1.4138 0.0000
0.0000 1.4483 0.0000
0.0000 1.4828 0.0000
0.0000 1.5172 0.0000
0.0000 1.5517 0.0000
0.0000 1.5862 0.0000
0.0000 1.6207 0.0000
0.0000 1.6552 0.0000
0.0000 1.6897 0.0000
0.0000 1.7241 0.0000
0.0000 1.7586 0.0000
0.0000 1.7931 0.0000
0.0000 1.8276 0.0000
0.0000 1.8621 0.0000
0.0000 1.8966 0.0000
0.0000 1.9310 0.0000
0.0000 1.9655 0.0000
0.0000 2.0000 0.0000
0.0690 1.0000 0.0000
0.0690 1.0345 0.0000
0.0690 1.0690 0.0000
0.0690 1.1034 0.0000
0.0690 1.1379 0.0000
0.0690 1.1724 0.0000
0.0690 1.2069 0.0000
0.0690 1.2414 0.0000
0.0690 1.2759 0.0000
0.0690 1.3103 0.0000
0.0690 1.3448 0.0000
0.0690 1.3793 0.0000
0.0690 1.4138 0.0000
0.0690 1.4483 0.0000
0.0690 1.4828 0.0000
0.0690 1.5172 0.0000
0.0690 1.5517 0.0000
0.0690 1.5862 0.0000
0.0690 1.6207 0.0000
0.0690 1.6552 0.0000
0.0690 1.6897 0.0000
0.0690 1.7241 0.0000
0.0690 1.7586 0.0000
0.0690 1.7931 0.0000
0.0690 1.8276 0.0000
0.0690 1.8621 0.0000
0.0690 1.8966 0.0000
0.0690 1.9310 0.0000
0.0690 1.9655 0.0000
0.0690 2.0000 0.0000
0.1379 1.0000 0.0000
0.1379 1.0345 0.0000
0.1379 1.0690 0.0000
0.1379 1.1034 0.0000
0.1379 1.1379 0.0000
0.1379 1.1724 0.0000
0.1379 1.2069 0.0000
0.1379 1.2414 0.0000
0.1379 1.2759 0.0000
0.1379 1.3103 0.0000
0.1379 1.3448 0.0000
0.1379 1.3793 0.0000
0.1379 1.4138 0.0000
0.1379 1.4483 0.0000
0.1379 1.4828 0.0000
0.1379 1.5172 0.0000
0.1379 1.5517 0.0000
0.1379 1.5862 0.0000
0.1379 1.6207 0.0000
0.1379 1.6552 0.0000
0.1379 1.6897 0.0000
0.1379 1.7241 0.0000
0.1379 1.7586 0.0000
0.1379 1.7931 0.0000
0.1379 1.8276 0.0000
0.1379 1.8621 0.0000
0.1379 1.8966 0.0000
0.1379 1.9310 0.0000
0.1379 1.9655 0.0000
0.1379 2.0000 0.0000
0.2069 1.0000 0.0000
0.2069 1.0345 0.0000
0.2069 1.0690 0.0000
0.2069 1.1034 0.0000
0.2069 1.1379 0.0000
0.2069 1.1724 0.0000
0.2069 1.2069 0.0000
0.2069 1.2414 0.0000
0.2069 1.2759 0.0000
0.2069 1.3103 0.0000
0.2069 1.3448 0.0000
0.2069 1.3793 0.0000
0.2069 1.4138 0.0000
0.2069 1.4483 0.0000
0.2069 1.4828 0.0000
0.2069 1.5172 0.0000
0.2069 1.5517 0.0000
0.2069 1.5862 0.0000
0.2069 1.6207 0.0000
0.2069 1.6552 0.0000
0.2069 1.6897 0.0000
0.2069 1.7241 0.0000
0.2069 1.7586 0.0000
0.2069 1.7931 0.0000
0.2069 1.8276 0.0000
0.2069 1.8621 0.0000
0.2069 1.8966 0.0000
0.2069 1.9310 0.0000
0.2069 1.9655 0.0000
0.2069 2.0000 0.0000
0.2759 1.0000 0.0000
0.2759 1.0345 0.0000
0.2759 1.0690 0.0000
0.2759 1.1034 0.0000
0.2759 1.1379 0.0000
0.2759 1.1724 0.0000
0.2759 1.2069 0.0000
0.2759 1.2414 0.0000
0.2759 1.2759 0.0000
0.2759 1.3103 0.0000
0.2759 1.3448 0.0000
0.2759 1.3793 0.0000
0.2759 1.4138 0.0000
0.2759 1.4483 0.0000
0.2759 1.4828 0.0000
0.2759 1.5172 0.0000
0.2759 1.5517 0.0000
0.2759 1.5862 0.0000
0.2759 1.6207 0.0000
0.2759 1.6552 0.0000
0.2759 1.6897 0.0000
0.2759 1.7241 0.0000
0.2759 1.7586 0.0000
0.2759 1.7931 0.0000
0.2759 1.8276 0.0000
0.2759 1.8621 0.0000
0.2759 1.8966 0.0000
0.2759 1.9310 0.0000
0.2759 1.9655 0.0000
0.2759 2.0000 0.0000
0.3448 1.0000 0.0000
0.3448 1.0345 0.0000
0.3448 1.0690 0.0000
0.3448 1.1034 0.0000
0.3448 1.1379 0.0000
0.3448 1.1724 0.0000
0.3448 1.2069 0.0000
0.3448 1.2414 0.0000
0.3448 1.2759 0.0000
0.3448 1.3103 0.0000
0.3448 1.3448 0.0000
0.3448 1.3793 0.0000
0.3448 1.4138 0.0000
0.3448 1.4483 0.0000
0.3448 1.4828 0.0000
0.3448 1.5172 0.0000
0.3448 1.5517 0.0000
0.3448 1.5862 0.0000
0.3448 1.6207 0.0000
0.3448 1.6552 0.0000
0.3448 1.6897 0.0000
0.3448 1.7241 0.0000
0.3448 1.7586 0.0000
0.3448 1.7931 0.0000
0.3448 1.8276 0.0000
0.3448 1.8621 0.0000
0.3448 1.8966 0.0000
0.3448 1.9310 0.0000
0.3448 1.9655 0.0000
0.3448 2.0000 0.0000
0.4138 1.0000 0.0000
0.4138 1.0345 0.0000
0.4138 1.0690 0.0000
0.4138 1.1034 0.0000
0.4138 1.1379 0.0000
0.4138 1.1724 0.0000
0.4138 1.2069 0.0000
0.4138 1.2414 0.0000
0.4138 1.2759 0.0000
0.4138 1.3103 0.0000
0.4138 1.3448 0.0000
0.4138 1.3793 0.0000
0.4138 1.4138 0.0000
0.4138 1.4483 0.0000
0.4138 1.4828 0.0000
0.4138 1.5172 0.0000
0.4138 1.5517 0.0000
0.4138 1.5862 0.0000
0.4138 1.6207 0.0000
0.4138 1.6552 0.0000
0.4138 1.6897 0.0000
0.4138 1.7241 0.0000
0.4138 1.7586 0.0000
0.4138 1.7931 0.0000
0.4138 1.8276 0.0000
0.4138 1.8621 0.0000
0.4138 1.8966 0.0000
0.4138 1.9310 0.0000
0.4138 1.9655 0.0000
0.4138 2.0000 0.0000
0.4828 1.0000 0.0000
0.4828 1.0345 0.0000
0.4828 1.0690 0.0000
0.4828 1.1034 0.0000
0.4828 1.1379 0.0000
0.4828 1.1724 0.0000
0.4828 1.2069 0.0000
0.4828 1.2414 0.0000
0.4828 1.2759 0.0000
0.4828 1.3103 0.0000
0.4828 1.3448 0.0000
0.4828 1.3793 0.0000
0.4828 1.4138 0.0000
0.4828 1.4483 0.0000
0.4828 1.4828 0.0000
0.4828 1.5172 0.0000
0.4828 1.5517 0.0000
0.4828 1.5862 0.0000
0.4828 1.6207 0.0000
0.4828 1.6552 0.0000
0.4828 1.6897 0.0000
0.4828 1.7241 0.0000
0.4828 1.7586 0.0000
0.4828 1.7931 0.0000
0.4828 1.8276 0.0000
0.4828 1.8621 0.0000
0.4828 1.8966 0.0000
0.4828 1.9310 0.0000
0.4828 1.9655 0.0000
0.4828 2.0000 0.0000
0.5517 1.0000 0.0000
0.5517 1.0345 0.0000
0.5517 1.0690 0.0000
0.5517 1.1034 0.0000
0.5517 1.1379 0.0000
0.5517 1.1724 0.0000
0.5517 1.2069 0.0000
0.5517 1.2414 0.0000
0.5517 1.2759 0.0000
0.5517 1.3103 0.0000
0.5517 1.3448 0.0000
0.5517 1.3793 0.0000
0.5517 1.4138 0.0000
0.5517 1.4483 0.0000
0.5517 1.4828 0.0000
0.5517 1.5172 0.0000
0.5517 1.5517 0.0000
0.5517 1.5862 0.0000
0.5517 1.6207 0.0000
0.5517 1.6552 0.0000
0.5517 1.6897 0.0000
0.5517 1.7241 0.0000
0.5517 1.7586 0.0000
0.5517 1.7931 0.0000
0.5517 1.8276 0.0000
0.5517 1.8621 0.0000
0.5517 1.8966 0.0000
0.5517 1.9310 0.0000
0.5517 1.9655 0.0000
0.5517 2.0000 0.0000
0.6207 1.0000 0.0000
0.6207 1.0345 0.0000
0.6207 1.0690 0.0000
0.6207 1.1034 0.0000
0.6207 1.1379 0.0000
0.6207 1.1724 0.0000
0.6207 1.2069 0.0000
0.6207 1.2414 0.0000
0.6207 1.2759 0.0000
0.6207 1.3103 0.0000
0.6207 1.3448 0.0000
0.6207 1.3793 0.0000
0.6207 1.4138 0.0000
0.6207 1.4483 0.0000
0.6207 1.4828 0.0000
0.6207 1.5172 0.0000
0.6207 1.5517 0.0000
0.6207 1.5862 0.0000
0.6207 1.6207 0.0000
0.6207 1.6552 0.0000
0.6207 1.6897 0.0000
0.6207 1.7241 0.0000
0.6207 1.7586 0.0000
0.6207 1.7931 0.0000
0.6207 1.8276 0.0000
0.6207 1.8621 0.0000
0.6207 1.8966 0.0000
0.6207 1.9310 0.0000
0.6207 1.9655 0.0000
0.6207 2.0000 0.0000
0.6897 1.0000 0.0000
0.6897 1.0345 0.0000
0.6897 1.0690 0.0000
0.6897 1.1034 0.0000
0.6897 1.1379 0.0000
0.6897 1.1724 0.0000
0.6897 1.2069 0.0000
0.6897 1.2414 0.0000
0.6897 1.2759 0.0000
0.6897 1.3103 0.0000
0.6897 1.3448 0.0000
0.6897 1.3793 0.0000
0.6897 1.4138 0.0000
0.6897 1.4483 0.0000
0.6897 1.4828 0.0000
0.6897 1.5172 0.0000
0.6897 1.5517 0.0000
0.6897 1.5862 0.0000
0.6897 1.6207 0.0000
0.6897 1.6552 0.0000
0.6897 1.6897 0.0000
0.6897 1.7241 0.0000
0.6897 1.7586 0.0000
0.6897 1.7931 0.0000
0.6897 1.8276 0.0000
0.6897 1.8621 0.0000
0.6897 1.8966 0.0000
0.6897 1.9310 0.0000
0.6897 1.9655 0.0000
0.6897 2.0000 0.0000
0.7586 1.0000 0.0000
0.7586 1.0345 0.0000
0.7586 1.0690 0.0000
0.7586 1.1034 0.0000
0.7586 1.1379 0.0000
0.7586 1.1724 0.0000
0.7586 1.2069 0.0000
0.7586 1.2414 0.0000
0.7586 1.2759 0.0000
0.7586 1.3103 0.0000
0.7586 1.3448 0.0000
0.7586 1.3793 0.0000
0.7586 1.4138 0.0000
0.7586 1.4483 0.0000
0.7586 1.4828 0.0000
0.7586 1.5172 0.0000
0.7586 1.5517 0.0000
0.7586 1.5862 0.0000
0.7586 1.6207 0.0000
0.7586 1.6552 0.0000
0.7586 1.6897 0.0000
0.7586 1.7241 0.0000
0.7586 1.7586 0.0000
0.7586 1.7931 0.0000
0.7586 1.8276 0.0000
0.7586 1.8621 0.0000
0.7586 1.8966 0.0000
0.7586 1.9310 0.0000
0.7586 1.9655 0.0000
0.7586 2.0000 0.0000
0.8276 1.0000 0.0000
0.8276 1.0345 0.0000
0.8276 1.0690 0.0000
0.8276 1.1034 0.0000
0.8276 1.1379 0.0000
0.8276 1.1724 0.0000
0.8276 1.2069 0.0000
0.8276 1.2414 0.0000
0.8276 1.2759 0.0000
0.8276 1.3103 0.0000
0.8276 1.3448 0.0000
0.8276 1.3793 0.0000
0.8276 1.4138 0.0000
0.8276 1.4483 0.0000
0.8276 1.4828 0.0000
0.8276 1.5172 0.0000
0.8276 1.5517 0.0000
0.8276 1.5862 0.0000
0.8276 1.6207 0.0000
0.8276 1.6552 0.0000
0.8276 1.6897 0.0000
0.8276 1.7241 0.0000
0.8276 1.7586 0.0000
0.8276 1.7931 0.0000
0.8276 1.8276 0.0000
0.8276 1.8621 0.0000
0.8276 1.8966 0.0000
0.8276 1.9310 0.0000
0.8276 1.9655 0.0000
0.8276 2.0000 0.0000
0.8966 1.0000 0.0000
0.8966 1.0345 0.0000
0.8966 1.0690 0.0000
0.8966 1.1034 0.0000
0.8966 1.1379 0.0000
0.8966 1.1724 0.0000
0.8966 1.2069 0.0000
0.8966 1.2414 0.0000
0.8966 1.2759 0.0000
0.8966 1.3103 0.0000
0.8966 1.3448 0.0000
0.8966 1.3793 0.0000
0.8966 1.4138 0.0000
0.8966 1.4483 0.0000
0.8966 1.4828 0.0000
0.8966 1.5172 0.0000
0.8966 1.5517 0.0000
0.8966 1.5862 0.0000
0.8966 1.6207 0.0000
0.8966 1.6552 0.0000
0.8966 1.6897 0.0000
0.8966 1.7241 0.0000
0.8966 1.7586 0.0000
0.8966 1.7931 0.0000
0.8966 1.8276 0.0000
0.8966 1.8621 0.0000
0.8966 1.8966 0.0000
0.8966 1.9310 0.0000
0.8966 1.9655 0.0000
0.8966 2.0000 0.0000
0.9655 1.0000 0.0000
0.9655 1.0345 0.0000
0.9655 1.0690 0.0000
0.9655 1.1034 0.0000
0.9655 1.1379 0.0000
0.9655 1.1724 0.0000
0.9655 1.2069 0.0000
0.9655 1.2414 0.0000
0.9655 1.2759 0.0000
0.9655 1.3103 0.0000
0.9655 1.3448 0.0000
0.9655 1.3793 0.0000
0.9655 1.4138 0.0000
0.9655 1.4483 0.0000
0.9655 1.4828 0.0000
0.9655 1.5172 0.0000
0.9655 1.5517 0.0000
0.9655 1.5862 0.0000
0.9655 1.6207 0.0000
0.9655 1.6552 0.0000
0.9655 1.6897 0.0000
0.9655 1.7241 0.0000
0.9655 1.7586 0.0000
0.9655 1.7931 0.0000
0.9655 1.8276 0.0000
0.9655 1.8621 0.0000
0.9655 1.8966 0.0000
0.9655 1.9310 0.0000
0.9655 1.9655 0.0000
0.9655 2.0000 0.0000
1.0345 1.0000 0.0000
1.0345 1.0345 0.0000
1.0345 1.0690 0.0000
1.0345 1.1034 0.0000
1.0345 1.1379 0.0000
1.0345 1.1724 0.0000
1.0345 1.2069 0.0000
1.0345 1.2414 0.0000
1.0345 1.2759 0.0000
1.0345 1.3103 0.0000
1.0345 1.3448 0.0000
[...]
         <PointData>
            <DataArray Name="fValues" NumberOfComponents="3" format="ascii" type="Float64">
 8.12176e-23  9.50593e-23        00000 
-8.98345e-23  8.98345e-23        00000 
 1.22148e-22  1.77670e-22        00000 
-1.25567e-22 -1.11615e-22        00000 
 4.44176e-22  1.42136e-21        00000 
-8.71768e-22 -2.06670e-22        00000 
-8.88352e-23  7.10681e-22        00000 
 1.40635e-21  1.66306e-21        00000 
-1.59903e-21 -1.77670e-21        00000 
-1.01919e-21  6.59507e-22        00000 
-8.88352e-22 -1.06602e-21        00000 
-2.00907e-22  5.24590e-22        00000 
-7.10681e-22 -1.95437e-21        00000 
 4.06061e-22 -7.26483e-22        00000 
-8.88352e-23 -8.88352e-22        00000 
-7.53400e-23 -6.13882e-22        00000 
-1.77670e-22  2.84273e-21        00000 
 7.76404e-22 -3.89071e-21        00000 
-7.99517e-22 -1.59903e-21        00000 
-7.75723e-22  2.23230e-22        00000 
-3.55341e-22 -8.88352e-22        00000 
 2.20993e-21 -3.25053e-21        00000 
-6.21846e-22  2.30971e-21        00000 
 5.91559e-22 -1.69655e-21        00000 
 4.88593e-22  1.51020e-21        00000 
-1.48380e-22 -1.58733e-21        00000 
-1.77670e-22  4.44176e-22        00000 
 1.78917e-22 -1.87863e-21        00000 
 5.17984e-22  1.01917e-21        00000 
-1.29496e-22 -7.24863e-22        00000 
 1.66772e-06 -2.84173e-06        00000 
 1.38183e-06 -3.59750e-06        00000 
 8.10956e-07 -4.68405e-06        00000 
 2.11257e-07 -6.35976e-06        00000 
-7.66644e-07 -8.66223e-06        00000 
-2.53126e-06 -1.13220e-05        00000 
-5.12102e-06 -1.37042e-05        00000 
-7.13077e-06 -1.49515e-05        00000 
-8.40538e-06 -1.59980e-05        00000 
-8.94595e-06 -1.64066e-05        00000 
-8.23461e-06 -1.67347e-05        00000 
-6.86158e-06 -1.72651e-05        00000 
-5.31312e-06 -1.75772e-05        00000 
-3.39761e-06 -1.76468e-05        00000 
-1.12376e-06 -1.75958e-05        00000 
 1.30282e-06 -1.74901e-05        00000 
 3.64844e-06 -1.73456e-05        00000 
 5.70393e-06 -1.71449e-05        00000 
 7.30931e-06 -1.68519e-05        00000 
 8.36843e-06 -1.64263e-05        00000 
 8.85362e-06 -1.58370e-05        00000 
 8.79935e-06 -1.50735e-05        00000 
 8.28618e-06 -1.41521e-05        00000 
 7.41857e-06 -1.31164e-05        00000 
 6.30272e-06 -1.20291e-05        00000 
 5.04143e-06 -1.09566e-05        00000 
 3.78088e-06 -9.95661e-06        00000 
 2.67991e-06 -9.14698e-06        00000 
 1.93337e-06 -8.69348e-06        00000 
 2.68975e-06 -8.74480e-06        00000 
 4.85046e-06  6.94441e-07        00000 
 2.84672e-06  2.24372e-07        00000 
 2.60712e-06 -7.55498e-07        00000 
 2.96817e-06 -2.99205e-06        00000 
 2.81291e-06 -6.84279e-06        00000 
 1.01177e-06 -1.25274e-05        00000 
-3.69080e-06 -1.99736e-05        00000 
-1.23437e-05 -2.77814e-05        00000 
-1.63332e-05 -3.03365e-05        00000 
-1.51389e-05 -3.46369e-05        00000 
-1.29568e-05 -4.03622e-05        00000 
-1.17791e-05 -4.42448e-05        00000 
-9.64528e-06 -4.67929e-05        00000 
-6.27322e-06 -4.85103e-05        00000 
-2.17211e-06 -4.93277e-05        00000 
 2.18427e-06 -4.91357e-05        00000 
 6.35397e-06 -4.78989e-05        00000 
 9.95114e-06 -4.56650e-05        00000 
 1.26859e-05 -4.25542e-05        00000 
 1.43958e-05 -3.87437e-05        00000 
 1.50542e-05 -3.44492e-05        00000 
 1.47556e-05 -2.99057e-05        00000 
 1.36808e-05 -2.53487e-05        00000 
 1.20521e-05 -2.09997e-05        00000 
 1.00851e-05 -1.70607e-05        00000 
 7.93977e-06 -1.37119e-05        00000 
 5.70325e-06 -1.10721e-05        00000 
 3.73419e-06 -9.02528e-06        00000 
 2.32547e-06 -7.53091e-06        00000 
 6.10369e-07 -6.36902e-06        00000 
 2.66937e-06  9.32690e-06        00000 
 9.44164e-07  1.10390e-05        00000 
 2.60846e-06  1.18059e-05        00000 
 5.15512e-06  1.17168e-05        00000 
 7.56050e-06  1.05038e-05        00000 
 9.36872e-06  6.81366e-06        00000 
 9.59911e-06 -2.06119e-06        00000 
 4.93869e-06 -2.07568e-05        00000 
-1.97857e-05 -5.49055e-05        00000 
-1.38523e-05 -6.90102e-05        00000 
-1.22511e-05 -7.47384e-05        00000 
-1.14761e-05 -8.34386e-05        00000 
-8.87312e-06 -9.29482e-05        00000 
-5.60733e-06 -1.00349e-04        00000 
-1.95675e-06 -1.04299e-04        00000 
 1.79722e-06 -1.04221e-04        00000 
 5.35208e-06 -1.00070e-04        00000 
 8.42136e-06 -9.22523e-05        00000 
 1.07820e-05 -8.15449e-05        00000 
 1.23047e-05 -6.89545e-05        00000 
 1.29624e-05 -5.55593e-05        00000 
 1.28193e-05 -4.23564e-05        00000 
 1.20036e-05 -3.01421e-05        00000 
 1.06742e-05 -1.94410e-05        00000 
 8.98934e-06 -1.04881e-05        00000 
 7.07891e-06 -3.28078e-06        00000 
 5.03092e-06  2.18304e-06        00000 
 2.94560e-06  5.24070e-06        00000 
 4.42775e-06  4.32967e-06        00000 
 8.15133e-06 -2.03387e-06        00000 
-5.68808e-06  1.65967e-05        00000 
-5.57048e-06  1.64315e-05        00000 
-3.79569e-06  2.05983e-05        00000 
-1.84915e-06  2.90885e-05        00000 
-3.07027e-07  4.08465e-05        00000 
 1.86824e-06  5.59758e-05        00000 
 5.28286e-06  7.48741e-05        00000 
 1.00959e-05  9.76093e-05        00000 
 1.31121e-05  1.20292e-04        00000 
 2.47653e-06  1.43833e-04        00000 
 1.11210e-05  1.80251e-04        00000 
 1.08764e-05  2.06824e-04        00000 
 8.96664e-06  2.27684e-04        00000 
 5.82748e-06  2.42796e-04        00000 
 2.00307e-06  2.50779e-04        00000 
-2.07964e-06  2.50769e-04        00000 
-5.97246e-06  2.42742e-04        00000 
-9.27201e-06  2.27491e-04        00000 
-1.16804e-05  2.06476e-04        00000 
-1.30460e-05  1.81590e-04        00000 
-1.33719e-05  1.54874e-04        00000 
-1.27941e-05  1.28248e-04        00000 
-1.15388e-05  1.03298e-04        00000 
-9.87096e-06  8.11639e-05        00000 
-8.05221e-06  6.25202e-05        00000 
-6.31426e-06  4.76430e-05        00000 
-4.74949e-06  3.64456e-05        00000 
-2.89496e-06  2.80460e-05        00000 
 4.38235e-06  1.99976e-05        00000 
 8.55564e-06  2.06822e-05        00000 
-3.45459e-06 -1.84462e-05        00000 
-3.45405e-06 -2.34022e-05        00000 
-8.98151e-06 -3.17658e-05        00000 
-1.13715e-05 -4.08715e-05        00000 
-1.44136e-05 -5.43635e-05        00000 
-1.74535e-05 -7.28819e-05        00000 
-1.95804e-05 -9.66157e-05        00000 
-1.99372e-05 -1.24622e-04        00000 
-1.77878e-05 -1.52914e-04        00000 
-1.33593e-05 -1.78052e-04        00000 
-8.21816e-06 -2.06086e-04        00000 
-8.48135e-06 -2.35820e-04        00000 
-7.02570e-06 -2.60377e-04        00000 
-4.60974e-06 -2.77991e-04        00000 
-1.59830e-06 -2.87236e-04        00000 
 1.61089e-06 -2.87220e-04        00000 
 4.63898e-06 -2.77936e-04        00000 
 7.14886e-06 -2.60316e-04        00000 
 8.90053e-06 -2.36074e-04        00000 
 9.78701e-06 -2.07427e-04        00000 
 9.83880e-06 -1.76751e-04        00000 
 9.19867e-06 -1.46267e-04        00000 
 8.07737e-06 -1.17798e-04        00000 
 6.70512e-06 -9.26371e-05        00000 
 5.29156e-06 -7.15361e-05        00000 
 3.98618e-06 -5.47601e-05        00000 
 2.81604e-06 -4.20828e-05        00000 
 1.37815e-06 -3.25738e-05        00000 
-2.91511e-07 -2.54150e-05        00000 
-6.17197e-07 -2.25327e-05        00000 
 3.92112e-06  2.14794e-05        00000 
 1.83089e-06  2.63109e-05        00000 
 3.00996e-06  3.40503e-05        00000 
 4.88897e-06  4.46496e-05        00000 
 6.65378e-06  5.94557e-05        00000 
 8.66951e-06  7.95288e-05        00000 
 1.08674e-05  1.04958e-04        00000 
 1.32384e-05  1.34740e-04        00000 
 1.52966e-05  1.66777e-04        00000 
 1.53402e-05  1.99713e-04        00000 
 1.39322e-05  2.33600e-04        00000 
 1.22840e-05  2.66956e-04        00000 
 1.00337e-05  2.95773e-04        00000 
 6.56881e-06  3.16706e-04        00000 
 2.28569e-06  3.27713e-04        00000 
-2.28938e-06  3.27699e-04        00000 
-6.59282e-06  3.16677e-04        00000 
-1.01272e-05  2.95805e-04        00000 
-1.25452e-05  2.67191e-04        00000 
-1.37023e-05  2.33543e-04        00000 
-1.36602e-05  1.97735e-04        00000 
-1.26448e-05  1.62413e-04        00000 
-1.09751e-05  1.29700e-04        00000 
-8.98666e-06  1.01053e-04        00000 
-6.96529e-06  7.72489e-05        00000 
-5.09669e-06  5.84689e-05        00000 
-3.42440e-06  4.43772e-05        00000 
-1.98618e-06  3.42426e-05        00000 
-1.21545e-06  2.71584e-05        00000 
-2.69148e-06  2.29054e-05        00000 
-5.27715e-06 -2.29952e-05        00000 
-2.08583e-06 -2.80885e-05        00000 
-2.78125e-06 -3.60383e-05        00000 
-4.68456e-06 -4.77241e-05        00000 
-6.95259e-06 -6.43515e-05        00000 
-9.60662e-06 -8.68370e-05        00000 
-1.27083e-05 -1.15459e-04        00000 
-1.61061e-05 -1.49649e-04        00000 
-1.91161e-05 -1.88177e-04        00000 
-2.06536e-05 -2.29578e-04        00000 
-2.03027e-05 -2.72059e-04        00000 
-1.83437e-05 -3.12894e-04        00000 
-1.47943e-05 -3.48195e-04        00000 
-9.66620e-06 -3.74125e-04        00000 
-3.36245e-06 -3.87835e-04        00000 
 3.36912e-06 -3.87827e-04        00000 
 9.68910e-06 -3.74117e-04        00000 
 1.48466e-05 -3.48218e-04        00000 
 1.83236e-05 -3.12873e-04        00000 
 1.99162e-05 -2.71569e-04        00000 
 1.97356e-05 -2.27961e-04        00000 
 1.81390e-05 -1.85354e-04        00000 
 1.56156e-05 -1.46324e-04        00000 
 1.26666e-05 -1.12550e-04        00000 
 9.70608e-06 -8.48285e-05        00000 
 7.00046e-06 -6.32202e-05        00000 
 4.67352e-06 -4.72447e-05        00000 
 2.82468e-06 -3.60627e-05        00000 
 2.11987e-06 -2.85155e-05        00000 
 4.70869e-06 -2.36485e-05        00000 
 6.66284e-06  2.44563e-05        00000 
 2.76504e-06  2.99187e-05        00000 
 3.53504e-06  3.85048e-05        00000 
 5.92390e-06  5.15883e-05        00000 
 8.99555e-06  7.05936e-05        00000 
 1.27110e-05  9.66105e-05        00000 
 1.70084e-05  1.30231e-04        00000 
 2.15448e-05  1.71326e-04        00000 
 2.55657e-05  2.18940e-04        00000 
 2.80763e-05  2.71243e-04        00000 
 2.83323e-05  3.25369e-04        00000 
 2.60214e-05  3.77344e-04        00000 
 2.10934e-05  4.22342e-04        00000 
 1.37911e-05  4.55556e-04        00000 
 4.79977e-06  4.73196e-04        00000 
-4.80691e-06  4.73192e-04        00000 
-1.38029e-05  4.55546e-04        00000 
-2.10881e-05  4.22307e-04        00000 
-2.59137e-05  3.77171e-04        00000 
-2.80036e-05  3.24789e-04        00000 
-2.75518e-05  2.69977e-04        00000 
-2.51092e-05  2.16992e-04        00000 
-2.14074e-05  1.69052e-04        00000 
-1.71767e-05  1.28129e-04        00000 
-1.30059e-05  9.50238e-05        00000 
-9.27056e-06  6.96036e-05        00000 
-6.14322e-06  5.11196e-05        00000 
-3.72640e-06  3.84510e-05        00000 
-2.85717e-06  3.01339e-05        00000 
-6.35960e-06  2.47838e-05        00000 
-8.00539e-06 -2.60831e-05        00000 
-3.47521e-06 -3.20280e-05        00000 
-4.50382e-06 -4.15281e-05        00000 
-7.55472e-06 -5.64109e-05        00000 
-1.16120e-05 -7.84756e-05        00000 
-1.66288e-05 -1.09218e-04        00000 
-2.24522e-05 -1.49708e-04        00000 
-2.85797e-05 -2.00258e-04        00000 
-3.40996e-05 -2.60063e-04        00000 
-3.78443e-05 -3.26870e-04        00000 
-3.87167e-05 -3.96776e-04        00000 
-3.59717e-05 -4.64333e-04        00000 
-2.93649e-05 -5.23096e-04        00000 
-1.92675e-05 -5.66658e-04        00000 
-6.71646e-06 -5.89867e-04        00000 
 6.71961e-06 -5.89861e-04        00000 
 1.92641e-05 -5.66633e-04        00000 
 2.93294e-05 -5.23016e-04        00000 
 3.58526e-05 -4.64099e-04        00000 
 3.84751e-05 -3.96231e-04        00000 
 3.75279e-05 -3.25885e-04        00000 
 3.38506e-05 -2.58665e-04        00000 
 2.85214e-05 -1.98652e-04        00000 
 2.25866e-05 -1.48183e-04        00000 
 1.68648e-05 -1.08005e-04        00000 
 1.18571e-05 -7.76690e-05        00000 
 7.76702e-06 -5.59944e-05        00000 
 4.67329e-06 -4.14269e-05        00000 
 3.55189e-06 -3.21175e-05        00000 
 7.83673e-06 -2.62453e-05        00000 
 9.25099e-06  2.79041e-05        00000 
 4.16557e-06  3.44265e-05        00000 
 5.53310e-06  4.50543e-05        00000 
 9.36767e-06  6.21437e-05        00000 
 1.45937e-05  8.80063e-05        00000 
 2.12055e-05  1.24758e-04        00000 
 2.90083e-05  1.74152e-04        00000 
 3.73492e-05  2.37081e-04        00000 
 4.50597e-05  3.12937e-04        00000 
 5.05969e-05  3.99019e-04        00000 
 5.23696e-05  4.90206e-04        00000 
 4.91429e-05  5.79129e-04        00000 
 4.04077e-05  6.56997e-04        00000 
 2.66321e-05  7.15004e-04        00000 
 9.30483e-06  7.46006e-04        00000 
-9.30197e-06  7.45996e-04        00000 
-2.66181e-05  7.14965e-04        00000 
-4.03621e-05  6.56892e-04        00000 
-4.90390e-05  5.78886e-04        00000 
-5.21990e-05  4.89733e-04        00000 
-5.03983e-05  3.98256e-04        00000 
-4.49113e-05  3.11912e-04        00000 
-3.73158e-05  2.35923e-04        00000 
-2.90961e-05  1.73038e-04        00000 
-2.13689e-05  1.23842e-04        00000 
-1.47767e-05  8.73665e-05        00000 
-9.53347e-06  6.17858e-05        00000 
-5.66173e-06  4.49285e-05        00000 
-4.22436e-06  3.44401e-05        00000 
-9.16213e-06  2.79717e-05        00000 
-1.03541e-05 -2.98916e-05        00000 
-4.81905e-06 -3.70675e-05        00000 
-6.58150e-06 -4.89937e-05        00000 
-1.13044e-05 -6.86721e-05        00000 
-1.79109e-05 -9.90878e-05        00000 
-2.64971e-05 -1.43223e-04        00000 
-3.68808e-05 -2.03804e-04        00000 
-4.82572e-05 -2.82575e-04        00000 
-5.90959e-05 -3.79312e-04        00000 
-6.72762e-05 -4.90870e-04        00000 
-7.04855e-05 -6.10617e-04        00000 
-6.68094e-05 -7.28617e-04        00000 
-5.53481e-05 -8.32769e-04        00000 
-3.66592e-05 -9.10791e-04        00000 
-1.28404e-05 -9.52631e-04        00000 
 1.28322e-05 -9.52618e-04        00000 
 3.66398e-05 -9.10744e-04        00000 
 5.53033e-05 -8.32657e-04        00000 
 6.67264e-05 -7.28391e-04        00000 
 7.03662e-05 -6.10223e-04        00000 
 6.71478e-05 -4.90281e-04        00000 
 5.90030e-05 -3.78552e-04        00000 
 4.82359e-05 -2.81729e-04        00000 
 3.69369e-05 -2.02985e-04        00000 
 2.66073e-05 -1.42532e-04        00000 
 1.80410e-05 -9.85862e-05        00000 
 1.14261e-05 -6.83706e-05        00000 
 6.67541e-06 -4.88604e-05        00000 
 4.86457e-06 -3.70371e-05        00000 
 1.03146e-05 -2.99035e-05        00000 
 1.12708e-05  3.19993e-05        00000 
 5.41400e-06  3.98824e-05        00000 
 7.61331e-06  5.32322e-05        00000 
 1.33171e-05  7.58303e-05        00000 
 2.15397e-05  1.11530e-04        00000 
 3.25675e-05  1.64491e-04        00000 
 4.63064e-05  2.38823e-04        00000 
 6.18092e-05  3.37563e-04        00000 
 7.70706e-05  4.61218e-04        00000 
 8.91444e-05  6.06277e-04        00000 
 9.46633e-05  7.64234e-04        00000 
 9.07033e-05  9.21697e-04        00000 
 7.57532e-05  1.06192e-03        00000 
 5.04430e-05  1.16762e-03        00000 
 1.77157e-05  1.22451e-03        00000 
-1.77041e-05  1.22449e-03        00000 
-5.04221e-05  1.16757e-03        00000 
-7.57137e-05  1.06181e-03        00000 
-9.06396e-05  9.21498e-04        00000 
-9.45798e-05  7.63913e-04        00000 
-8.90595e-05  6.05822e-04        00000 
-7.70107e-05  4.60651e-04        00000 
-6.17952e-05  3.36939e-04        00000 
-4.63430e-05  2.38216e-04        00000 
-3.26419e-05  1.63969e-04        00000 
-2.16308e-05  1.11139e-04        00000 
-1.34043e-05  7.55800e-05        00000 
-7.68093e-06  5.31026e-05        00000 
-5.44965e-06  3.98289e-05        00000 
-1.12614e-05  3.19794e-05        00000 
-1.19609e-05 -3.41751e-05        00000 
-5.92033e-06 -4.27922e-05        00000 
-8.57757e-06 -5.76334e-05        00000 
-1.53314e-05 -8.33968e-05        00000 
-2.54126e-05 -1.25032e-04        00000 
-3.94280e-05 -1.88273e-04        00000 
-5.74962e-05 -2.79187e-04        00000 
-7.85718e-05 -4.02772e-04        00000 
-1.00057e-04 -5.60854e-04        00000 
-1.17857e-04 -7.49782e-04        00000 
-1.27060e-04 -9.58769e-04        00000 
-1.23213e-04 -1.16977e-03        00000 
-1.03821e-04 -1.35951e-03        00000 
-6.95381e-05 -1.50352e-03        00000 
-2.44923e-05 -1.58136e-03        00000 
 2.44791e-05 -1.58134e-03        00000 
 6.95180e-05 -1.50347e-03        00000 
 1.03788e-04 -1.35941e-03        00000 
 1.23165e-04 -1.16960e-03        00000 
 1.27002e-04 -9.58512e-04        00000 
 1.17800e-04 -7.49432e-04        00000 
 1.00018e-04 -5.60428e-04        00000 
 7.85627e-05 -4.02308e-04        00000 
 5.75205e-05 -2.78734e-04        00000 
 3.94786e-05 -1.87879e-04        00000 
 2.54759e-05 -1.24727e-04        00000 
 1.53931e-05 -8.31910e-05        00000 
 8.62591e-06 -5.75138e-05        00000 
 5.94837e-06 -4.27289e-05        00000 
 1.19692e-05 -3.41385e-05        00000 
 1.23926e-05  3.63685e-05        00000 
 6.30179e-06  4.57160e-05        00000 
 9.40427e-06  6.20442e-05        00000 
 1.72315e-05  9.10917e-05        00000 
 2.93890e-05  1.39158e-04        00000 
 4.69942e-05  2.14044e-04        00000 
 7.05847e-05  3.24553e-04        00000 
 9.91369e-05  4.78643e-04        00000 
 1.29354e-04  6.80410e-04        00000 
 1.55565e-04  9.26565e-04        00000 
 1.70600e-04  1.20363e-03        00000 
 1.67661e-04  1.48733e-03        00000 
 1.42667e-04  1.74520e-03        00000 
 9.61706e-05  1.94241e-03        00000 
 3.39789e-05  2.04949e-03        00000 
-3.39656e-05  2.04947e-03        00000 
-9.61524e-05  1.94237e-03        00000 
-1.42640e-04  1.74511e-03        00000 
-1.67625e-04  1.48719e-03        00000 
-1.70558e-04  1.20343e-03        00000 
-1.55526e-04  9.26296e-04        00000 
-1.29328e-04  6.80088e-04        00000 
-9.91309e-05  4.78296e-04        00000 
-7.06012e-05  3.24214e-04        00000 
-4.70289e-05  2.13745e-04        00000 
-2.94331e-05  1.38921e-04        00000 
-1.72749e-05  9.09238e-05        00000 
-9.43865e-06  6.19377e-05        00000 
-6.32382e-06  4.56510e-05        00000 
-1.24103e-05  3.63247e-05        00000 
-1.25475e-05 -3.85381e-05        00000 
-6.52058e-06 -4.85807e-05        00000 
-1.00070e-05 -6.63081e-05        00000 
-1.88541e-05 -9.85864e-05        00000 
-3.32299e-05 -1.53320e-04        00000 
-5.50316e-05 -2.40962e-04        00000 
-8.55535e-05 -3.74085e-04        00000 
-1.24052e-04 -5.65052e-04        00000 
-1.66482e-04 -8.21762e-04        00000 
-2.05040e-04 -1.14227e-03        00000 
-2.29247e-04 -1.51011e-03        00000 
-2.28700e-04 -1.89269e-03        00000 
-1.96735e-04 -2.24460e-03        00000 
-1.33556e-04 -2.51599e-03        00000 
-4.73502e-05 -2.66406e-03        00000 
 4.73377e-05 -2.66405e-03        00000 
 1.33541e-04 -2.51595e-03        00000 
 1.96714e-04 -2.24453e-03        00000 
 2.28673e-04 -1.89258e-03        00000 
 2.29218e-04 -1.50995e-03        00000 
 2.05013e-04 -1.14206e-03        00000 
 1.66464e-04 -8.21518e-04        00000 
 1.24048e-04 -5.64791e-04        00000 
 8.55649e-05 -3.73829e-04        00000 
 5.50555e-05 -2.40734e-04        00000 
 3.32606e-05 -1.53135e-04        00000 
 1.88846e-05 -9.84501e-05        00000 
 1.00313e-05 -6.62155e-05        00000 
 6.53785e-06 -4.85187e-05        00000 
 1.25695e-05 -3.84929e-05        00000 
 1.24271e-05  4.06581e-05        00000 
 6.54445e-06  5.13324e-05        00000 
 1.02918e-05  7.02854e-05        00000 
 1.99904e-05  1.05528e-04        00000 
 3.65742e-05  1.66782e-04        00000 
 6.30852e-05  2.67790e-04        00000 
 1.02110e-04  4.26226e-04        00000 
 1.53693e-04  6.60920e-04        00000 
 2.13132e-04  9.85979e-04        00000 
 2.69809e-04  1.40262e-03        00000 
 3.08391e-04  1.89142e-03        00000 
 3.12886e-04  2.40879e-03        00000 
 2.72427e-04  2.89102e-03        00000 
 1.86379e-04  3.26633e-03        00000 
 6.63260e-05  3.47221e-03        00000 
-6.63149e-05  3.47220e-03        00000 
-1.86366e-04  3.26630e-03        00000 