<?xml version="1.0" encoding="utf-8"?>
<VTKFile byte_order="LittleEndian" type="UnstructuredGrid" version="0.1">
   <UnstructuredGrid>
      <Piece NumberOfCells="3364" NumberOfPoints="1741">
         <Points>
            <DataArray Name="Points" NumberOfComponents="3" format="ascii" type="Float32">
0.0000 1.0000 0.0000
0.0000 1.0345 0.0000
0.0000 1.0690 0.0000
0.0000 1.1034 0.0000
0.0000 1.1379 0.0000
0.0000 1.1724 0.0000
0.0000 1.2069 0.0000
0.0000 1.2414 0.0000
0.0000 1.2759 0.0000
0.0000 1.3103 0.0000
0.0000 1.3448 0.0000
0.0000 1.3793 0.0000
0.0000 1.4138 0.0000
0.0000 1.4483 0.0000
0.0000 1.4828 0.0000
0.0000 1.5172 0.0000
0.0000 1.5517 0.0000
0.0000 1.5862 0.0000
0.0000 1.6207 0.0000
0.0000 1.6552 0.0000
0.0000 1.6897 0.0000
0.0000 1.7241 0.0000
0.0000 1.7586 0.0000
0.0000 1.7931 0.0000
0.0000 1.8276 0.0000
0.0000 1.8621 0.0000
0.0000 1.8966 0.0000
0.0000 1.9310 0.0000
0.0000 1.9655 0.0000
0.0000 2.0000 0.0000
0.0690 1.0000 0.0000
0.0690 1.0345 0.0000
0.0690 1.0690 0.0000
0.0690 1.1034 0.0000
0.0690 1.1379 0.0000
0.0690 1.1724 0.0000
0.0690 1.2069 0.0000
0.0690 1.2414 0.0000
0.0690 1.2759 0.0000
0.0690 1.3103 0.0000
0.0690 1.3448 0.0000
0.0690 1.3793 0.0000
0.0690 1.4138 0.0000
0.0690 1.4483 0.0000
0.0690 1.4828 0.0000
0.0690 1.5172 0.0000
0.0690 1.5517 0.0000
0.0690 1.5862 0.0000
0.0690 1.6207 0.0000
0.0690 1.6552 0.0000
0.0690 1.6897 0.0000
0.0690 1.7241 0.0000
0.0690 1.7586 0.0000
0.0690 1.7931 0.0000
0.0690 1.8276 0.0000
0.0690 1.8621 0.0000
0.0690 1.8966 0.0000
0.0690 1.9310 0.0000
0.0690 1.9655 0.0000
0.0690 2.0000 0.0000
0.1379 1.0000 0.0000
0.1379 1.0345 0.0000
0.1379 1.0690 0.0000
0.1379 1.1034 0.0000
0.1379 1.1379 0.0000
0.1379 1.1724 0.0000
0.1379 1.2069 0.0000
0.1379 1.2414 0.0000
0.1379 1.2759 0.0000
0.1379 1.3103 0.0000
0.1379 1.3448 0.0000
0.1379 1.3793 0.0000
0.1379 1.4138 0.0000
0.1379 1.4483 0.0000
0.1379 1.4828 0.0000
0.1379 1.5172 0.0000
0.1379 1.5517 0.0000
0.1379 1.5862 0.0000
0.1379 1.6207 0.0000
0.1379 1.6552 0.0000
0.1379 1.6897 0.0000
0.1379 1.7241 0.0000
0.1379 1.7586 0.0000
0.1379 1.7931 0.0000
0.1379 1.8276 0.0000
0.1379 1.8621 0.0000
0.1379 1.8966 0.0000
0.1379 1.9310 0.0000
0.1379 1.9655 0.0000
0.1379 2.0000 0.0000
0.2069 1.0000 0.0000
0.2069 1.0345 0.0000
0.2069 1.0690 0.0000
0.2069 1.1034 0.0000
0.2069 1.1379 0.0000
0.2069 1.1724 0.0000
0.2069 1.2069 0.0000
0.2069 1.2414 0.0000
0.2069 1.2759 0.0000
0.2069 1.3103 0.0000
0.2069 1.3448 0.0000
0.2069 1.3793 0.0000
0.2069 1.4138 0.0000
0.2069 1.4483 0.0000
0.2069 1.4828 0.0000
0.2069 1.5172 0.0000
0.2069 1.5517 0.0000
0.2069 1.5862 0.0000
0.2069 1.6207 0.0000
0.2069 1.6552 0.0000
0.2069 1.6897 0.0000
0.2069 1.7241 0.0000
0.2069 1.7586 0.0000
0.2069 1.7931 0.0000
0.2069 1.8276 0.0000
0.2069 1.8621 0.0000
0.2069 1.8966 0.0000
0.2069 1.9310 0.0000
0.2069 1.9655 0.0000
0.2069 2.0000 0.0000
0.2759 1.0000 0.0000
0.2759 1.0345 0.0000
0.2759 1.0690 0.0000
0.2759 1.1034 0.0000
0.2759 1.1379 0.0000
0.2759 1.1724 0.0000
0.2759 1.2069 0.0000
0.2759 1.2414 0.0000
0.2759 1.2759 0.0000
0.2759 1.3103 0.0000
0.2759 1.3448 0.0000
0.2759 1.3793 0.0000
0.2759 1.4138 0.0000
0.2759 1.4483 0.0000
0.2759 1.4828 0.0000
0.2759 1.5172 0.0000
0.2759 1.5517 0.0000
0.2759 1.5862 0.0000
0.2759 1.6207 0.0000
0.2759 1.6552 0.0000
0.2759 1.6897 0.0000
0.2759 1.7241 0.0000
0.2759 1.7586 0.0000
0.2759 1.7931 0.0000
0.2759 1.8276 0.0000
0.2759 1.8621 0.0000
0.2759 1.8966 0.0000
0.2759 1.9310 0.0000
0.2759 1.9655 0.0000
0.2759 2.0000 0.0000
0.3448 1.0000 0.0000
0.3448 1.0345 0.0000
0.3448 1.0690 0.0000
0.3448 1.1034 0.0000
0.3448 1.1379 0.0000
0.3448 1.1724 0.0000
0.3448 1.2069 0.0000
0.3448 1.2414 0.0000
0.3448 1.2759 0.0000
0.3448 1.3103 0.0000
0.3448 1.3448 0.0000
0.3448 1.3793 0.0000
0.3448 1.4138 0.0000
0.3448 1.4483 0.0000
0.3448 1.4828 0.0000
0.3448 1.5172 0.0000
0.3448 1.5517 0.0000
0.3448 1.5862 0.0000
0.3448 1.6207 0.0000
0.3448 1.6552 0.0000
0.3448 1.6897 0.0000
0.3448 1.7241 0.0000
0.3448 1.7586 0.0000
0.3448 1.7931 0.0000
0.3448 1.8276 0.0000
0.3448 1.8621 0.0000
0.3448 1.8966 0.0000
0.3448 1.9310 0.0000
0.3448 1.9655 0.0000
0.3448 2.0000 0.0000
0.4138 1.0000 0.0000
0.4138 1.0345 0.0000
0.4138 1.0690 0.0000
0.4138 1.1034 0.0000
0.4138 1.1379 0.0000
0.4138 1.1724 0.0000
0.4138 1.2069 0.0000
0.4138 1.2414 0.0000
0.4138 1.2759 0.0000
0.4138 1.3103 0.0000
0.4138 1.3448 0.0000
0.4138 1.3793 0.0000
0.4138 1.4138 0.0000
0.4138 1.4483 0.0000
0.4138 1.4828 0.0000
0.4138 1.5172 0.0000
0.4138 1.5517 0.0000
0.4138 1.5862 0.0000
0.4138 1.6207 0.0000
0.4138 1.6552 0.0000
0.4138 1.6897 0.0000
0.4138 1.7241 0.0000
0.4138 1.7586 0.0000
0.4138 1.7931 0.0000
0.4138 1.8276 0.0000
0.4138 1.8621 0.0000
0.4138 1.8966 0.0000
0.4138 1.9310 0.0000
0.4138 1.9655 0.0000
0.4138 2.0000 0.0000
0.4828 1.0000 0.0000
0.4828 1.0345 0.0000
0.4828 1.0690 0.0000
0.4828 1.1034 0.0000
0.4828 1.1379 0.0000
0.4828 1.1724 0.0000
0.4828 1.2069 0.0000
0.4828 1.2414 0.0000
0.4828 1.2759 0.0000
0.4828 1.3103 0.0000
0.4828 1.3448 0.0000
0.4828 1.3793 0.0000
0.4828 1.4138 0.0000
0.4828 1.4483 0.0000
0.4828 1.4828 0.0000
0.4828 1.5172 0.0000
0.4828 1.5517 0.0000
0.4828 1.5862 0.0000
0.4828 1.6207 0.0000
0.4828 1.6552 0.0000
0.4828 1.6897 0.0000
0.4828 1.7241 0.0000
0.4828 1.7586 0.0000
0.4828 1.7931 0.0000
0.4828 1.8276 0.0000
0.4828 1.8621 0.0000
0.4828 1.8966 0.0000
0.4828 1.9310 0.0000
0.4828 1.9655 0.0000
0.4828 2.0000 0.0000
0.5517 1.0000 0.0000
0.5517 1.0345 0.0000
0.5517 1.0690 0.0000
0.5517 1.1034 0.0000
0.5517 1.1379 0.0000
0.5517 1.1724 0.0000
0.5517 1.2069 0.0000
0.5517 1.2414 0.0000
0.5517 1.2759 0.0000
0.5517 1.3103 0.0000
0.5517 1.3448 0.0000
0.5517 1.3793 0.0000
0.5517 1.4138 0.0000
0.5517 1.4483 0.0000
0.5517 1.4828 0.0000
0.5517 1.5172 0.0000
0.5517 1.5517 0.0000
0.5517 1.5862 0.0000
0.5517 1.6207 0.0000
0.5517 1.6552 0.0000
0.5517 1.6897 0.0000
0.5517 1.7241 0.0000
0.5517 1.7586 0.0000
0.5517 1.7931 0.0000
0.5517 1.8276 0.0000
0.5517 1.8621 0.0000
0.5517 1.8966 0.0000
0.5517 1.9310 0.0000
0.5517 1.9655 0.0000
0.5517 2.0000 0.0000
0.6207 1.0000 0.0000
0.6207 1.0345 0.0000
0.6207 1.0690 0.0000
0.6207 1.1034 0.0000
0.6207 1.1379 0.0000
0.6207 1.1724 0.0000
0.6207 1.2069 0.0000
0.6207 1.2414 0.0000
0.6207 1.2759 0.0000
0.6207 1.3103 0.0000
0.6207 1.3448 0.0000
0.6207 1.3793 0.0000
0.6207 1.4138 0.0000
0.6207 1.4483 0.0000
0.6207 1.4828 0.0000
0.6207 1.5172 0.0000
0.6207 1.5517 0.0000
0.6207 1.5862 0.0000
0.6207 1.6207 0.0000
0.6207 1.6552 0.0000
0.6207 1.6897 0.0000
0.6207 1.7241 0.0000
0.6207 1.7586 0.0000
0.6207 1.7931 0.0000
0.6207 1.8276 0.0000
0.6207 1.8621 0.0000
0.6207 1.8966 0.0000
0.6207 1.9310 0.0000
0.6207 1.9655 0.0000
0.6207 2.0000 0.0000
0.6897 1.0000 0.0000
0.6897 1.0345 0.0000
0.6897 1.0690 0.0000
0.6897 1.1034 0.0000
0.6897 1.1379 0.0000
0.6897 1.1724 0.0000
0.6897 1.2069 0.0000
0.6897 1.2414 0.0000
0.6897 1.2759 0.0000
0.6897 1.3103 0.0000
0.6897 1.3448 0.0000
0.6897 1.3793 0.0000
0.6897 1.4138 0.0000
0.6897 1.4483 0.0000
0.6897 1.4828 0.0000
0.6897 1.5172 0.0000
0.6897 1.5517 0.0000
0.6897 1.5862 0.0000
0.6897 1.6207 0.0000
0.6897 1.6552 0.0000
0.6897 1.6897 0.0000
0.6897 1.7241 0.0000
0.6897 1.7586 0.0000
0.6897 1.7931 0.0000
0.6897 1.8276 0.0000
0.6897 1.8621 0.0000
0.6897 1.8966 0.0000
0.6897 1.9310 0.0000
0.6897 1.9655 0.0000
0.6897 2.0000 0.0000
0.7586 1.0000 0.0000
0.7586 1.0345 0.0000
0.7586 1.0690 0.0000
0.7586 1.1034 0.0000
0.7586 1.1379 0.0000
0.7586 1.1724 0.0000
0.7586 1.2069 0.0000
0.7586 1.2414 0.0000
0.7586 1.2759 0.0000
0.7586 1.3103 0.0000
0.7586 1.3448 0.0000
0.7586 1.3793 0.0000
0.7586 1.4138 0.0000
0.7586 1.4483 0.0000
0.7586 1.4828 0.0000
0.7586 1.5172 0.0000
0.7586 1.5517 0.0000
0.7586 1.5862 0.0000
0.7586 1.6207 0.0000
0.7586 1.6552 0.0000
0.7586 1.6897 0.0000
0.7586 1.7241 0.0000
0.7586 1.7586 0.0000
0.7586 1.7931 0.0000
0.7586 1.8276 0.0000
0.7586 1.8621 0.0000
0.7586 1.8966 0.0000
0.7586 1.9310 0.0000
0.7586 1.9655 0.0000
0.7586 2.0000 0.0000
0.8276 1.0000 0.0000
0.8276 1.0345 0.0000
0.8276 1.0690 0.0000
0.8276 1.1034 0.0000
0.8276 1.1379 0.0000
0.8276 1.1724 0.0000
0.8276 1.2069 0.0000
0.8276 1.2414 0.0000
0.8276 1.2759 0.0000
0.8276 1.3103 0.0000
0.8276 1.3448 0.0000
0.8276 1.3793 0.0000
0.8276 1.4138 0.0000
0.8276 1.4483 0.0000
0.8276 1.4828 0.0000
0.8276 1.5172 0.0000
0.8276 1.5517 0.0000
0.8276 1.5862 0.0000
0.8276 1.6207 0.0000
0.8276 1.6552 0.0000
0.8276 1.6897 0.0000
0.8276 1.7241 0.0000
0.8276 1.7586 0.0000
0.8276 1.7931 0.0000
0.8276 1.8276 0.0000
0.8276 1.8621 0.0000
0.8276 1.8966 0.0000
0.8276 1.9310 0.0000
0.8276 1.9655 0.0000
0.8276 2.0000 0.0000
0.8966 1.0000 0.0000
0.8966 1.0345 0.0000
0.8966 1.0690 0.0000
0.8966 1.1034 0.0000
0.8966 1.1379 0.0000
0.8966 1.1724 0.0000
0.8966 1.2069 0.0000
0.8966 1.2414 0.0000
0.8966 1.2759 0.0000
0.8966 1.3103 0.0000
0.8966 1.3448 0.0000
0.8966 1.3793 0.0000
0.8966 1.4138 0.0000
0.8966 1.4483 0.0000
0.8966 1.4828 0.0000
0.8966 1.5172 0.0000
0.8966 1.5517 0.0000
0.8966 1.5862 0.0000
0.8966 1.6207 0.0000
0.8966 1.6552 0.0000
0.8966 1.6897 0.0000
0.8966 1.7241 0.0000
0.8966 1.7586 0.0000
0.8966 1.7931 0.0000
0.8966 1.8276 0.0000
0.8966 1.8621 0.0000
0.8966 1.8966 0.0000
0.8966 1.9310 0.0000
0.8966 1.9655 0.0000
0.8966 2.0000 0.0000
0.9655 1.0000 0.0000
0.9655 1.0345 0.0000
0.9655 1.0690 0.0000
0.9655 1.1034 0.0000
0.9655 1.1379 0.0000
0.9655 1.1724 0.0000
0.9655 1.2069 0.0000
0.9655 1.2414 0.0000
0.9655 1.2759 0.0000
0.9655 1.3103 0.0000
0.9655 1.3448 0.0000
0.9655 1.3793 0.0000
0.9655 1.4138 0.0000
0.9655 1.4483 0.0000
0.9655 1.4828 0.0000
0.9655 1.5172 0.0000
0.9655 1.5517 0.0000
0.9655 1.5862 0.0000
0.9655 1.6207 0.0000
0.9655 1.6552 0.0000
0.9655 1.6897 0.0000
0.9655 1.7241 0.0000
0.9655 1.7586 0.0000
0.9655 1.7931 0.0000
0.9655 1.8276 0.0000
0.9655 1.8621 0.0000
0.9655 1.8966 0.0000
0.9655 1.9310 0.0000
0.9655 1.9655 0.0000
0.9655 2.0000 0.0000
1.0345 1.0000 0.0000
1.0345 1.0345 0.0000
1.0345 1.0690 0.0000
1.0345 1.1034 0.0000
1.0345 1.1379 0.0000
1.0345 1.1724 0.0000
1.0345 1.2069 0.0000
1.0345 1.2414 0.0000
1.0345 1.2759 0.0000
1.0345 1.3103 0.0000
1.0345 1.3448 0.0000
[...]
         <PointData>
            <DataArray Name="fValues" NumberOfComponents="3" format="ascii" type="Float64">
-4.49172e-23 -1.79669e-22        00000 
 1.79669e-22  7.18676e-22        00000 
       00000 -3.55341e-22        00000 
 7.58981e-22 -2.79037e-23        00000 
-1.46578e-21  7.99517e-22        00000 
 1.17087e-21 -5.18758e-22        00000 
-7.55099e-22  5.33011e-22        00000 
 2.23230e-22 -8.37112e-23        00000 
 4.44176e-23 -2.66506e-22        00000 
 1.19369e-22  8.01630e-23        00000 
-2.22088e-22 -3.33132e-23        00000 
-5.40635e-23  1.60446e-22        00000 
-5.27459e-23 -8.88352e-23        00000 
 1.05381e-22 -1.76926e-22        00000 
-8.46710e-23 -2.22088e-23        00000 
 3.48797e-22 -2.17649e-22        00000 
-4.88593e-22  4.44176e-23        00000 
 7.19017e-22 -8.27009e-23        00000 
-8.88352e-23 -1.11044e-23        00000 
 5.02267e-23  5.58074e-24        00000 
 7.99517e-22 -1.33253e-22        00000 
-2.13661e-21  5.89399e-22        00000 
 2.66506e-22 -2.22088e-22        00000 
-6.69689e-23 -1.00453e-22        00000 
-2.66506e-22  7.99517e-22        00000 
-6.27477e-22 -4.72795e-22        00000 
 1.15486e-21 -7.10681e-22        00000 
-8.38673e-22  1.68853e-21        00000 
 1.67995e-22 -4.25586e-22        00000 
-1.92228e-21  2.92683e-21        00000 
 1.18832e-05  1.20082e-05        00000 
 7.99756e-06  9.76941e-06        00000 
 6.41333e-06  8.40794e-06        00000 
 5.61461e-06  7.42889e-06        00000 
 5.19089e-06  6.55496e-06        00000 
 4.93574e-06  5.65080e-06        00000 
 4.71945e-06  4.66240e-06        00000 
 4.45294e-06  3.58661e-06        00000 
 4.07522e-06  2.45351e-06        00000 
 3.54812e-06  1.31468e-06        00000 
 2.85370e-06  2.34395e-07        00000 
 1.99275e-06 -7.17741e-07        00000 
 9.83208e-07 -1.47337e-06        00000 
-1.41504e-07 -1.97144e-06        00000 
-1.33492e-06 -2.16374e-06        00000 
-2.54062e-06 -2.01956e-06        00000 
-3.69617e-06 -1.52939e-06        00000 
-4.73775e-06 -7.07174e-07        00000 
-5.60546e-06  4.09135e-07        00000 
-6.24872e-06  1.75900e-06        00000 
-6.63171e-06  3.26278e-06        00000 
-6.73876e-06  4.82712e-06        00000 
-6.57927e-06  6.35284e-06        00000 
-6.19340e-06  7.74438e-06        00000 
-5.65849e-06  8.92346e-06        00000 
-5.09870e-06  9.84624e-06        00000 
-4.70337e-06  1.05299e-05        00000 
-4.77336e-06  1.10945e-05        00000 
-5.87950e-06  1.18416e-05        00000 
-9.91467e-06  1.33606e-05        00000 
 1.92652e-05  2.07164e-05        00000 
 1.55826e-05  1.93553e-05        00000 
 1.31848e-05  1.78490e-05        00000 
 1.19442e-05  1.63596e-05        00000 
 1.13741e-05  1.48138e-05        00000 
 1.11133e-05  1.31387e-05        00000 
 1.08934e-05  1.13057e-05        00000 
 1.05159e-05  9.33197e-06        00000 
 9.83901e-06  7.27257e-06        00000 
 8.77114e-06  5.21149e-06        00000 
 7.26732e-06  3.25212e-06        00000 
 5.32704e-06  1.50759e-06        00000 
 2.99186e-06  9.07922e-08        00000 
 3.42097e-07 -8.95484e-07        00000 
-2.50842e-06 -1.36796e-06        00000 
-5.41963e-06 -1.27105e-06        00000 
-8.23469e-06 -5.83218e-07        00000 
-1.07913e-05  6.78915e-07        00000 
-1.29347e-05  2.45931e-06        00000 
-1.45318e-05  4.66456e-06        00000 
-1.54852e-05  7.16975e-06        00000 
-1.57455e-05  9.82812e-06        00000 
-1.53241e-05  1.24825e-05        00000 
-1.43036e-05  1.49821e-05        00000 
-1.28514e-05  1.71962e-05        00000 
-1.12368e-05  1.90362e-05        00000 
-9.85399e-06  2.04726e-05        00000 
-9.25860e-06  2.15499e-05        00000 
-1.02141e-05  2.23494e-05        00000 
-1.31828e-05  2.27250e-05        00000 
 2.41473e-05  2.93743e-05        00000 
 2.07827e-05  2.84841e-05        00000 
 1.89057e-05  2.73711e-05        00000 
 1.81212e-05  2.59263e-05        00000 
 1.80354e-05  2.41475e-05        00000 
 1.82334e-05  2.20421e-05        00000 
 1.83570e-05  1.96372e-05        00000 
 1.81174e-05  1.69875e-05        00000 
 1.72956e-05  1.41778e-05        00000 
 1.57421e-05  1.13210e-05        00000 
 1.33784e-05  8.55388e-06        00000 
 1.01988e-05  6.02812e-06        00000 
 6.27118e-06  3.89847e-06        00000 
 1.73357e-06  2.30946e-06        00000 
-3.21400e-06  1.38187e-06        00000 
-8.32212e-06  1.20108e-06        00000 
-1.33087e-05  1.80825e-06        00000 
-1.78784e-05  3.19487e-06        00000 
-2.17452e-05  5.30041e-06        00000 
-2.46566e-05  8.01316e-06        00000 
-2.64206e-05  1.11754e-05        00000 
-2.69316e-05  1.45951e-05        00000 
-2.61836e-05  1.80655e-05        00000 
-2.42919e-05  2.13749e-05        00000 
-2.14953e-05  2.43369e-05        00000 
-1.81720e-05  2.67830e-05        00000 
-1.48594e-05  2.85850e-05        00000 
-1.22448e-05  2.96472e-05        00000 
-1.10873e-05  2.99156e-05        00000 
-1.21838e-05  2.94980e-05        00000 
 2.60085e-05  3.74147e-05        00000 
 2.35553e-05  3.72359e-05        00000 
 2.29284e-05  3.66147e-05        00000 
 2.34775e-05  3.54825e-05        00000 
 2.46309e-05  3.38367e-05        00000 
 2.59020e-05  3.17094e-05        00000 
 2.68676e-05  2.91450e-05        00000 
 2.71684e-05  2.62016e-05        00000 
 2.65087e-05  2.29635e-05        00000 
 2.46672e-05  1.95515e-05        00000 
 2.15121e-05  1.61240e-05        00000 
 1.70179e-05  1.28695e-05        00000 
 1.12754e-05  9.98975e-06        00000 
 4.49171e-06  7.67905e-06        00000 
-3.02204e-06  6.10342e-06        00000 
-1.08729e-05  5.38366e-06        00000 
-1.86150e-05  5.58473e-06        00000 
-2.57811e-05  6.71177e-06        00000 
-3.19130e-05  8.71049e-06        00000 
-3.65923e-05  1.14681e-05        00000 
-3.94770e-05  1.48120e-05        00000 
-4.03514e-05  1.85096e-05        00000 
-3.91820e-05  2.22860e-05        00000 
-3.60890e-05  2.58877e-05        00000 
-3.13913e-05  2.90445e-05        00000 
-2.55558e-05  3.15789e-05        00000 
-1.91789e-05  3.32949e-05        00000 
-1.30826e-05  3.40216e-05        00000 
-8.31521e-06  3.36291e-05        00000 
-6.19208e-06  3.21043e-05        00000 
 2.37577e-05  4.31786e-05        00000 
 2.33905e-05  4.38870e-05        00000 
 2.49637e-05  4.39450e-05        00000 
 2.75827e-05  4.34390e-05        00000 
 3.05978e-05  4.24425e-05        00000 
 3.35034e-05  4.09864e-05        00000 
 3.58652e-05  3.90487e-05        00000 
 3.72615e-05  3.66012e-05        00000 
 3.72876e-05  3.36517e-05        00000 
 3.55898e-05  3.02777e-05        00000 
 3.19206e-05  2.66352e-05        00000 
 2.61892e-05  2.29458e-05        00000 
 1.84938e-05  1.94663e-05        00000 
 9.12807e-06  1.64517e-05        00000 
-1.44130e-06  1.41188e-05        00000 
-1.26180e-05  1.26188e-05        00000 
-2.37333e-05  1.20257e-05        00000 
-3.41030e-05  1.23410e-05        00000 
-4.30717e-05  1.35109e-05        00000 
-5.00362e-05  1.54454e-05        00000 
-5.44568e-05  1.80201e-05        00000 
-5.58876e-05  2.10454e-05        00000 
-5.40915e-05  2.42026e-05        00000 
-4.93231e-05  2.70311e-05        00000 
-4.19771e-05  2.93337e-05        00000 
-3.27328e-05  3.07628e-05        00000 
-2.24102e-05  3.13863e-05        00000 
-1.15993e-05  3.11625e-05        00000 
-1.39064e-06  2.98067e-05        00000 
 6.43045e-06  2.69927e-05        00000 
 1.67258e-05  4.32110e-05        00000 
 2.01722e-05  4.48054e-05        00000 
 2.47921e-05  4.57416e-05        00000 
 2.97833e-05  4.64559e-05        00000 
 3.47846e-05  4.71737e-05        00000 
 3.95953e-05  4.77910e-05        00000 
 4.38828e-05  4.80583e-05        00000 
 4.71414e-05  4.76953e-05        00000 
 4.87293e-05  4.65152e-05        00000 
 4.80017e-05  4.44807e-05        00000 
 4.44527e-05  4.17097e-05        00000 
 3.78297e-05  3.84449e-05        00000 
 2.82044e-05  3.50013e-05        00000 
 1.59896e-05  3.16996e-05        00000 
 1.89864e-06  2.88017e-05        00000 
-1.31463e-05  2.64612e-05        00000 
-2.81361e-05  2.47063e-05        00000 
-4.20988e-05  2.34603e-05        00000 
-5.41899e-05  2.25991e-05        00000 
-6.37169e-05  2.20309e-05        00000 
-7.00766e-05  2.17654e-05        00000 
-7.26144e-05  2.19175e-05        00000 
-7.05133e-05  2.25491e-05        00000 
-6.30265e-05  2.32487e-05        00000 
-5.16354e-05  2.24832e-05        00000 
-3.76630e-05  2.07062e-05        00000 
-2.22255e-05  1.74098e-05        00000 
-7.00116e-06  1.35660e-05        00000 
 9.05733e-06  1.03464e-05        00000 
 2.64013e-05  6.11326e-06        00000 
 6.20694e-06  3.19811e-05        00000 
 1.52059e-05  3.39849e-05        00000 
 2.24896e-05  3.59083e-05        00000 
 2.85625e-05  3.90977e-05        00000 
 3.45524e-05  4.35456e-05        00000 
 4.09901e-05  4.87621e-05        00000 
 4.77471e-05  5.39509e-05        00000 
 5.39872e-05  5.84274e-05        00000 
 5.85327e-05  6.17287e-05        00000 
 6.01734e-05  6.36273e-05        00000 
 5.79137e-05  6.41194e-05        00000 
 5.11742e-05  6.33917e-05        00000 
 3.99317e-05  6.17540e-05        00000 
 2.47679e-05  5.95449e-05        00000 
 6.80486e-06  5.70257e-05        00000 
-1.24702e-05  5.42921e-05        00000 
-3.14586e-05  5.12331e-05        00000 
-4.87246e-05  4.75573e-05        00000 
-6.32208e-05  4.28944e-05        00000 
-7.43896e-05  3.69644e-05        00000 
-8.20735e-05  2.97962e-05        00000 
-8.61631e-05  2.19537e-05        00000 
-8.58785e-05  1.46718e-05        00000 
-7.87187e-05  9.54814e-06        00000 
-5.89631e-05  6.89243e-06        00000 
-3.42466e-05 -2.47366e-06        00000 
-1.25200e-05 -1.41778e-05        00000 
 7.05625e-06 -2.65721e-05        00000 
 2.26315e-05 -3.87609e-05        00000 
 4.23682e-05 -4.25399e-05        00000 
-4.43725e-07  3.51122e-06        00000 
 1.28958e-05  3.65876e-06        00000 
 1.78578e-05  7.28022e-06        00000 
 2.07048e-05  1.47908e-05        00000 
 2.50180e-05  2.57942e-05        00000 
 3.24812e-05  3.85720e-05        00000 
 4.22776e-05  5.19689e-05        00000 
 5.27288e-05  6.51835e-05        00000 
 6.18581e-05  7.75430e-05        00000 
 6.76650e-05  8.84670e-05        00000 
 6.84130e-05  9.75174e-05        00000 
 6.29556e-05  1.04443e-04        00000 
 5.10225e-05  1.09171e-04        00000 
 3.33691e-05  1.11739e-04        00000 
 1.17144e-05  1.12182e-04        00000 
-1.15514e-05  1.10411e-04        00000 
-3.38353e-05  1.06136e-04        00000 
-5.28796e-05  9.88550e-05        00000 
-6.72375e-05  8.79230e-05        00000 
-7.65656e-05  7.26914e-05        00000 
-8.16574e-05  5.27294e-05        00000 
-8.41614e-05  2.81728e-05        00000 
-8.58729e-05  3.64240e-07        00000 
-8.68929e-05 -2.68321e-05        00000 
-8.17903e-05 -4.50187e-05        00000 
-2.89388e-05 -3.77365e-05        00000 
 3.39860e-05 -6.18940e-05        00000 
 5.27494e-05 -1.04044e-04        00000 
 2.36988e-05 -1.09263e-04        00000 
 9.49648e-06 -9.65879e-05        00000 
 1.82236e-05 -4.16542e-05        00000 
 2.00619e-05 -4.50609e-05        00000 
 1.02335e-05 -4.15024e-05        00000 
 1.81035e-06 -2.92461e-05        00000 
 2.57284e-06 -1.33858e-05        00000 
 1.00179e-05  5.73361e-06        00000 
 2.16923e-05  2.85314e-05        00000 
 3.54084e-05  5.48951e-05        00000 
 4.88176e-05  8.40167e-05        00000 
 5.93539e-05  1.14496e-04        00000 
 6.45329e-05  1.44518e-04        00000 
 6.24610e-05  1.72078e-04        00000 
 5.23701e-05  1.95214e-04        00000 
 3.49722e-05  2.12218e-04        00000 
 1.24710e-05  2.21801e-04        00000 
-1.18305e-05  2.23192e-04        00000 
-3.42448e-05  2.16151e-04        00000 
-5.15422e-05  2.00907e-04        00000 
-6.16810e-05  1.77988e-04        00000 
-6.42306e-05  1.47932e-04        00000 
-6.04048e-05  1.10824e-04        00000 
-5.27597e-05  6.56476e-05        00000 
-4.46999e-05  9.39086e-06        00000 
-4.02931e-05 -6.39821e-05        00000 
-4.19510e-05 -1.62821e-04        00000 
-6.61911e-05 -2.92321e-04        00000 
 1.19239e-04 -2.63576e-04        00000 
 4.71263e-05 -1.36570e-04        00000 
-3.62264e-05 -7.37156e-05        00000 
-6.56910e-05 -5.46537e-05        00000 
 1.00654e-04 -3.45639e-05        00000 
 5.93274e-05 -7.07906e-05        00000 
 4.95772e-06 -8.56777e-05        00000 
-1.54665e-05 -9.62927e-05        00000 
-2.20807e-05 -9.66661e-05        00000 
-2.16257e-05 -8.38441e-05        00000 
-1.68826e-05 -5.63457e-05        00000 
-9.47611e-06 -1.31365e-05        00000 
-8.82306e-07  4.57181e-05        00000 
 7.29514e-06  1.18114e-04        00000 
 1.33975e-05  1.99316e-04        00000 
 1.60123e-05  2.82019e-04        00000 
 1.43584e-05  3.57204e-04        00000 
 8.58352e-06  4.15678e-04        00000 
-1.73511e-07  4.49953e-04        00000 
-1.00180e-05  4.55939e-04        00000 
-1.87821e-05  4.33957e-04        00000 
-2.46038e-05  3.88754e-04        00000 
-2.64149e-05  3.28515e-04        00000 
-2.41865e-05  2.63168e-04        00000 
-1.88741e-05  2.02482e-04        00000 
-1.20894e-05  1.54381e-04        00000 
-5.59799e-06  1.23605e-04        00000 
-1.17462e-07  1.09906e-04        00000 
 2.22448e-06  1.00798e-04        00000 
 3.69039e-05  4.35942e-05        00000 
-4.78037e-05  4.07400e-05        00000 
-8.05819e-06  1.02817e-04        00000 
-1.91526e-05  7.07827e-05        00000 
-3.30503e-05  3.13110e-05        00000 
 7.36862e-05 -6.45458e-05        00000 
 3.29651e-05 -3.24774e-05        00000 
-8.47570e-06 -5.70060e-05        00000 
-3.26422e-05 -9.70357e-05        00000 
-5.19954e-05 -1.49886e-04        00000 
-6.99517e-05 -2.21831e-04        00000 
-8.78468e-05 -3.18948e-04        00000 
-1.05072e-04 -4.44657e-04        00000 
-1.19642e-04 -5.98678e-04        00000 
-1.28723e-04 -7.75876e-04        00000 
-1.29315e-04 -9.65574e-04        00000 
-1.19076e-04 -1.15200e-03        00000 
-9.71356e-05 -1.31612e-03        00000 
-6.46351e-05 -1.43880e-03        00000 
-2.47813e-05 -1.50442e-03        00000 
 1.76679e-05 -1.50419e-03        00000 
 5.73708e-05 -1.43806e-03        00000 
 8.95401e-05 -1.31474e-03        00000 
 1.10903e-04 -1.14974e-03        00000 
 1.20199e-04 -9.62049e-04        00000 
 1.18088e-04 -7.70446e-04        00000 
 1.06533e-04 -5.90258e-04        00000 
 8.77324e-05 -4.31079e-04        00000 
 6.36474e-05 -2.95091e-04        00000 
 3.06691e-05 -1.76002e-04        00000 
 2.49820e-05 -8.96831e-05        00000 
 3.18058e-05 -5.17774e-05        00000 
 3.02518e-05 -5.42578e-05        00000 
 6.36585e-06 -5.62056e-05        00000 
 9.08466e-06 -4.06477e-05        00000 
-1.87311e-05  6.28304e-05        00000 
-5.75402e-06  6.22501e-05        00000 
 2.89611e-06  8.51080e-05        00000 
 9.22438e-06  1.24742e-04        00000 
 1.71844e-05  1.82671e-04        00000 
 2.68456e-05  2.63732e-04        00000 
 3.82715e-05  3.73633e-04        00000 
 5.09957e-05  5.16337e-04        00000 
 6.35790e-05  6.91956e-04        00000 
 7.36792e-05  8.95034e-04        00000 
 7.84985e-05  1.11354e-03        00000 
 7.55357e-05  1.32924e-03        00000 
 6.34438e-05  1.51981e-03        00000 
 4.26873e-05  1.66253e-03        00000 
 1.57128e-05  1.73874e-03        00000 
-1.34962e-05  1.73791e-03        00000 
-4.03739e-05  1.65996e-03        00000 
-6.09219e-05  1.51529e-03        00000 
-7.26599e-05  1.32237e-03        00000 
-7.50586e-05  1.10372e-03        00000 
-6.93414e-05  8.81316e-04        00000 
-5.77589e-05  6.72845e-04        00000 
-4.27397e-05  4.89268e-04        00000 
-2.60761e-05  3.34448e-04        00000 
-1.33533e-05  2.10426e-04        00000 
-1.12633e-05  1.23239e-04        00000 
-1.76065e-05  7.49747e-05        00000 
-1.58684e-05  5.61624e-05        00000 
-8.37668e-06  4.91130e-05        00000 
-7.15846e-06  4.12007e-05        00000 
 4.11455e-06 -5.89040e-05        00000 
-7.28228e-07 -6.85658e-05        00000 
-4.08749e-06 -9.08467e-05        00000 
-8.40881e-06 -1.29245e-04        00000 
-1.60156e-05 -1.88686e-04        00000 
-2.72546e-05 -2.75072e-04        00000 
-4.21140e-05 -3.95030e-04        00000 
-5.98703e-05 -5.53878e-04        00000 
-7.84838e-05 -7.52931e-04        00000 
-9.44965e-05 -9.86935e-04        00000 
-1.03593e-04 -1.24239e-03        00000 
-1.01735e-04 -1.49764e-03        00000 
-8.65544e-05 -1.72532e-03        00000 
-5.84577e-05 -1.89704e-03        00000 
-2.09724e-05 -1.98923e-03        00000 
 1.99279e-05 -1.98846e-03        00000 
 5.73409e-05 -1.89466e-03        00000 
 8.52821e-05 -1.72113e-03        00000 
 1.00199e-04 -1.49130e-03        00000 
 1.01632e-04 -1.23334e-03        00000 
 9.18571e-05 -9.74322e-04        00000 
 7.47674e-05 -7.35413e-04        00000 
 5.45718e-05 -5.29486e-04        00000 
 3.54206e-05 -3.61823e-04        00000 
 2.14697e-05 -2.33576e-04        00000 
 1.53111e-05 -1.44378e-04        00000 
 1.39933e-05 -9.02231e-05        00000 
 1.14361e-05 -6.22735e-05        00000 
 7.45989e-06 -4.90995e-05        00000 
 9.34166e-06 -4.07595e-05        00000 
 6.34900e-07  5.69859e-05        00000 
 2.60730e-06  6.95175e-05        00000 
 5.63103e-06  9.20360e-05        00000 
 1.10964e-05  1.30884e-04        00000 
 2.07888e-05  1.92984e-04        00000 
 3.58470e-05  2.86342e-04        00000 
 5.67348e-05  4.19932e-04        00000 
 8.26304e-05  6.01703e-04        00000 
 1.10646e-04  8.35213e-04        00000 
 1.35596e-04  1.11588e-03        00000 
 1.50762e-04  1.42818e-03        00000 
 1.49655e-04  1.74515e-03        00000 
 1.28266e-04  2.03136e-03        00000 
 8.69403e-05  2.24917e-03        00000 
 3.09998e-05  2.36684e-03        00000 
-3.02918e-05  2.36619e-03        00000 
-8.61727e-05  2.24716e-03        00000 
-1.27370e-04  2.02782e-03        00000 
-1.48539e-04  1.73978e-03        00000 
-1.49295e-04  1.42051e-03        00000 
-1.33584e-04  1.10519e-03        00000 
-1.07850e-04  8.20451e-04        00000 
-7.89516e-05  5.81647e-04        00000 
-5.26998e-05  3.93851e-04        00000 
-3.30137e-05  2.55283e-04        00000 
-2.09648e-05  1.60411e-04        00000 
-1.43637e-05  1.01208e-04        00000 
-9.75157e-06  6.80647e-05        00000 
-6.80993e-06  5.11445e-05        00000 
-1.06965e-05  4.14887e-05        00000 
-2.80648e-06 -5.60978e-05        00000 
-3.42614e-06 -6.94410e-05        00000 
-6.88620e-06 -9.23746e-05        00000 
-1.38579e-05 -1.32469e-04        00000 
-2.61879e-05 -1.98312e-04        00000 
-4.59113e-05 -3.00589e-04        00000 
-7.43304e-05 -4.51918e-04        00000 
-1.10847e-04 -6.64514e-04        00000 
-1.51697e-04 -9.45753e-04        00000 
-1.89424e-04 -1.29266e-03        00000 
-2.13868e-04 -1.68721e-03        00000 
-2.14835e-04 -2.09484e-03        00000 
-1.85703e-04 -2.46796e-03        00000 
-1.26511e-04 -2.75468e-03        00000 
-4.50853e-05 -2.91060e-03        00000 
 4.45252e-05 -2.91005e-03        00000 
 1.25900e-04 -2.75300e-03        00000 
 1.84983e-04 -2.46500e-03        00000 
 2.13929e-04 -2.09034e-03        00000 
 2.12672e-04 -1.68079e-03        00000 
 1.87807e-04 -1.28374e-03        00000 
 1.49553e-04 -9.33603e-04        00000 
 1.08254e-04 -6.48435e-04        00000 
 7.17843e-05 -4.31743e-04        00000 
 4.43399e-05 -2.77280e-04        00000 
 2.63998e-05 -1.74058e-04        00000 
 1.57072e-05 -1.09824e-04        00000 
 9.25143e-06 -7.30357e-05        00000 
 6.35373e-06 -5.37218e-05        00000 
 1.12125e-05 -4.29286e-05        00000 
 4.08395e-06  5.57050e-05        00000 
 3.89357e-06  6.93189e-05        00000 
 7.73022e-06  9.26201e-05        00000 
 1.59858e-05  1.34154e-04        00000 
 3.09512e-05  2.04230e-04        00000 
 5.58267e-05  3.16806e-04        00000 
 9.32474e-05  4.89551e-04        00000 
 1.43371e-04  7.41105e-04        00000 
 2.01697e-04  1.08511e-03        00000 
 2.57843e-04  1.52195e-03        00000 
 2.96698e-04  2.03103e-03        00000 
 3.02411e-04  2.56729e-03        00000 
 2.64134e-04  3.06542e-03        00000 
 1.81106e-04  3.45219e-03        00000 
 6.46465e-05  3.66388e-03        00000 
-6.41837e-05  3.66343e-03        00000 
-1.80600e-04  3.45078e-03        00000 