<?xml version="1.0" encoding="utf-8"?>
<VTKFile byte_order="LittleEndian" type="UnstructuredGrid" version="0.1">
   <UnstructuredGrid>
      <Piece NumberOfCells="3364" NumberOfPoints="1741">
         <Points>
            <DataArray Name="Points" NumberOfComponents="3" format="ascii" type="Float32">
0.0000 1.0000 0.0000
0.0000 1.0345 0.0000
0.0000 1.0690 0.0000
0.0000 1.1034 0.0000
0.0000 1.1379 0.0000
0.0000 1.1724 0.0000
0.0000 1.2069 0.0000
0.0000 1.2414 0.0000
0.0000 1.2759 0.0000
0.0000 1.3103 0.0000
0.0000 1.3448 0.0000
0.0000 1.3793 0.0000
0.0000 1.4138 0.0000
0.0000 1.4483 0.0000
0.0000 1.4828 0.0000
0.0000 1.5172 0.0000
0.0000 1.5517 0.0000
0.0000 1.5862 0.0000
0.0000 1.6207 0.0000
0.0000 1.6552 0.0000
0.0000 1.6897 0.0000
0.0000 1.7241 0.0000
0.0000 1.7586 0.0000
0.0000 1.7931 0.0000
0.0000 1.8276 0.0000
0.0000 1.8621 0.0000
0.0000 1.8966 0.0000
0.0000 1.9310 0.0000
0.0000 1.9655 0.0000
0.0000 2.0000 0.0000
0.0690 1.0000 0.0000
0.0690 1.0345 0.0000
0.0690 1.0690 0.0000
0.0690 1.1034 0.0000
0.0690 1.1379 0.0000
0.0690 1.1724 0.0000
0.0690 1.2069 0.0000
0.0690 1.2414 0.0000
0.0690 1.2759 0.0000
0.0690 1.3103 0.0000
0.0690 1.3448 0.0000
0.0690 1.3793 0.0000
0.0690 1.4138 0.0000
0.0690 1.4483 0.0000
0.0690 1.4828 0.0000
0.0690 1.5172 0.0000
0.0690 1.5517 0.0000
0.0690 1.5862 0.0000
0.0690 1.6207 0.0000
0.0690 1.6552 0.0000
0.0690 1.6897 0.0000
0.0690 1.7241 0.0000
0.0690 1.7586 0.0000
0.0690 1.7931 0.0000
0.0690 1.8276 0.0000
0.0690 1.8621 0.0000
0.0690 1.8966 0.0000
0.0690 1.9310 0.0000
0.0690 1.9655 0.0000
0.0690 2.0000 0.0000
0.1379 1.0000 0.0000
0.1379 1.0345 0.0000
0.1379 1.0690 0.0000
0.1379 1.1034 0.0000
0.1379 1.1379 0.0000
0.1379 1.1724 0.0000
0.1379 1.2069 0.0000
0.1379 1.2414 0.0000
0.1379 1.2759 0.0000
0.1379 1.3103 0.0000
0.1379 1.3448 0.0000
0.1379 1.3793 0.0000
0.1379 1.4138 0.0000
0.1379 1.4483 0.0000
0.1379 1.4828 0.0000
0.1379 1.5172 0.0000
0.1379 1.5517 0.0000
0.1379 1.5862 0.0000
0.1379 1.6207 0.0000
0.1379 1.6552 0.0000
0.1379 1.6897 0.0000
0.1379 1.7241 0.0000
0.1379 1.7586 0.0000
0.1379 1.7931 0.0000
0.1379 1.8276 0.0000
0.1379 1.8621 0.0000
0.1379 1.8966 0.0000
0.1379 1.9310 0.0000
0.1379 1.9655 0.0000
0.1379 2.0000 0.0000
0.2069 1.0000 0.0000
0.2069 1.0345 0.0000
0.2069 1.0690 0.0000
0.2069 1.1034 0.0000
0.2069 1.1379 0.0000
0.2069 1.1724 0.0000
0.2069 1.2069 0.0000
0.2069 1.2414 0.0000
0.2069 1.2759 0.0000
0.2069 1.3103 0.0000
0.2069 1.3448 0.0000
0.2069 1.3793 0.0000
0.2069 1.4138 0.0000
0.2069 1.4483 0.0000
0.2069 1.4828 0.0000
0.2069 1.5172 0.0000
0.2069 1.5517 0.0000
0.2069 1.5862 0.0000
0.2069 1.6207 0.0000
0.2069 1.6552 0.0000
0.2069 1.6897 0.0000
0.2069 1.7241 0.0000
0.2069 1.7586 0.0000
0.2069 1.7931 0.0000
0.2069 1.8276 0.0000
0.2069 1.8621 0.0000
0.2069 1.8966 0.0000
0.2069 1.9310 0.0000
0.2069 1.9655 0.0000
0.2069 2.0000 0.0000
0.2759 1.0000 0.0000
0.2759 1.0345 0.0000
0.2759 1.0690 0.0000
0.2759 1.1034 0.0000
0.2759 1.1379 0.0000
0.2759 1.1724 0.0000
0.2759 1.2069 0.0000
0.2759 1.2414 0.0000
0.2759 1.2759 0.0000
0.2759 1.3103 0.0000
0.2759 1.3448 0.0000
0.2759 1.3793 0.0000
0.2759 1.4138 0.0000
0.2759 1.4483 0.0000
0.2759 1.4828 0.0000
0.2759 1.5172 0.0000
0.2759 1.5517 0.0000
0.2759 1.5862 0.0000
0.2759 1.6207 0.0000
0.2759 1.6552 0.0000
0.2759 1.6897 0.0000
0.2759 1.7241 0.0000
0.2759 1.7586 0.0000
0.2759 1.7931 0.0000
0.2759 1.8276 0.0000
0.2759 1.8621 0.0000
0.2759 1.8966 0.0000
0.2759 1.9310 0.0000
0.2759 1.9655 0.0000
0.2759 2.0000 0.0000
0.3448 1.0000 0.0000
0.3448 1.0345 0.0000
0.3448 1.0690 0.0000
0.3448 1.1034 0.0000
0.3448 1.1379 0.0000
0.3448 1.1724 0.0000
0.3448 1.2069 0.0000
0.3448 1.2414 0.0000
0.3448 1.2759 0.0000
0.3448 1.3103 0.0000
0.3448 1.3448 0.0000
0.3448 1.3793 0.0000
0.3448 1.4138 0.0000
0.3448 1.4483 0.0000
0.3448 1.4828 0.0000
0.3448 1.5172 0.0000
0.3448 1.5517 0.0000
0.3448 1.5862 0.0000
0.3448 1.6207 0.0000
0.3448 1.6552 0.0000
0.3448 1.6897 0.0000
0.3448 1.7241 0.0000
0.3448 1.7586 0.0000
0.3448 1.7931 0.0000
0.3448 1.8276 0.0000
0.3448 1.8621 0.0000
0.3448 1.8966 0.0000
0.3448 1.9310 0.0000
0.3448 1.9655 0.0000
0.3448 2.0000 0.0000
0.4138 1.0000 0.0000
0.4138 1.0345 0.0000
0.4138 1.0690 0.0000
0.4138 1.1034 0.0000
0.4138 1.1379 0.0000
0.4138 1.1724 0.0000
0.4138 1.2069 0.0000
0.4138 1.2414 0.0000
0.4138 1.2759 0.0000
0.4138 1.3103 0.0000
0.4138 1.3448 0.0000
0.4138 1.3793 0.0000
0.4138 1.4138 0.0000
0.4138 1.4483 0.0000
0.4138 1.4828 0.0000
0.4138 1.5172 0.0000
0.4138 1.5517 0.0000
0.4138 1.5862 0.0000
0.4138 1.6207 0.0000
0.4138 1.6552 0.0000
0.4138 1.6897 0.0000
0.4138 1.7241 0.0000
0.4138 1.7586 0.0000
0.4138 1.7931 0.0000
0.4138 1.8276 0.0000
0.4138 1.8621 0.0000
0.4138 1.8966 0.0000
0.4138 1.9310 0.0000
0.4138 1.9655 0.0000
0.4138 2.0000 0.0000
0.4828 1.0000 0.0000
0.4828 1.0345 0.0000
0.4828 1.0690 0.0000
0.4828 1.1034 0.0000
0.4828 1.1379 0.0000
0.4828 1.1724 0.0000
0.4828 1.2069 0.0000
0.4828 1.2414 0.0000
0.4828 1.2759 0.0000
0.4828 1.3103 0.0000
0.4828 1.3448 0.0000
0.4828 1.3793 0.0000
0.4828 1.4138 0.0000
0.4828 1.4483 0.0000
0.4828 1.4828 0.0000
0.4828 1.5172 0.0000
0.4828 1.5517 0.0000
0.4828 1.5862 0.0000
0.4828 1.6207 0.0000
0.4828 1.6552 0.0000
0.4828 1.6897 0.0000
0.4828 1.7241 0.0000
0.4828 1.7586 0.0000
0.4828 1.7931 0.0000
0.4828 1.8276 0.0000
0.4828 1.8621 0.0000
0.4828 1.8966 0.0000
0.4828 1.9310 0.0000
0.4828 1.9655 0.0000
0.4828 2.0000 0.0000
0.5517 1.0000 0.0000
0.5517 1.0345 0.0000
0.5517 1.0690 0.0000
0.5517 1.1034 0.0000
0.5517 1.1379 0.0000
0.5517 1.1724 0.0000
0.5517 1.2069 0.0000
0.5517 1.2414 0.0000
0.5517 1.2759 0.0000
0.5517 1.3103 0.0000
0.5517 1.3448 0.0000
0.5517 1.3793 0.0000
0.5517 1.4138 0.0000
0.5517 1.4483 0.0000
0.5517 1.4828 0.0000
0.5517 1.5172 0.0000
0.5517 1.5517 0.0000
0.5517 1.5862 0.0000
0.5517 1.6207 0.0000
0.5517 1.6552 0.0000
0.5517 1.6897 0.0000
0.5517 1.7241 0.0000
0.5517 1.7586 0.0000
0.5517 1.7931 0.0000
0.5517 1.8276 0.0000
0.5517 1.8621 0.0000
0.5517 1.8966 0.0000
0.5517 1.9310 0.0000
0.5517 1.9655 0.0000
0.5517 2.0000 0.0000
0.6207 1.0000 0.0000
0.6207 1.0345 0.0000
0.6207 1.0690 0.0000
0.6207 1.1034 0.0000
0.6207 1.1379 0.0000
0.6207 1.1724 0.0000
0.6207 1.2069 0.0000
0.6207 1.2414 0.0000
0.6207 1.2759 0.0000
0.6207 1.3103 0.0000
0.6207 1.3448 0.0000
0.6207 1.3793 0.0000
0.6207 1.4138 0.0000
0.6207 1.4483 0.0000
0.6207 1.4828 0.0000
0.6207 1.5172 0.0000
0.6207 1.5517 0.0000
0.6207 1.5862 0.0000
0.6207 1.6207 0.0000
0.6207 1.6552 0.0000
0.6207 1.6897 0.0000
0.6207 1.7241 0.0000
0.6207 1.7586 0.0000
0.6207 1.7931 0.0000
0.6207 1.8276 0.0000
0.6207 1.8621 0.0000
0.6207 1.8966 0.0000
0.6207 1.9310 0.0000
0.6207 1.9655 0.0000
0.6207 2.0000 0.0000
0.6897 1.0000 0.0000
0.6897 1.0345 0.0000
0.6897 1.0690 0.0000
0.6897 1.1034 0.0000
0.6897 1.1379 0.0000
0.6897 1.1724 0.0000
0.6897 1.2069 0.0000
0.6897 1.2414 0.0000
0.6897 1.2759 0.0000
0.6897 1.3103 0.0000
0.6897 1.3448 0.0000
0.6897 1.3793 0.0000
0.6897 1.4138 0.0000
0.6897 1.4483 0.0000
0.6897 1.4828 0.0000
0.6897 1.5172 0.0000
0.6897 1.5517 0.0000
0.6897 1.5862 0.0000
0.6897 1.6207 0.0000
0.6897 1.6552 0.0000
0.6897 1.6897 0.0000
0.6897 1.7241 0.0000
0.6897 1.7586 0.0000
0.6897 1.7931 0.0000
0.6897 1.8276 0.0000
0.6897 1.8621 0.0000
0.6897 1.8966 0.0000
0.6897 1.9310 0.0000
0.6897 1.9655 0.0000
0.6897 2.0000 0.0000
0.7586 1.0000 0.0000
0.7586 1.0345 0.0000
0.7586 1.0690 0.0000
0.7586 1.1034 0.0000
0.7586 1.1379 0.0000
0.7586 1.1724 0.0000
0.7586 1.2069 0.0000
0.7586 1.2414 0.0000
0.7586 1.2759 0.0000
0.7586 1.3103 0.0000
0.7586 1.3448 0.0000
0.7586 1.3793 0.0000
0.7586 1.4138 0.0000
0.7586 1.4483 0.0000
0.7586 1.4828 0.0000
0.7586 1.5172 0.0000
0.7586 1.5517 0.0000
0.7586 1.5862 0.0000
0.7586 1.6207 0.0000
0.7586 1.6552 0.0000
0.7586 1.6897 0.0000
0.7586 1.7241 0.0000
0.7586 1.7586 0.0000
0.7586 1.7931 0.0000
0.7586 1.8276 0.0000
0.7586 1.8621 0.0000
0.7586 1.8966 0.0000
0.7586 1.9310 0.0000
0.7586 1.9655 0.0000
0.7586 2.0000 0.0000
0.8276 1.0000 0.0000
0.8276 1.0345 0.0000
0.8276 1.0690 0.0000
0.8276 1.1034 0.0000
0.8276 1.1379 0.0000
0.8276 1.1724 0.0000
0.8276 1.2069 0.0000
0.8276 1.2414 0.0000
0.8276 1.2759 0.0000
0.8276 1.3103 0.0000
0.8276 1.3448 0.0000
0.8276 1.3793 0.0000
0.8276 1.4138 0.0000
0.8276 1.4483 0.0000
0.8276 1.4828 0.0000
0.8276 1.5172 0.0000
0.8276 1.5517 0.0000
0.8276 1.5862 0.0000
0.8276 1.6207 0.0000
0.8276 1.6552 0.0000
0.8276 1.6897 0.0000
0.8276 1.7241 0.0000
0.8276 1.7586 0.0000
0.8276 1.7931 0.0000
0.8276 1.8276 0.0000
0.8276 1.8621 0.0000
0.8276 1.8966 0.0000
0.8276 1.9310 0.0000
0.8276 1.9655 0.0000
0.8276 2.0000 0.0000
0.8966 1.0000 0.0000
0.8966 1.0345 0.0000
0.8966 1.0690 0.0000
0.8966 1.1034 0.0000
0.8966 1.1379 0.0000
0.8966 1.1724 0.0000
0.8966 1.2069 0.0000
0.8966 1.2414 0.0000
0.8966 1.2759 0.0000
0.8966 1.3103 0.0000
0.8966 1.3448 0.0000
0.8966 1.3793 0.0000
0.8966 1.4138 0.0000
0.8966 1.4483 0.0000
0.8966 1.4828 0.0000
0.8966 1.5172 0.0000
0.8966 1.5517 0.0000
0.8966 1.5862 0.0000
0.8966 1.6207 0.0000
0.8966 1.6552 0.0000
0.8966 1.6897 0.0000
0.8966 1.7241 0.0000
0.8966 1.7586 0.0000
0.8966 1.7931 0.0000
0.8966 1.8276 0.0000
0.8966 1.8621 0.0000
0.8966 1.8966 0.0000
0.8966 1.9310 0.0000
0.8966 1.9655 0.0000
0.8966 2.0000 0.0000
0.9655 1.0000 0.0000
0.9655 1.0345 0.0000
0.9655 1.0690 0.0000
0.9655 1.1034 0.0000
0.9655 1.1379 0.0000
0.9655 1.1724 0.0000
0.9655 1.2069 0.0000
0.9655 1.2414 0.0000
0.9655 1.2759 0.0000
0.9655 1.3103 0.0000
0.9655 1.3448 0.0000
0.9655 1.3793 0.0000
0.9655 1.4138 0.0000
0.9655 1.4483 0.0000
0.9655 1.4828 0.0000
0.9655 1.5172 0.0000
0.9655 1.5517 0.0000
0.9655 1.5862 0.0000
0.9655 1.6207 0.0000
0.9655 1.6552 0.0000
0.9655 1.6897 0.0000
0.9655 1.7241 0.0000
0.9655 1.7586 0.0000
0.9655 1.7931 0.0000
0.9655 1.8276 0.0000
0.9655 1.8621 0.0000
0.9655 1.8966 0.0000
0.9655 1.9310 0.0000
0.9655 1.9655 0.0000
0.9655 2.0000 0.0000
1.0345 1.0000 0.0000
1.0345 1.0345 0.0000
1.0345 1.0690 0.0000
1.0345 1.1034 0.0000
1.0345 1.1379 0.0000
1.0345 1.1724 0.0000
1.0345 1.2069 0.0000
1.0345 1.2414 0.0000
1.0345 1.2759 0.0000
1.0345 1.3103 0.0000
1.0345 1.3448 0.0000
[...]
         <PointData>
            <DataArray Name="fValues" NumberOfComponents="3" format="ascii" type="Float64">
-1.02998e-21  4.56908e-21        00000 
 3.59338e-22 -3.23404e-21        00000 
-1.15486e-21  2.04321e-21        00000 
 6.13882e-23 -5.35751e-22        00000 
-8.88352e-23  3.55341e-22        00000 
 8.27428e-24  6.09520e-22        00000 
-4.44176e-22 -1.33253e-22        00000 
-1.06592e-21  6.69689e-23        00000 
-2.66506e-22        00000        00000 
-2.32088e-22 -7.49121e-23        00000 
-5.33011e-22 -1.11044e-22        00000 
 5.17614e-22  2.99965e-23        00000 
-1.22148e-22 -1.11044e-23        00000 
 2.54430e-22 -9.44148e-23        00000 
-1.44357e-22 -6.66264e-23        00000 
       00000  1.88350e-23        00000 
 2.22088e-23  1.38805e-23        00000 
-2.49240e-22 -2.28850e-23        00000 
-1.55462e-22  1.22148e-22        00000 
 4.46460e-23 -1.96721e-22        00000 
-7.10681e-22  3.77549e-22        00000 
-3.23927e-22 -3.70802e-22        00000 
 8.88352e-22  1.11044e-22        00000 
-1.02128e-21 -6.83641e-23        00000 
 6.21846e-22  8.88352e-23        00000 
-7.08559e-22  3.33692e-22        00000 
 1.15486e-21 -5.33011e-22        00000 
-1.42015e-21  3.24287e-22        00000 
-7.16777e-22  8.06374e-22        00000 
 1.79194e-22  2.68478e-22        00000 
 1.83929e-05  1.56649e-05        00000 
 1.34767e-05  1.18700e-05        00000 
 1.11949e-05  9.35527e-06        00000 
 9.70759e-06  7.57028e-06        00000 
 8.60036e-06  6.19220e-06        00000 
 7.69913e-06  5.04618e-06        00000 
 6.90866e-06  4.03664e-06        00000 
 6.16805e-06  3.11521e-06        00000 
 5.43576e-06  2.26352e-06        00000 
 4.68389e-06  1.48266e-06        00000 
 3.89554e-06  7.85785e-07        00000 
 3.06328e-06  1.92362e-07        00000 
 2.18777e-06 -2.76377e-07        00000 
 1.27630e-06 -6.01115e-07        00000 
 3.41154e-07 -7.67240e-07        00000 
-6.02302e-07 -7.66748e-07        00000 
-1.53760e-06 -5.99218e-07        00000 
-2.44924e-06 -2.71842e-07        00000 
-3.32471e-06  2.01495e-07        00000 
-4.15637e-06  8.02066e-07        00000 
-4.94316e-06  1.50905e-06        00000 
-5.69209e-06  2.30319e-06        00000 
-6.41971e-06  3.17133e-06        00000 
-7.15369e-06  4.11220e-06        00000 
-7.93560e-06  5.14388e-06        00000 
-8.82682e-06  6.31452e-06        00000 
-9.92398e-06  7.71985e-06        00000 
-1.14045e-05  9.53583e-06        00000 
-1.36917e-05  1.20888e-05        00000 
-1.86641e-05  1.59371e-05        00000 
 3.23268e-05  2.55718e-05        00000 
 2.75992e-05  2.26908e-05        00000 
 2.36792e-05  1.97996e-05        00000 
 2.07771e-05  1.72413e-05        00000 
 1.85347e-05  1.49842e-05        00000 
 1.66997e-05  1.29443e-05        00000 
 1.50914e-05  1.10564e-05        00000 
 1.35768e-05  9.28631e-06        00000 
 1.20586e-05  7.62888e-06        00000 
 1.04693e-05  6.10154e-06        00000 
 8.76866e-06  4.73691e-06        00000 
 6.93999e-06  3.57538e-06        00000 
 4.98781e-06  2.65844e-06        00000 
 2.93396e-06  2.02288e-06        00000 
 8.13318e-07  1.69616e-06        00000 
-1.33108e-06  1.69324e-06        00000 
-3.45334e-06  2.01493e-06        00000 
-5.51007e-06  2.64780e-06        00000 
-7.46575e-06  3.56580e-06        00000 
-9.29763e-06  4.73330e-06        00000 
-1.10001e-05  6.10970e-06        00000 
-1.25886e-05  7.65508e-06        00000 
-1.41025e-05  9.33698e-06        00000 
-1.56082e-05  1.11377e-05        00000 
-1.72027e-05  1.30619e-05        00000 
-1.90197e-05  1.51428e-05        00000 
-2.12416e-05  1.74449e-05        00000 
-2.41248e-05  2.00511e-05        00000 
-2.80350e-05  2.29904e-05        00000 
-3.27608e-05  2.59096e-05        00000 
 4.50432e-05  3.60816e-05        00000 
 3.98991e-05  3.33650e-05        00000 
 3.55480e-05  3.07336e-05        00000 
 3.19559e-05  2.81113e-05        00000 
 2.90286e-05  2.55173e-05        00000 
 2.65566e-05  2.29484e-05        00000 
 2.43272e-05  2.04041e-05        00000 
 2.21550e-05  1.79028e-05        00000 
 1.98931e-05  1.54846e-05        00000 
 1.74369e-05  1.32088e-05        00000 
 1.47251e-05  1.11473e-05        00000 
 1.17375e-05  9.37638e-06        00000 
 8.49149e-06  7.96932e-06        00000 
 5.03592e-06  6.98854e-06        00000 
 1.44359e-06  6.47977e-06        00000 
-2.19764e-06  6.46762e-06        00000 
-5.79458e-06  6.95329e-06        00000 
-9.25872e-06  7.91454e-06        00000 
-1.25161e-05  9.30783e-06        00000 
-1.55160e-05  1.10726e-05        00000 
-1.82392e-05  1.31370e-05        00000 
-2.07032e-05  1.54256e-05        00000 
-2.29671e-05  1.78669e-05        00000 
-2.51334e-05  2.04011e-05        00000 
-2.73475e-05  2.29869e-05        00000 
-2.97941e-05  2.56041e-05        00000 
-3.26863e-05  2.82506e-05        00000 
-3.62354e-05  3.09258e-05        00000 
-4.05363e-05  3.36055e-05        00000 
-4.56242e-05  3.63616e-05        00000 
 5.65479e-05  4.78234e-05        00000 
 5.08640e-05  4.54549e-05        00000 
 4.62570e-05  4.30650e-05        00000 
 4.25622e-05  4.05372e-05        00000 
 3.95466e-05  3.78070e-05        00000 
 3.69497e-05  3.48708e-05        00000 
 3.45011e-05  3.17651e-05        00000 
 3.19549e-05  2.85588e-05        00000 
 2.91119e-05  2.53489e-05        00000 
 2.58317e-05  2.22526e-05        00000 
 2.20374e-05  1.93983e-05        00000 
 1.77160e-05  1.69157e-05        00000 
 1.29133e-05  1.49248e-05        00000 
 7.72589e-06  1.35265e-05        00000 
 2.28916e-06  1.27935e-05        00000 
-3.23676e-06  1.27648e-05        00000 
-8.68304e-06  1.34421e-05        00000 
-1.38886e-05  1.47898e-05        00000 
-1.87162e-05  1.67379e-05        00000 
-2.30664e-05  1.91888e-05        00000 
-2.68899e-05  2.20243e-05        00000 
-3.01956e-05  2.51166e-05        00000 
-3.30560e-05  2.83376e-05        00000 
-3.56073e-05  3.15698e-05        00000 
-3.80448e-05  3.47147e-05        00000 
-4.06114e-05  3.77003e-05        00000 
-4.35759e-05  4.04864e-05        00000 
-4.71982e-05  4.30712e-05        00000 
-5.17123e-05  4.55140e-05        00000 
-5.72849e-05  4.79260e-05        00000 
 6.60619e-05  6.10712e-05        00000 
 6.00382e-05  5.92142e-05        00000 
 5.56103e-05  5.71899e-05        00000 
 5.23944e-05  5.48054e-05        00000 
 4.99658e-05  5.19681e-05        00000 
 4.78960e-05  4.86681e-05        00000 
 4.57853e-05  4.49660e-05        00000 
 4.32876e-05  4.09773e-05        00000 
 4.01299e-05  3.68586e-05        00000 
 3.61269e-05  3.27946e-05        00000 
 3.11874e-05  2.89847e-05        00000 
 2.53163e-05  2.56287e-05        00000 
 1.86085e-05  2.29112e-05        00000 
 1.12380e-05  2.09870e-05        00000 
 3.44005e-06  1.99684e-05        00000 
-4.51054e-06  1.99151e-05        00000 
-1.23253e-05  2.08292e-05        00000 
-1.97283e-05  2.26550e-05        00000 
-2.64816e-05  2.52847e-05        00000 
-3.24074e-05  2.85670e-05        00000 
-3.74056e-05  3.23209e-05        00000 
-4.14651e-05  3.63494e-05        00000 
-4.46696e-05  4.04547e-05        00000 
-4.71968e-05  4.44524e-05        00000 
-4.93123e-05  4.81841e-05        00000 
-5.13558e-05  5.15311e-05        00000 
-5.37221e-05  5.44272e-05        00000 
-5.68379e-05  5.68756e-05        00000 
-6.11280e-05  5.89616e-05        00000 
-6.69802e-05  6.08704e-05        00000 
 7.23688e-05  7.53417e-05        00000 
 6.65930e-05  7.42783e-05        00000 
 6.31352e-05  7.27922e-05        00000 
 6.12880e-05  7.06445e-05        00000 
 6.03445e-05  6.77306e-05        00000 
 5.96428e-05  6.40550e-05        00000 
 5.85955e-05  5.97084e-05        00000 
 5.67112e-05  5.48511e-05        00000 
 5.36112e-05  4.96976e-05        00000 
 4.90440e-05  4.45040e-05        00000 
 4.28953e-05  3.95520e-05        00000 
 3.51929e-05  3.51299e-05        00000 
 2.61034e-05  3.15099e-05        00000 
 1.59177e-05  2.89242e-05        00000 
 5.02589e-06  2.75431e-05        00000 
-6.11758e-06  2.74574e-05        00000 
-1.70357e-05  2.86694e-05        00000 
-2.72726e-05  3.10927e-05        00000 
-3.64356e-05  3.45618e-05        00000 
-4.42294e-05  3.88495e-05        00000 
-5.04809e-05  4.36887e-05        00000 
-5.51536e-05  4.87962e-05        00000 
-5.83509e-05  5.38943e-05        00000 
-6.03117e-05  5.87292e-05        00000 
-6.14015e-05  6.30858e-05        00000 
-6.20993e-05  6.68009e-05        00000 
-6.29827e-05  6.97766e-05        00000 
-6.47078e-05  7.19991e-05        00000 
-6.79811e-05  7.35618e-05        00000 
-7.35154e-05  7.46920e-05        00000 
 7.37247e-05  8.92146e-05        00000 
 6.93742e-05  8.93166e-05        00000 
 6.81759e-05  8.86192e-05        00000 
 6.89718e-05  8.68943e-05        00000 
 7.07046e-05  8.40712e-05        00000 
 7.24430e-05  8.01829e-05        00000 
 7.33851e-05  7.53418e-05        00000 
 7.28629e-05  6.97276e-05        00000 
 7.03515e-05  6.35878e-05        00000 
 6.54898e-05  5.72354e-05        00000 
 5.81049e-05  5.10386e-05        00000 
 4.82332e-05  4.53970e-05        00000 
 3.61287e-05  4.07063e-05        00000 
 2.22500e-05  3.73165e-05        00000 
 7.22483e-06  3.54896e-05        00000 
-8.20765e-06  3.53667e-05        00000 
-2.32691e-05  3.69495e-05        00000 
-3.72195e-05  4.01003e-05        00000 
-4.94295e-05  4.45610e-05        00000 
-5.94372e-05  4.99873e-05        00000 
-6.69828e-05  5.59903e-05        00000 
-7.20202e-05  6.21784e-05        00000 
-7.47081e-05  6.81925e-05        00000 
-7.53889e-05  7.37269e-05        00000 
-7.45645e-05  7.85387e-05        00000 
-7.28800e-05  8.24468e-05        00000 
-7.11161e-05  8.53322e-05        00000 
-7.01908e-05  8.71471e-05        00000 
-7.11569e-05  8.79457e-05        00000 
-7.51794e-05  8.79350e-05        00000 
 6.79592e-05  9.96797e-05        00000 
 6.70726e-05  1.01364e-04        00000 
 6.99709e-05  1.01780e-04        00000 
 7.49858e-05  1.00874e-04        00000 
 8.07559e-05  9.86771e-05        00000 
 8.61527e-05  9.52469e-05        00000 
 9.02078e-05  9.06426e-05        00000 
 9.20624e-05  8.49677e-05        00000 
 9.09758e-05  7.84102e-05        00000 
 8.63703e-05  7.12826e-05        00000 
 7.79083e-05  6.40269e-05        00000 
 6.55630e-05  5.71857e-05        00000 
 4.96652e-05  5.13417e-05        00000 
 3.09045e-05  4.70374e-05        00000 
 1.02784e-05  4.46923e-05        00000 
-1.10082e-05  4.45347e-05        00000 
-3.16775e-05  4.65643e-05        00000 
-5.05252e-05  5.05524e-05        00000 
-6.65546e-05  5.60807e-05        00000 
-7.90766e-05  6.26099e-05        00000 
-8.77595e-05  6.95635e-05        00000 
-9.26252e-05  7.64100e-05        00000 
-9.39990e-05  8.27234e-05        00000 
-9.24336e-05  8.82105e-05        00000 
-8.86352e-05  9.26992e-05        00000 
-8.34161e-05  9.60984e-05        00000 
-7.77025e-05  9.83413e-05        00000 
-7.25857e-05  9.93576e-05        00000 
-6.94121e-05  9.90784e-05        00000 
-6.98586e-05  9.75307e-05        00000 
 5.30777e-05  1.01198e-04        00000 
 5.87474e-05  1.04720e-04        00000 
 6.78414e-05  1.06638e-04        00000 
 7.84464e-05  1.07359e-04        00000 
 8.92898e-05  1.07142e-04        00000 
 9.94042e-05  1.05940e-04        00000 
 1.07830e-04  1.03560e-04        00000 
 1.13518e-04  9.97646e-05        00000 
 1.15328e-04  9.44757e-05        00000 
 1.12207e-04  8.78651e-05        00000 
 1.03375e-04  8.04033e-05        00000 
 8.85343e-05  7.28203e-05        00000 
 6.80136e-05  6.59938e-05        00000 
 4.28108e-05  6.07927e-05        00000 
 1.45171e-05  5.79117e-05        00000 
-1.48690e-05  5.77350e-05        00000 
-4.32046e-05  6.02588e-05        00000 
-6.84933e-05  6.50920e-05        00000 
-8.91482e-05  7.15338e-05        00000 
-1.04178e-04  7.87115e-05        00000 
-1.13262e-04  8.57474e-05        00000 
-1.16708e-04  9.19180e-05        00000 
-1.15300e-04  9.67707e-05        00000 
-1.10085e-04  1.00168e-04        00000 
-1.02147e-04  1.02243e-04        00000 
-9.24693e-05  1.03263e-04        00000 
-8.18958e-05  1.03464e-04        00000 
-7.13129e-05  1.02847e-04        00000 
-6.19288e-05  1.01138e-04        00000 
-5.56537e-05  9.78145e-05        00000 
 2.90890e-05  8.46867e-05        00000 
 4.51113e-05  8.97184e-05        00000 
 6.15378e-05  9.34369e-05        00000 
 7.74673e-05  9.74138e-05        00000 
 9.29800e-05  1.01975e-04        00000 
 1.08072e-04  1.06754e-04        00000 
 1.22180e-04  1.10749e-04        00000 
 1.33910e-04  1.12987e-04        00000 
 1.41351e-04  1.12715e-04        00000 
 1.42365e-04  1.09700e-04        00000 
 1.35115e-04  1.04329e-04        00000 
 1.18555e-04  9.75461e-05        00000 
 9.27888e-05  9.06525e-05        00000 
 5.92076e-05  8.50263e-05        00000 
 2.03798e-05  8.18107e-05        00000 
-2.03043e-05  8.16495e-05        00000 
-5.91595e-05  8.45350e-05        00000 
-9.27985e-05  8.98076e-05        00000 
-1.18660e-04  9.63083e-05        00000 
-1.35361e-04  1.02643e-04        00000 
-1.42817e-04  1.07496e-04        00000 
-1.42098e-04  1.09910e-04        00000 
-1.35080e-04  1.09493e-04        00000 
-1.23956e-04  1.06497e-04        00000 
-1.10677e-04  1.01749e-04        00000 
-9.64898e-05  9.64082e-05        00000 
-8.18034e-05  9.15181e-05        00000 
-6.62799e-05  8.76267e-05        00000 
-4.96753e-05  8.41470e-05        00000 
-3.28358e-05  7.95322e-05        00000 
 2.67324e-06  3.82350e-05        00000 
 3.10347e-05  4.24766e-05        00000 
 5.16044e-05  4.82861e-05        00000 
 6.82155e-05  5.79242e-05        00000 
 8.46913e-05  7.20219e-05        00000 
 1.03398e-04  8.87107e-05        00000 
 1.24182e-04  1.06091e-04        00000 
 1.45301e-04  1.21675e-04        00000 
 1.63124e-04  1.33550e-04        00000 
 1.73303e-04  1.40695e-04        00000 
 1.71833e-04  1.43088e-04        00000 
 1.56018e-04  1.41658e-04        00000 
 1.25225e-04  1.38037e-04        00000 
 8.12692e-05  1.34145e-04        00000 
 2.82947e-05  1.31664e-04        00000 
-2.78880e-05  1.31573e-04        00000 
-8.08626e-05  1.33862e-04        00000 
-1.24820e-04  1.37530e-04        00000 
-1.55623e-04  1.40871e-04        00000 
-1.71461e-04  1.41939e-04        00000 
-1.72981e-04  1.39067e-04        00000 
-1.62903e-04  1.31285e-04        00000 
-1.45274e-04  1.18559e-04        00000 
-1.24541e-04  1.01839e-04        00000 
-1.04566e-04  8.29771e-05        00000 
-8.75573e-05  6.45395e-05        00000 
-7.30480e-05  4.93016e-05        00000 
-5.82556e-05  3.89413e-05        00000 
-3.81570e-05  3.37200e-05        00000 
-8.50922e-06  2.98951e-05        00000 
-4.42267e-06 -4.74696e-05        00000 
 2.84656e-05 -4.79345e-05        00000 
 4.00346e-05 -4.20968e-05        00000 
 4.52332e-05 -2.46816e-05        00000 
 5.41964e-05  1.47235e-06        00000 
 7.11456e-05  3.63523e-05        00000 
 9.88053e-05  7.50138e-05        00000 
 1.33039e-04  1.13898e-04        00000 
 1.67277e-04  1.50106e-04        00000 
 1.93813e-04  1.81291e-04        00000 
 2.05110e-04  2.05911e-04        00000 
 1.95390e-04  2.23510e-04        00000 
 1.62224e-04  2.34721e-04        00000 
 1.07570e-04  2.40912e-04        00000 
 3.78127e-05  2.43559e-04        00000 
-3.73735e-05  2.43603e-04        00000 
-1.07100e-04  2.41036e-04        00000 
-1.61693e-04  2.34899e-04        00000 
-1.94766e-04  2.23693e-04        00000 
-2.04358e-04  2.06026e-04        00000 
-1.92896e-04  1.81225e-04        00000 
-1.66148e-04  1.49692e-04        00000 
-1.31638e-04  1.12884e-04        00000 
-9.70575e-05  7.30034e-05        00000 
-6.90574e-05  3.26487e-05        00000 
-5.23078e-05 -5.20993e-06        00000 
-4.77311e-05 -3.66080e-05        00000 
-4.80597e-05 -5.63676e-05        00000 
-4.11775e-05 -6.39569e-05        00000 
-7.59630e-06 -6.02838e-05        00000 
 5.59500e-05 -1.39873e-04        00000 
 6.07877e-05 -1.64315e-04        00000 
 3.92665e-05 -1.69051e-04        00000 
 1.22811e-05 -1.62324e-04        00000 
-7.67364e-06 -1.28660e-04        00000 
 1.56991e-06 -8.30160e-05        00000 
 3.16490e-05 -2.54526e-05        00000 
 7.57996e-05  4.41020e-05        00000 
 1.25878e-04  1.23643e-04        00000 
 1.71678e-04  2.08906e-04        00000 
 2.01868e-04  2.94002e-04        00000 
 2.06429e-04  3.72323e-04        00000 
 1.79673e-04  4.37500e-04        00000 
 1.22605e-04  4.84195e-04        00000 
 4.35377e-05  5.08626e-04        00000 
-4.35578e-05  5.08852e-04        00000 
-1.22581e-04  4.84874e-04        00000 
-1.79558e-04  4.38634e-04        00000 
-2.06169e-04  3.73910e-04        00000 
-2.01397e-04  2.96036e-04        00000 
-1.70908e-04  2.11368e-04        00000 
-1.24685e-04  1.26486e-04        00000 
-7.39924e-05  4.72431e-05        00000 
-2.88833e-05 -2.21549e-05        00000 
 2.92776e-06 -7.97961e-05        00000 
 1.55161e-05 -1.26235e-04        00000 
 2.94835e-06 -1.63468e-04        00000 
-3.88349e-05 -1.89833e-04        00000 
-8.14546e-05 -1.89317e-04        00000 
-8.79934e-05 -1.70057e-04        00000 
 1.57119e-04 -1.78959e-04        00000 
 1.89495e-04 -2.00418e-04        00000 
 1.20596e-04 -2.97128e-04        00000 
-1.97047e-05 -3.27277e-04        00000 
-6.12571e-05 -3.56467e-04        00000 
-7.36198e-05 -3.58530e-04        00000 
-6.60755e-05 -3.20653e-04        00000 
-4.42369e-05 -2.32816e-04        00000 
-1.29056e-05 -8.82811e-05        00000 
 2.15595e-05  1.12435e-04        00000 
 5.13747e-05  3.57487e-04        00000 
 6.88668e-05  6.22179e-04        00000 
 6.87930e-05  8.71460e-04        00000 
 5.03955e-05  1.06654e-03        00000 
 1.81655e-05  1.17396e-03        00000 
-1.92034e-05  1.17436e-03        00000 
-5.14131e-05  1.06775e-03        00000 
-6.97676e-05  8.73528e-04        00000 
-6.97702e-05  6.25186e-04        00000 
-5.21681e-05  3.61549e-04        00000 
-2.21838e-05  1.17710e-04        00000 
 1.25478e-05 -8.15926e-05        00000 
 4.43159e-05 -2.24485e-04        00000 
 6.69141e-05 -3.10458e-04        00000 
 7.58522e-05 -3.46290e-04        00000 
 6.70280e-05 -3.41492e-04        00000 
 3.32406e-05 -3.06189e-04        00000 
-4.48551e-05 -2.56237e-04        00000 
-2.12832e-04 -2.16672e-04        00000 
-3.20455e-04 -1.31524e-04        00000 
 1.60472e-04 -6.34949e-05        00000 
 1.52823e-04 -4.86006e-05        00000 
 5.80656e-05 -2.92302e-05        00000 
-5.36578e-05 -1.24886e-04        00000 
-1.08760e-04 -2.37214e-04        00000 
-1.63672e-04 -3.91056e-04        00000 
-2.20735e-04 -6.13933e-04        00000 
-2.81246e-04 -9.28215e-04        00000 
-3.39710e-04 -1.34628e-03        00000 
-3.85574e-04 -1.86379e-03        00000 
-4.05421e-04 -2.45342e-03        00000 
-3.86774e-04 -3.06304e-03        00000 
-3.22594e-04 -3.62118e-03        00000 
-2.14864e-04 -4.05020e-03        00000 
-7.56666e-05 -4.28382e-03        00000 
 7.50155e-05 -4.28381e-03        00000 
 2.14213e-04 -4.05019e-03        00000 
 3.21942e-04 -3.62115e-03        00000 
 3.86122e-04 -3.06300e-03        00000 
 4.04770e-04 -2.45336e-03        00000 
 3.84930e-04 -1.86370e-03        00000 
 3.39087e-04 -1.34615e-03        00000 
 2.80685e-04 -9.28046e-04        00000 
 2.20380e-04 -6.13745e-04        00000 
 1.63901e-04 -3.91174e-04        00000 
 1.11308e-04 -2.39059e-04        00000 
 5.69533e-05 -1.32424e-04        00000 
-9.29433e-06 -5.26183e-05        00000 
-1.03701e-04 -2.08338e-05        00000 
-2.21654e-04 -1.32837e-04        00000 
-6.18122e-06  9.27491e-05        00000 
 1.71537e-06  1.25546e-04        00000 
 1.73521e-05  1.46850e-04        00000 
 4.93793e-06  1.97123e-04        00000 
 2.48535e-05  3.11643e-04        00000 
 4.86951e-05  4.82704e-04        00000 
 8.14066e-05  7.32797e-04        00000 
 1.23674e-04  1.08657e-03        00000 
 1.72736e-04  1.56034e-03        00000 
 2.20290e-04  2.15196e-03        00000 
 2.53549e-04  2.83210e-03        00000 
 2.58762e-04  3.54098e-03        00000 
 2.26319e-04  4.19429e-03        00000 
 1.55319e-04  4.69887e-03        00000 
 5.54072e-05  4.97441e-03        00000 
-5.52320e-05  4.97436e-03        00000 
-1.55142e-04  4.69873e-03        00000 