<?xml version="1.0" encoding="utf-8"?>
<VTKFile byte_order="LittleEndian" type="UnstructuredGrid" version="0.1">
   <UnstructuredGrid>
      <Piece NumberOfCells="3364" NumberOfPoints="1741">
         <Points>
            <DataArray Name="Points" NumberOfComponents="3" format="ascii" type="Float32">
0.0000 1.0000 0.0000
0.0000 1.0345 0.0000
0.0000 1.0690 0.0000
0.0000 1.1034 0.0000
0.0000 1.1379 0.0000
0.0000 1.1724 0.0000
0.0000 1.2069 0.0000
0.0000 1.2414 0.0000
0.0000 1.2759 0.0000
0.0000 1.3103 0.0000
0.0000 1.3448 0.0000
0.0000 1.3793 0.0000
0.0000 1.4138 0.0000
0.0000 1.4483 0.0000
0.0000 1.4828 0.0000
0.0000 1.5172 0.0000
0.0000 1.5517 0.0000
0.0000 1.5862 0.0000
0.0000 1.6207 0.0000
0.0000 1.6552 0.0000
0.0000 1.6897 0.0000
0.0000 1.7241 0.0000
0.0000 1.7586 0.0000
0.0000 1.7931 0.0000
0.0000 1.8276 0.0000
0.0000 1.8621 0.0000
0.0000 1.8966 0.0000
0.0000 1.9310 0.0000
0.0000 1.9655 0.0000
0.0000 2.0000 0.0000
0.0690 1.0000 0.0000
0.0690 1.0345 0.0000
0.0690 1.0690 0.0000
0.0690 1.1034 0.0000
0.0690 1.1379 0.0000
0.0690 1.1724 0.0000
0.0690 1.2069 0.0000
0.0690 1.2414 0.0000
0.0690 1.2759 0.0000
0.0690 1.3103 0.0000
0.0690 1.3448 0.0000
0.0690 1.3793 0.0000
0.0690 1.4138 0.0000
0.0690 1.4483 0.0000
0.0690 1.4828 0.0000
0.0690 1.5172 0.0000
0.0690 1.5517 0.0000
0.0690 1.5862 0.0000
0.0690 1.6207 0.0000
0.0690 1.6552 0.0000
0.0690 1.6897 0.0000
0.0690 1.7241 0.0000
0.0690 1.7586 0.0000
0.0690 1.7931 0.0000
0.0690 1.8276 0.0000
0.0690 1.8621 0.0000
0.0690 1.8966 0.0000
0.0690 1.9310 0.0000
0.0690 1.9655 0.0000
0.0690 2.0000 0.0000
0.1379 1.0000 0.0000
0.1379 1.0345 0.0000
0.1379 1.0690 0.0000
0.1379 1.1034 0.0000
0.1379 1.1379 0.0000
0.1379 1.1724 0.0000
0.1379 1.2069 0.0000
0.1379 1.2414 0.0000
0.1379 1.2759 0.0000
0.1379 1.3103 0.0000
0.1379 1.3448 0.0000
0.1379 1.3793 0.0000
0.1379 1.4138 0.0000
0.1379 1.4483 0.0000
0.1379 1.4828 0.0000
0.1379 1.5172 0.0000
0.1379 1.5517 0.0000
0.1379 1.5862 0.0000
0.1379 1.6207 0.0000
0.1379 1.6552 0.0000
0.1379 1.6897 0.0000
0.1379 1.7241 0.0000
0.1379 1.7586 0.0000
0.1379 1.7931 0.0000
0.1379 1.8276 0.0000
0.1379 1.8621 0.0000
0.1379 1.8966 0.0000
0.1379 1.9310 0.0000
0.1379 1.9655 0.0000
0.1379 2.0000 0.0000
0.2069 1.0000 0.0000
0.2069 1.0345 0.0000
0.2069 1.0690 0.0000
0.2069 1.1034 0.0000
0.2069 1.1379 0.0000
0.2069 1.1724 0.0000
0.2069 1.2069 0.0000
0.2069 1.2414 0.0000
0.2069 1.2759 0.0000
0.2069 1.3103 0.0000
0.2069 1.3448 0.0000
0.2069 1.3793 0.0000
0.2069 1.4138 0.0000
0.2069 1.4483 0.0000
0.2069 1.4828 0.0000
0.2069 1.5172 0.0000
0.2069 1.5517 0.0000
0.2069 1.5862 0.0000
0.2069 1.6207 0.0000
0.2069 1.6552 0.0000
0.2069 1.6897 0.0000
0.2069 1.7241 0.0000
0.2069 1.7586 0.0000
0.2069 1.7931 0.0000
0.2069 1.8276 0.0000
0.2069 1.8621 0.0000
0.2069 1.8966 0.0000
0.2069 1.9310 0.0000
0.2069 1.9655 0.0000
0.2069 2.0000 0.0000
0.2759 1.0000 0.0000
0.2759 1.0345 0.0000
0.2759 1.0690 0.0000
0.2759 1.1034 0.0000
0.2759 1.1379 0.0000
0.2759 1.1724 0.0000
0.2759 1.2069 0.0000
0.2759 1.2414 0.0000
0.2759 1.2759 0.0000
0.2759 1.3103 0.0000
0.2759 1.3448 0.0000
0.2759 1.3793 0.0000
0.2759 1.4138 0.0000
0.2759 1.4483 0.0000
0.2759 1.4828 0.0000
0.2759 1.5172 0.0000
0.2759 1.5517 0.0000
0.2759 1.5862 0.0000
0.2759 1.6207 0.0000
0.2759 1.6552 0.0000
0.2759 1.6897 0.0000
0.2759 1.7241 0.0000
0.2759 1.7586 0.0000
0.2759 1.7931 0.0000
0.2759 1.8276 0.0000
0.2759 1.8621 0.0000
0.2759 1.8966 0.0000
0.2759 1.9310 0.0000
0.2759 1.9655 0.0000
0.2759 2.0000 0.0000
0.3448 1.0000 0.0000
0.3448 1.0345 0.0000
0.3448 1.0690 0.0000
0.3448 1.1034 0.0000
0.3448 1.1379 0.0000
0.3448 1.1724 0.0000
0.3448 1.2069 0.0000
0.3448 1.2414 0.0000
0.3448 1.2759 0.0000
0.3448 1.3103 0.0000
0.3448 1.3448 0.0000
0.3448 1.3793 0.0000
0.3448 1.4138 0.0000
0.3448 1.4483 0.0000
0.3448 1.4828 0.0000
0.3448 1.5172 0.0000
0.3448 1.5517 0.0000
0.3448 1.5862 0.0000
0.3448 1.6207 0.0000
0.3448 1.6552 0.0000
0.3448 1.6897 0.0000
0.3448 1.7241 0.0000
0.3448 1.7586 0.0000
0.3448 1.7931 0.0000
0.3448 1.8276 0.0000
0.3448 1.8621 0.0000
0.3448 1.8966 0.0000
0.3448 1.9310 0.0000
0.3448 1.9655 0.0000
0.3448 2.0000 0.0000
0.4138 1.0000 0.0000
0.4138 1.0345 0.0000
0.4138 1.0690 0.0000
0.4138 1.1034 0.0000
0.4138 1.1379 0.0000
0.4138 1.1724 0.0000
0.4138 1.2069 0.0000
0.4138 1.2414 0.0000
0.4138 1.2759 0.0000
0.4138 1.3103 0.0000
0.4138 1.3448 0.0000
0.4138 1.3793 0.0000
0.4138 1.4138 0.0000
0.4138 1.4483 0.0000
0.4138 1.4828 0.0000
0.4138 1.5172 0.0000
0.4138 1.5517 0.0000
0.4138 1.5862 0.0000
0.4138 1.6207 0.0000
0.4138 1.6552 0.0000
0.4138 1.6897 0.0000
0.4138 1.7241 0.0000
0.4138 1.7586 0.0000
0.4138 1.7931 0.0000
0.4138 1.8276 0.0000
0.4138 1.8621 0.0000
0.4138 1.8966 0.0000
0.4138 1.9310 0.0000
0.4138 1.9655 0.0000
0.4138 2.0000 0.0000
0.4828 1.0000 0.0000
0.4828 1.0345 0.0000
0.4828 1.0690 0.0000
0.4828 1.1034 0.0000
0.4828 1.1379 0.0000
0.4828 1.1724 0.0000
0.4828 1.2069 0.0000
0.4828 1.2414 0.0000
0.4828 1.2759 0.0000
0.4828 1.3103 0.0000
0.4828 1.3448 0.0000
0.4828 1.3793 0.0000
0.4828 1.4138 0.0000
0.4828 1.4483 0.0000
0.4828 1.4828 0.0000
0.4828 1.5172 0.0000
0.4828 1.5517 0.0000
0.4828 1.5862 0.0000
0.4828 1.6207 0.0000
0.4828 1.6552 0.0000
0.4828 1.6897 0.0000
0.4828 1.7241 0.0000
0.4828 1.7586 0.0000
0.4828 1.7931 0.0000
0.4828 1.8276 0.0000
0.4828 1.8621 0.0000
0.4828 1.8966 0.0000
0.4828 1.9310 0.0000
0.4828 1.9655 0.0000
0.4828 2.0000 0.0000
0.5517 1.0000 0.0000
0.5517 1.0345 0.0000
0.5517 1.0690 0.0000
0.5517 1.1034 0.0000
0.5517 1.1379 0.0000
0.5517 1.1724 0.0000
0.5517 1.2069 0.0000
0.5517 1.2414 0.0000
0.5517 1.2759 0.0000
0.5517 1.3103 0.0000
0.5517 1.3448 0.0000
0.5517 1.3793 0.0000
0.5517 1.4138 0.0000
0.5517 1.4483 0.0000
0.5517 1.4828 0.0000
0.5517 1.5172 0.0000
0.5517 1.5517 0.0000
0.5517 1.5862 0.0000
0.5517 1.6207 0.0000
0.5517 1.6552 0.0000
0.5517 1.6897 0.0000
0.5517 1.7241 0.0000
0.5517 1.7586 0.0000
0.5517 1.7931 0.0000
0.5517 1.8276 0.0000
0.5517 1.8621 0.0000
0.5517 1.8966 0.0000
0.5517 1.9310 0.0000
0.5517 1.9655 0.0000
0.5517 2.0000 0.0000
0.6207 1.0000 0.0000
0.6207 1.0345 0.0000
0.6207 1.0690 0.0000
0.6207 1.1034 0.0000
0.6207 1.1379 0.0000
0.6207 1.1724 0.0000
0.6207 1.2069 0.0000
0.6207 1.2414 0.0000
0.6207 1.2759 0.0000
0.6207 1.3103 0.0000
0.6207 1.3448 0.0000
0.6207 1.3793 0.0000
0.6207 1.4138 0.0000
0.6207 1.4483 0.0000
0.6207 1.4828 0.0000
0.6207 1.5172 0.0000
0.6207 1.5517 0.0000
0.6207 1.5862 0.0000
0.6207 1.6207 0.0000
0.6207 1.6552 0.0000
0.6207 1.6897 0.0000
0.6207 1.7241 0.0000
0.6207 1.7586 0.0000
0.6207 1.7931 0.0000
0.6207 1.8276 0.0000
0.6207 1.8621 0.0000
0.6207 1.8966 0.0000
0.6207 1.9310 0.0000
0.6207 1.9655 0.0000
0.6207 2.0000 0.0000
0.6897 1.0000 0.0000
0.6897 1.0345 0.0000
0.6897 1.0690 0.0000
0.6897 1.1034 0.0000
0.6897 1.1379 0.0000
0.6897 1.1724 0.0000
0.6897 1.2069 0.0000
0.6897 1.2414 0.0000
0.6897 1.2759 0.0000
0.6897 1.3103 0.0000
0.6897 1.3448 0.0000
0.6897 1.3793 0.0000
0.6897 1.4138 0.0000
0.6897 1.4483 0.0000
0.6897 1.4828 0.0000
0.6897 1.5172 0.0000
0.6897 1.5517 0.0000
0.6897 1.5862 0.0000
0.6897 1.6207 0.0000
0.6897 1.6552 0.0000
0.6897 1.6897 0.0000
0.6897 1.7241 0.0000
0.6897 1.7586 0.0000
0.6897 1.7931 0.0000
0.6897 1.8276 0.0000
0.6897 1.8621 0.0000
0.6897 1.8966 0.0000
0.6897 1.9310 0.0000
0.6897 1.9655 0.0000
0.6897 2.0000 0.0000
0.7586 1.0000 0.0000
0.7586 1.0345 0.0000
0.7586 1.0690 0.0000
0.7586 1.1034 0.0000
0.7586 1.1379 0.0000
0.7586 1.1724 0.0000
0.7586 1.2069 0.0000
0.7586 1.2414 0.0000
0.7586 1.2759 0.0000
0.7586 1.3103 0.0000
0.7586 1.3448 0.0000
0.7586 1.3793 0.0000
0.7586 1.4138 0.0000
0.7586 1.4483 0.0000
0.7586 1.4828 0.0000
0.7586 1.5172 0.0000
0.7586 1.5517 0.0000
0.7586 1.5862 0.0000
0.7586 1.6207 0.0000
0.7586 1.6552 0.0000
0.7586 1.6897 0.0000
0.7586 1.7241 0.0000
0.7586 1.7586 0.0000
0.7586 1.7931 0.0000
0.7586 1.8276 0.0000
0.7586 1.8621 0.0000
0.7586 1.8966 0.0000
0.7586 1.9310 0.0000
0.7586 1.9655 0.0000
0.7586 2.0000 0.0000
0.8276 1.0000 0.0000
0.8276 1.0345 0.0000
0.8276 1.0690 0.0000
0.8276 1.1034 0.0000
0.8276 1.1379 0.0000
0.8276 1.1724 0.0000
0.8276 1.2069 0.0000
0.8276 1.2414 0.0000
0.8276 1.2759 0.0000
0.8276 1.3103 0.0000
0.8276 1.3448 0.0000
0.8276 1.3793 0.0000
0.8276 1.4138 0.0000
0.8276 1.4483 0.0000
0.8276 1.4828 0.0000
0.8276 1.5172 0.0000
0.8276 1.5517 0.0000
0.8276 1.5862 0.0000
0.8276 1.6207 0.0000
0.8276 1.6552 0.0000
0.8276 1.6897 0.0000
0.8276 1.7241 0.0000
0.8276 1.7586 0.0000
0.8276 1.7931 0.0000
0.8276 1.8276 0.0000
0.8276 1.8621 0.0000
0.8276 1.8966 0.0000
0.8276 1.9310 0.0000
0.8276 1.9655 0.0000
0.8276 2.0000 0.0000
0.8966 1.0000 0.0000
0.8966 1.0345 0.0000
0.8966 1.0690 0.0000
0.8966 1.1034 0.0000
0.8966 1.1379 0.0000
0.8966 1.1724 0.0000
0.8966 1.2069 0.0000
0.8966 1.2414 0.0000
0.8966 1.2759 0.0000
0.8966 1.3103 0.0000
0.8966 1.3448 0.0000
0.8966 1.3793 0.0000
0.8966 1.4138 0.0000
0.8966 1.4483 0.0000
0.8966 1.4828 0.0000
0.8966 1.5172 0.0000
0.8966 1.5517 0.0000
0.8966 1.5862 0.0000
0.8966 1.6207 0.0000
0.8966 1.6552 0.0000
0.8966 1.6897 0.0000
0.8966 1.7241 0.0000
0.8966 1.7586 0.0000
0.8966 1.7931 0.0000
0.8966 1.8276 0.0000
0.8966 1.8621 0.0000
0.8966 1.8966 0.0000
0.8966 1.9310 0.0000
0.8966 1.9655 0.0000
0.8966 2.0000 0.0000
0.9655 1.0000 0.0000
0.9655 1.0345 0.0000
0.9655 1.0690 0.0000
0.9655 1.1034 0.0000
0.9655 1.1379 0.0000
0.9655 1.1724 0.0000
0.9655 1.2069 0.0000
0.9655 1.2414 0.0000
0.9655 1.2759 0.0000
0.9655 1.3103 0.0000
0.9655 1.3448 0.0000
0.9655 1.3793 0.0000
0.9655 1.4138 0.0000
0.9655 1.4483 0.0000
0.9655 1.4828 0.0000
0.9655 1.5172 0.0000
0.9655 1.5517 0.0000
0.9655 1.5862 0.0000
0.9655 1.6207 0.0000
0.9655 1.6552 0.0000
0.9655 1.6897 0.0000
0.9655 1.7241 0.0000
0.9655 1.7586 0.0000
0.9655 1.7931 0.0000
0.9655 1.8276 0.0000
0.9655 1.8621 0.0000
0.9655 1.8966 0.0000
0.9655 1.9310 0.0000
0.9655 1.9655 0.0000
0.9655 2.0000 0.0000
1.0345 1.0000 0.0000
1.0345 1.0345 0.0000
1.0345 1.0690 0.0000
1.0345 1.1034 0.0000
1.0345 1.1379 0.0000
1.0345 1.1724 0.0000
1.0345 1.2069 0.0000
1.0345 1.2414 0.0000
1.0345 1.2759 0.0000
1.0345 1.3103 0.0000
1.0345 1.3448 0.0000
[...]
         <PointData>
            <DataArray Name="fValues" NumberOfComponents="3" format="ascii" type="Float64">
-1.20965e-21 -1.20965e-21        00000 
 1.07801e-21  1.07801e-21        00000 
-2.22088e-22 -3.55341e-22        00000 
-4.40879e-22  8.03627e-22        00000 
 5.33011e-22 -8.88352e-22        00000 
-2.18564e-22  2.11604e-21        00000 
 6.21846e-22 -3.55341e-22        00000 
-9.12452e-22 -3.34845e-22        00000 
 9.32769e-22  8.88352e-23        00000 
-3.71410e-22  4.78178e-22        00000 
 3.99758e-22 -1.55462e-22        00000 
-2.37661e-22  1.84165e-22        00000 
 3.29662e-22 -1.33253e-22        00000 
-1.10628e-22  3.57291e-22        00000 
-2.97737e-22 -1.33253e-22        00000 
 7.25802e-22  5.09243e-22        00000 
 4.44176e-22 -3.55341e-22        00000 
-5.95272e-22 -1.93778e-22        00000 
 1.77670e-22 -4.44176e-23        00000 
-5.41332e-22  5.85978e-23        00000 
 5.33011e-22 -2.22088e-22        00000 
 8.62720e-22  9.94247e-22        00000 
-8.88352e-22  2.66506e-22        00000 
-1.11615e-22 -6.97593e-23        00000 
-4.44176e-23  1.95437e-21        00000 
 1.71265e-22 -1.02943e-21        00000 
-2.66506e-22 -3.55341e-22        00000 
-5.87071e-23  6.87712e-22        00000 
-2.02994e-22 -5.93581e-22        00000 
-1.84287e-22  1.48395e-22        00000 
 9.56763e-06  1.17524e-05        00000 
 5.90452e-06  1.01678e-05        00000 
 4.72149e-06  9.31128e-06        00000 
 4.39045e-06  8.67731e-06        00000 
 4.43144e-06  8.00430e-06        00000 
 4.59980e-06  7.17920e-06        00000 
 4.74529e-06  6.16821e-06        00000 
 4.76708e-06  4.98428e-06        00000 
 4.59620e-06  3.67048e-06        00000 
 4.18811e-06  2.29097e-06        00000 
 3.52030e-06  9.24693e-07        00000 
 2.59221e-06 -3.40494e-07        00000 
 1.42562e-06 -1.41441e-06        00000 
 6.46522e-08 -2.21184e-06        00000 
-1.42556e-06 -2.66017e-06        00000 
-2.96156e-06 -2.70700e-06        00000 
-4.44594e-06 -2.32720e-06        00000 
-5.77390e-06 -1.52893e-06        00000 
-6.84273e-06 -3.57593e-07        00000 
-7.56415e-06  1.10411e-06        00000 
-7.87681e-06  2.74260e-06        00000 
-7.75238e-06  4.42672e-06        00000 
-7.20287e-06  6.01956e-06        00000 
-6.27597e-06  7.40019e-06        00000 
-5.04969e-06  8.46938e-06        00000 
-3.63800e-06  9.16029e-06        00000 
-2.20052e-06  9.44578e-06        00000 
-1.00924e-06  9.35234e-06        00000 
-5.99776e-07  9.03795e-06        00000 
-2.58776e-06  8.89658e-06        00000 
 1.36764e-05  2.02377e-05        00000 
 1.07249e-05  1.96299e-05        00000 
 9.35908e-06  1.87313e-05        00000 
 9.21269e-06  1.77147e-05        00000 
 9.68221e-06  1.65292e-05        00000 
 1.03532e-05  1.51180e-05        00000 
 1.09348e-05  1.34572e-05        00000 
 1.12161e-05  1.15583e-05        00000 
 1.10411e-05  9.46710e-06        00000 
 1.02995e-05  7.26220e-06        00000 
 8.92735e-06  5.05042e-06        00000 
 6.91116e-06  2.95900e-06        00000 
 4.29217e-06  1.12441e-06        00000 
 1.16739e-06 -3.20433e-07        00000 
-2.31333e-06 -1.25913e-06        00000 
-5.95388e-06 -1.60349e-06        00000 
-9.52150e-06 -1.30356e-06        00000 
-1.27594e-05 -3.56325e-07        00000 
-1.54048e-05  1.18589e-06        00000 
-1.72167e-05  3.20805e-06        00000 
-1.80157e-05  5.53140e-06        00000 
-1.77280e-05  7.93127e-06        00000 
-1.63809e-05  1.01869e-05        00000 
-1.41189e-05  1.20910e-05        00000 
-1.11732e-05  1.35245e-05        00000 
-7.80603e-06  1.44447e-05        00000 
-4.34668e-06  1.48715e-05        00000 
-1.19601e-06  1.48762e-05        00000 
 9.86158e-07  1.44395e-05        00000 
 1.46014e-06  1.33525e-05        00000 
 1.43687e-05  2.69018e-05        00000 
 1.27886e-05  2.69074e-05        00000 
 1.27493e-05  2.65017e-05        00000 
 1.36749e-05  2.57195e-05        00000 
 1.51124e-05  2.46333e-05        00000 
 1.66572e-05  2.32671e-05        00000 
 1.79800e-05  2.16088e-05        00000 
 1.87975e-05  1.96475e-05        00000 
 1.88632e-05  1.73992e-05        00000 
 1.79760e-05  1.49234e-05        00000 
 1.59998e-05  1.23258e-05        00000 
 1.28850e-05  9.74931e-06        00000 
 8.68224e-06  7.35718e-06        00000 
 3.54540e-06  5.31340e-06        00000 
-2.27615e-06  3.76440e-06        00000 
-8.45312e-06  2.82502e-06        00000 
-1.45956e-05  2.57055e-06        00000 
-2.02710e-05  3.03305e-06        00000 
-2.50201e-05  4.19655e-06        00000 
-2.83779e-05  5.98225e-06        00000 
-2.99249e-05  8.21675e-06        00000 
-2.94004e-05  1.05965e-05        00000 
-2.68935e-05  1.27067e-05        00000 
-2.27007e-05  1.42708e-05        00000 
-1.73373e-05  1.50326e-05        00000 
-1.14880e-05  1.50199e-05        00000 
-5.57998e-06  1.44792e-05        00000 
 2.76031e-08  1.35667e-05        00000 
 5.22165e-06  1.24529e-05        00000 
 9.73070e-06  1.06795e-05        00000 
 1.15735e-05  2.99730e-05        00000 
 1.23943e-05  3.06689e-05        00000 
 1.43843e-05  3.08703e-05        00000 
 1.69285e-05  3.08106e-05        00000 
 1.96707e-05  3.06381e-05        00000 
 2.23841e-05  3.03302e-05        00000 
 2.47976e-05  2.97801e-05        00000 
 2.65763e-05  2.88604e-05        00000 
 2.73404e-05  2.74920e-05        00000 
 2.67319e-05  2.56732e-05        00000 
 2.44825e-05  2.34798e-05        00000 
 2.04652e-05  2.10490e-05        00000 
 1.47246e-05  1.85527e-05        00000 
 7.48250e-06  1.61664e-05        00000 
-8.82190e-07  1.40412e-05        00000 
-9.87267e-06  1.22857e-05        00000 
-1.89216e-05  1.09646e-05        00000 
-2.74301e-05  1.01140e-05        00000 
-3.47801e-05  9.76891e-06        00000 
-4.03098e-05  9.98079e-06        00000 
-4.32661e-05  1.07888e-05        00000 
-4.28330e-05  1.20836e-05        00000 
-3.84361e-05  1.33510e-05        00000 
-3.09655e-05  1.34287e-05        00000 
-2.17185e-05  1.21653e-05        00000 
-1.18813e-05  9.36089e-06        00000 
-3.31068e-06  5.42147e-06        00000 
 3.96227e-06  1.94353e-06        00000 
 1.10689e-05 -9.57736e-07        00000 
 1.95800e-05 -2.90169e-06        00000 
 5.69019e-06  2.61739e-05        00000 
 1.01955e-05  2.73564e-05        00000 
 1.43015e-05  2.82779e-05        00000 
 1.79686e-05  2.97466e-05        00000 
 2.16461e-05  3.17997e-05        00000 
 2.55005e-05  3.41969e-05        00000 
 2.93667e-05  3.65319e-05        00000 
 3.27297e-05  3.84643e-05        00000 
 3.49339e-05  3.97686e-05        00000 
 3.53429e-05  4.03337e-05        00000 
 3.34585e-05  4.01519e-05        00000 
 2.90116e-05  3.92991e-05        00000 
 2.20202e-05  3.79019e-05        00000 
 1.28030e-05  3.60934e-05        00000 
 1.94105e-06  3.39688e-05        00000 
-9.80943e-06  3.15523e-05        00000 
-2.16330e-05  2.87942e-05        00000 
-3.27677e-05  2.56061e-05        00000 
-4.25693e-05  2.19432e-05        00000 
-5.04734e-05  1.79258e-05        00000 
-5.57914e-05  1.39683e-05        00000 
-5.72827e-05  1.08168e-05        00000 
-5.27319e-05  9.17662e-06        00000 
-3.89686e-05  8.53544e-06        00000 
-2.05980e-05  3.41742e-06        00000 
-4.54639e-06 -4.97915e-06        00000 
 8.26819e-06 -1.40311e-05        00000 
 1.46774e-05 -2.44990e-05        00000 
 1.48965e-05 -2.86479e-05        00000 
 2.10649e-05 -2.82620e-05        00000 
 5.09145e-07  1.11591e-05        00000 
 8.65044e-06  1.15302e-05        00000 
 1.22708e-05  1.37418e-05        00000 
 1.47800e-05  1.80837e-05        00000 
 1.80356e-05  2.43112e-05        00000 
 2.27895e-05  3.14707e-05        00000 
 2.84506e-05  3.89610e-05        00000 
 3.40494e-05  4.63695e-05        00000 
 3.85292e-05  5.33420e-05        00000 
 4.08808e-05  5.95585e-05        00000 
 4.02759e-05  6.47532e-05        00000 
 3.62116e-05  6.87336e-05        00000 
 2.86305e-05  7.13755e-05        00000 
 1.79727e-05  7.25910e-05        00000 
 5.12787e-06  7.22768e-05        00000 
-8.71640e-06  7.02621e-05        00000 
-2.23054e-05  6.62763e-05        00000 
-3.45751e-05  5.99537e-05        00000 
-4.48693e-05  5.08957e-05        00000 
-5.30402e-05  3.88112e-05        00000 
-5.93362e-05  2.37908e-05        00000 
-6.38866e-05  6.82106e-06        00000 
-6.50838e-05 -9.31035e-06        00000 
-5.71292e-05 -1.95459e-05        00000 
-1.89672e-05 -1.67671e-05        00000 
 2.84456e-05 -3.09259e-05        00000 
 4.48921e-05 -6.14477e-05        00000 
 2.09215e-05 -6.21940e-05        00000 
 4.46684e-06 -5.43763e-05        00000 
-1.19930e-06 -4.60071e-05        00000 
 8.79472e-06 -1.72490e-05        00000 
 1.14185e-05 -1.82404e-05        00000 
 7.42731e-06 -1.51600e-05        00000 
 4.36184e-06 -7.15071e-06        00000 
 6.21656e-06  2.96397e-06        00000 
 1.12641e-05  1.50605e-05        00000 
 1.80466e-05  2.93099e-05        00000 
 2.53358e-05  4.55584e-05        00000 
 3.19014e-05  6.32762e-05        00000 
 3.64821e-05  8.16277e-05        00000 
 3.79284e-05  9.95691e-05        00000 
 3.54324e-05  1.15961e-04        00000 
 2.87557e-05  1.29686e-04        00000 
 1.83666e-05  1.39755e-04        00000 
 5.42080e-06  1.45385e-04        00000 
-8.43665e-06  1.46040e-04        00000 
-2.14097e-05  1.41412e-04        00000 
-3.19474e-05  1.31344e-04        00000 
-3.90931e-05  1.15663e-04        00000 
-4.26958e-05  9.39059e-05        00000 
-4.34302e-05  6.48975e-05        00000 
-4.25861e-05  2.61822e-05        00000 
-4.16323e-05 -2.64756e-05        00000 
-3.71008e-05 -9.75834e-05        00000 
-1.94909e-05 -1.90811e-04        00000 
 9.66527e-05 -2.02537e-04        00000 
 2.13718e-05 -9.31123e-05        00000 
-6.95185e-06 -4.22682e-05        00000 
-2.29019e-05 -2.85272e-05        00000 
-2.73897e-05 -2.82734e-05        00000 
 5.78950e-05 -1.61310e-05        00000 
 3.30324e-05 -3.96966e-05        00000 
 2.47446e-06 -4.81678e-05        00000 
-7.33584e-06 -5.15209e-05        00000 
-9.71761e-06 -4.74784e-05        00000 
-8.60141e-06 -3.52142e-05        00000 
-5.62847e-06 -1.44589e-05        00000 
-1.71621e-06  1.48575e-05        00000 
 2.36514e-06  5.22238e-05        00000 
 5.84393e-06  9.61029e-05        00000 
 7.97492e-06  1.43706e-04        00000 
 8.16878e-06  1.91094e-04        00000 
 6.15111e-06  2.33645e-04        00000 
 2.07666e-06  2.66805e-04        00000 
-3.46033e-06  2.86973e-04        00000 
-9.54286e-06  2.92278e-04        00000 
-1.51523e-05  2.83044e-04        00000 
-1.94330e-05  2.61800e-04        00000 
-2.19248e-05  2.32836e-04        00000 
-2.26969e-05  2.01422e-04        00000 
-2.23272e-05  1.72861e-04        00000 
-2.17018e-05  1.51358e-04        00000 
-2.11052e-05  1.37804e-04        00000 
-2.17774e-05  1.21573e-04        00000 
 2.26944e-05  5.98117e-05        00000 
-4.27166e-05  6.02501e-05        00000 
-2.31208e-05  7.82628e-05        00000 
-1.78805e-05  6.23391e-05        00000 
-9.63824e-06  4.02960e-05        00000 
-1.36698e-05  2.41506e-05        00000 
 4.41275e-05 -4.74291e-05        00000 
 1.97385e-05 -3.01355e-05        00000 
-7.44480e-06 -4.88388e-05        00000 
-2.17341e-05 -7.59468e-05        00000 
-3.29854e-05 -1.11287e-04        00000 
-4.32342e-05 -1.58404e-04        00000 
-5.31771e-05 -2.20154e-04        00000 
-6.23902e-05 -2.97646e-04        00000 
-6.97716e-05 -3.89848e-04        00000 
-7.38692e-05 -4.93170e-04        00000 
-7.32440e-05 -6.01303e-04        00000 
-6.68630e-05 -7.05595e-04        00000 
-5.44543e-05 -7.96074e-04        00000 
-3.67240e-05 -8.62976e-04        00000 
-1.53491e-05 -8.98480e-04        00000 
 7.27302e-06 -8.98213e-04        00000 
 2.84666e-05 -8.62123e-04        00000 
 4.57857e-05 -7.94469e-04        00000 
 5.74383e-05 -7.02921e-04        00000 
 6.24855e-05 -5.97005e-04        00000 
 6.07249e-05 -4.86207e-04        00000 
 5.21026e-05 -3.77906e-04        00000 
 3.64157e-05 -2.75098e-04        00000 
 9.24546e-06 -1.76564e-04        00000 
 1.05227e-05 -1.09634e-04        00000 
 1.59835e-05 -8.35940e-05        00000 
 1.68318e-05 -6.98058e-05        00000 
 6.26064e-06 -5.75008e-05        00000 
 2.59245e-06 -4.29806e-05        00000 
 5.87594e-06 -3.22345e-05        00000 
-1.00918e-05  4.79100e-05        00000 
-3.03323e-06  4.96259e-05        00000 
 2.75976e-06  6.67332e-05        00000 
 7.23516e-06  9.42959e-05        00000 
 1.22933e-05  1.33295e-04        00000 
 1.81118e-05  1.86475e-04        00000 
 2.46246e-05  2.56465e-04        00000 
 3.14650e-05  3.44555e-04        00000 
 3.78022e-05  4.49760e-04        00000 
 4.24385e-05  5.68139e-04        00000 
 4.40557e-05  6.92520e-04        00000 
 4.15665e-05  8.12891e-04        00000 
 3.44789e-05  9.17572e-04        00000 
 2.31542e-05  9.95028e-04        00000 
 8.84888e-06  1.03597e-03        00000 
-6.49898e-06  1.03517e-03        00000 
-2.06908e-05  9.92547e-04        00000 
-3.17643e-05  9.13158e-04        00000 
-3.84024e-05  8.06077e-04        00000 
-4.01125e-05  6.82517e-04        00000 
-3.71057e-05  5.53565e-04        00000 
-3.00530e-05  4.28103e-04        00000 
-1.98413e-05  3.11949e-04        00000 
-1.23743e-05  2.12466e-04        00000 
-1.26828e-05  1.40632e-04        00000 
-1.57598e-05  9.72365e-05        00000 
-1.23124e-05  7.22030e-05        00000 
-6.24560e-06  5.58513e-05        00000 
-2.78421e-06  4.35195e-05        00000 
-5.77848e-06  3.47658e-05        00000 
 3.17192e-07 -4.61103e-05        00000 
-1.34497e-06 -5.41513e-05        00000 
-3.78360e-06 -7.09187e-05        00000 
-7.20595e-06 -9.83304e-05        00000 
-1.24372e-05 -1.39288e-04        00000 
-1.94630e-05 -1.96916e-04        00000 
-2.80791e-05 -2.74252e-04        00000 
-3.76822e-05 -3.73140e-04        00000 
-4.70624e-05 -4.92964e-04        00000 
-5.44419e-05 -6.29590e-04        00000 
-5.77955e-05 -7.74830e-04        00000 
-5.53770e-05 -9.16782e-04        00000 
-4.63018e-05 -1.04121e-03        00000 
-3.09786e-05 -1.13385e-03        00000 
-1.12035e-05 -1.18307e-03        00000 
 1.01615e-05 -1.18233e-03        00000 
 2.98499e-05 -1.13155e-03        00000 
 4.49807e-05 -1.03712e-03        00000 
 5.37096e-05 -9.10478e-04        00000 
 5.55306e-05 -7.65579e-04        00000 
 5.11855e-05 -6.16180e-04        00000 
 4.23614e-05 -4.73608e-04        00000 
 3.19271e-05 -3.46342e-04        00000 
 2.36090e-05 -2.41214e-04        00000 
 1.93664e-05 -1.62923e-04        00000 
 1.64818e-05 -1.10336e-04        00000 
 1.20305e-05 -7.74897e-05        00000 
 6.82321e-06 -5.72715e-05        00000 
 3.97062e-06 -4.44081e-05        00000 
 7.12496e-06 -3.60417e-05        00000 
 3.38703e-06  4.55134e-05        00000 
 2.96304e-06  5.54855e-05        00000 
 5.27085e-06  7.27516e-05        00000 
 9.65096e-06  1.01296e-04        00000 
 1.64945e-05  1.45289e-04        00000 
 2.61055e-05  2.08997e-04        00000 
 3.83659e-05  2.96606e-04        00000 
 5.24575e-05  4.11096e-04        00000 
 6.66068e-05  5.52603e-04        00000 
 7.81252e-05  7.16840e-04        00000 
 8.38644e-05  8.94132e-04        00000 
 8.10293e-05  1.06964e-03        00000 
 6.81158e-05  1.22504e-03        00000 
 4.56295e-05  1.34163e-03        00000 
 1.62677e-05  1.40398e-03        00000 
-1.55756e-05  1.40334e-03        00000 
-4.48637e-05  1.33967e-03        00000 
-6.71861e-05  1.22155e-03        00000 
-7.98074e-05  1.06424e-03        00000 
-8.21639e-05  8.86217e-04        00000 
-7.57266e-05  7.05494e-04        00000 
-6.34731e-05  5.36794e-04        00000 
-4.91894e-05  3.90392e-04        00000 
-3.63804e-05  2.72253e-04        00000 
-2.66601e-05  1.84086e-04        00000 
-1.92716e-05  1.23229e-04        00000 
-1.29259e-05  8.40595e-05        00000 
-7.55983e-06  6.01395e-05        00000 
-4.82908e-06  4.59338e-05        00000 
-8.58140e-06  3.72095e-05        00000 
-5.44159e-06 -4.56239e-05        00000 
-3.90363e-06 -5.63502e-05        00000 
-6.66475e-06 -7.44304e-05        00000 
-1.23512e-05 -1.04896e-04        00000 
-2.12819e-05 -1.53073e-04        00000 
-3.41454e-05 -2.24809e-04        00000 
-5.10693e-05 -3.26169e-04        00000 
-7.10968e-05 -4.62032e-04        00000 
-9.17890e-05 -6.33888e-04        00000 
-1.09231e-04 -8.37475e-04        00000 
-1.18668e-04 -1.06113e-03        00000 
-1.15736e-04 -1.28572e-03        00000 
-9.79425e-05 -1.48685e-03        00000 
-6.58443e-05 -1.63899e-03        00000 
-2.33870e-05 -1.72086e-03        00000 
 2.28365e-05 -1.72032e-03        00000 
 6.52299e-05 -1.63733e-03        00000 
 9.71874e-05 -1.48390e-03        00000 
 1.14739e-04 -1.28117e-03        00000 
 1.17307e-04 -1.05449e-03        00000 
 1.07420e-04 -8.28131e-04        00000 
 8.96394e-05 -6.21297e-04        00000 
 6.91014e-05 -4.46188e-04        00000 
 5.00236e-05 -3.08061e-04        00000 
 3.46089e-05 -2.06348e-04        00000 
 2.30208e-05 -1.36307e-04        00000 
 1.44558e-05 -9.10933e-05        00000 
 8.29093e-06 -6.36635e-05        00000 
 5.42229e-06 -4.79036e-05        00000 
 9.74439e-06 -3.85652e-05        00000 
 6.83833e-06  4.61089e-05        00000 
 4.59699e-06  5.73114e-05        00000 
 7.85184e-06  7.63148e-05        00000 
 1.48533e-05  1.09119e-04        00000 
 2.60972e-05  1.62360e-04        00000 
 4.27968e-05  2.43941e-04        00000 
 6.55171e-05  3.62641e-04        00000 
 9.33011e-05  5.26282e-04        00000 
 1.22962e-04  7.38670e-04        00000 
 1.48952e-04  9.96036e-04        00000 
 1.64209e-04  1.28424e-03        00000 
 1.61998e-04  1.57820e-03        00000 
 1.38234e-04  1.84462e-03        00000 
 9.33992e-05  2.04791e-03        00000 
 3.31645e-05  2.15797e-03        00000 
-3.27038e-05  2.15752e-03        00000 
-9.28840e-05  2.04651e-03        00000 
-1.37602e-04  1.84214e-03        00000 
-1.61175e-04  1.57439e-03        00000 
-1.63126e-04  1.27874e-03        00000 
-1.47597e-04  9.88458e-04        00000 
-1.21474e-04  7.28751e-04        00000 
-9.20248e-05  5.14160e-04        00000 
-6.48997e-05  3.49050e-04        00000 
-4.31032e-05  2.30105e-04        00000 
-2.71740e-05  1.49558e-04        00000 
-1.61963e-05  9.81830e-05        00000 
-8.97600e-06  6.74002e-05        00000 
-5.82414e-06  5.01163e-05        00000 
-1.05346e-05  4.01036e-05        00000 
-7.79758e-06 -4.68174e-05        00000 
-5.08500e-06 -5.84295e-05        00000 
-8.75405e-06 -7.83543e-05        00000 
-1.69642e-05 -1.13640e-04        00000 
-3.06263e-05 -1.72468e-04        00000 
-5.17260e-05 -2.65377e-04        00000 
-8.15899e-05 -4.04908e-04        00000 
-1.19527e-04 -6.03296e-04        00000 
-1.61567e-04 -8.68192e-04        00000 
-1.99994e-04 -1.19728e-03        00000 
-2.24403e-04 -1.57358e-03        00000 
-2.24430e-04 -1.96392e-03        00000 
-1.93408e-04 -2.32227e-03        00000 
-1.31488e-04 -2.59820e-03        00000 
-4.67566e-05 -2.74848e-03        00000 
 4.63671e-05 -2.74810e-03        00000 
 1.31053e-04 -2.59703e-03        00000 
 1.92880e-04 -2.32019e-03        00000 
 2.23758e-04 -1.96075e-03        00000 
 2.23554e-04 -1.56908e-03        00000 
 1.98990e-04 -1.19120e-03        00000 
 1.60528e-04 -8.60422e-04        00000 
 1.18683e-04 -5.94006e-04        00000 
 8.11964e-05 -3.94631e-04        00000 
 5.19147e-05 -2.54915e-04        00000 
 3.12972e-05 -1.62644e-04        00000 
 1.78244e-05 -1.05008e-04        00000 
 9.51805e-06 -7.10801e-05        00000 
 6.05471e-06 -5.24146e-05        00000 
 1.09565e-05 -4.17544e-05        00000 
 8.37836e-06  4.76782e-05        00000 
 5.34481e-06  5.96631e-05        00000 
 9.28619e-06  8.04125e-05        00000 
 1.84918e-05  1.18060e-04        00000 
 3.45212e-05  1.82552e-04        00000 
 6.04921e-05  2.87699e-04        00000 
 9.90211e-05  4.51140e-04        00000 
 1.50192e-04  6.91592e-04        00000 
 2.09359e-04  1.02296e-03        00000 
 2.65962e-04  1.44617e-03        00000 
 3.04720e-04  1.94141e-03        00000 
 3.09667e-04  2.46465e-03        00000 
 2.69930e-04  2.95173e-03        00000 
 1.84836e-04  3.33045e-03        00000 
 6.58953e-05  3.53797e-03        00000 
-6.55667e-05  3.53765e-03        00000 
-1.84472e-04  3.32947e-03        00000 