<?xml version="1.0" encoding="utf-8"?>
<VTKFile byte_order="LittleEndian" type="UnstructuredGrid" version="0.1">
   <UnstructuredGrid>
      <Piece NumberOfCells="3364" NumberOfPoints="1741">
         <Points>
            <DataArray Name="Points" NumberOfComponents="3" format="ascii" type="Float32">
0.0000 1.0000 0.0000
0.0000 1.0345 0.0000
0.0000 1.0690 0.0000
0.0000 1.1034 0.0000
0.0000 1.1379 0.0000
0.0000 1.1724 0.0000
0.0000 1.2069 0.0000
0.0000 1.2414 0.0000
0.0000 1.2759 0.0000
0.0000 1.3103 0.0000
0.0000 1.3448 0.0000
0.0000 1.3793 0.0000
0.0000 1.4138 0.0000
0.0000 1.4483 0.0000
0.0000 1.4828 0.0000
0.0000 1.5172 0.0000
0.0000 1.5517 0.0000
0.0000 1.5862 0.0000
0.0000 1.6207 0.0000
0.0000 1.6552 0.0000
0.0000 1.6897 0.0000
0.0000 1.7241 0.0000
0.0000 1.7586 0.0000
0.0000 1.7931 0.0000
0.0000 1.8276 0.0000
0.0000 1.8621 0.0000
0.0000 1.8966 0.0000
0.0000 1.9310 0.0000
0.0000 1.9655 0.0000
0.0000 2.0000 0.0000
0.0690 1.0000 0.0000
0.0690 1.0345 0.0000
0.0690 1.0690 0.0000
0.0690 1.1034 0.0000
0.0690 1.1379 0.0000
0.0690 1.1724 0.0000
0.0690 1.2069 0.0000
0.0690 1.2414 0.0000
0.0690 1.2759 0.0000
0.0690 1.3103 0.0000
0.0690 1.3448 0.0000
0.0690 1.3793 0.0000
0.0690 1.4138 0.0000
0.0690 1.4483 0.0000
0.0690 1.4828 0.0000
0.0690 1.5172 0.0000
0.0690 1.5517 0.0000
0.0690 1.5862 0.0000
0.0690 1.6207 0.0000
0.0690 1.6552 0.0000
0.0690 1.6897 0.0000
0.0690 1.7241 0.0000
0.0690 1.7586 0.0000
0.0690 1.7931 0.0000
0.0690 1.8276 0.0000
0.0690 1.8621 0.0000
0.0690 1.8966 0.0000
0.0690 1.9310 0.0000
0.0690 1.9655 0.0000
0.0690 2.0000 0.0000
0.1379 1.0000 0.0000
0.1379 1.0345 0.0000
0.1379 1.0690 0.0000
0.1379 1.1034 0.0000
0.1379 1.1379 0.0000
0.1379 1.1724 0.0000
0.1379 1.2069 0.0000
0.1379 1.2414 0.0000
0.1379 1.2759 0.0000
0.1379 1.3103 0.0000
0.1379 1.3448 0.0000
0.1379 1.3793 0.0000
0.1379 1.4138 0.0000
0.1379 1.4483 0.0000
0.1379 1.4828 0.0000
0.1379 1.5172 0.0000
0.1379 1.5517 0.0000
0.1379 1.5862 0.0000
0.1379 1.6207 0.0000
0.1379 1.6552 0.0000
0.1379 1.6897 0.0000
0.1379 1.7241 0.0000
0.1379 1.7586 0.0000
0.1379 1.7931 0.0000
0.1379 1.8276 0.0000
0.1379 1.8621 0.0000
0.1379 1.8966 0.0000
0.1379 1.9310 0.0000
0.1379 1.9655 0.0000
0.1379 2.0000 0.0000
0.2069 1.0000 0.0000
0.2069 1.0345 0.0000
0.2069 1.0690 0.0000
0.2069 1.1034 0.0000
0.2069 1.1379 0.0000
0.2069 1.1724 0.0000
0.2069 1.2069 0.0000
0.2069 1.2414 0.0000
0.2069 1.2759 0.0000
0.2069 1.3103 0.0000
0.2069 1.3448 0.0000
0.2069 1.3793 0.0000
0.2069 1.4138 0.0000
0.2069 1.4483 0.0000
0.2069 1.4828 0.0000
0.2069 1.5172 0.0000
0.2069 1.5517 0.0000
0.2069 1.5862 0.0000
0.2069 1.6207 0.0000
0.2069 1.6552 0.0000
0.2069 1.6897 0.0000
0.2069 1.7241 0.0000
0.2069 1.7586 0.0000
0.2069 1.7931 0.0000
0.2069 1.8276 0.0000
0.2069 1.8621 0.0000
0.2069 1.8966 0.0000
0.2069 1.9310 0.0000
0.2069 1.9655 0.0000
0.2069 2.0000 0.0000
0.2759 1.0000 0.0000
0.2759 1.0345 0.0000
0.2759 1.0690 0.0000
0.2759 1.1034 0.0000
0.2759 1.1379 0.0000
0.2759 1.1724 0.0000
0.2759 1.2069 0.0000
0.2759 1.2414 0.0000
0.2759 1.2759 0.0000
0.2759 1.3103 0.0000
0.2759 1.3448 0.0000
0.2759 1.3793 0.0000
0.2759 1.4138 0.0000
0.2759 1.4483 0.0000
0.2759 1.4828 0.0000
0.2759 1.5172 0.0000
0.2759 1.5517 0.0000
0.2759 1.5862 0.0000
0.2759 1.6207 0.0000
0.2759 1.6552 0.0000
0.2759 1.6897 0.0000
0.2759 1.7241 0.0000
0.2759 1.7586 0.0000
0.2759 1.7931 0.0000
0.2759 1.8276 0.0000
0.2759 1.8621 0.0000
0.2759 1.8966 0.0000
0.2759 1.9310 0.0000
0.2759 1.9655 0.0000
0.2759 2.0000 0.0000
0.3448 1.0000 0.0000
0.3448 1.0345 0.0000
0.3448 1.0690 0.0000
0.3448 1.1034 0.0000
0.3448 1.1379 0.0000
0.3448 1.1724 0.0000
0.3448 1.2069 0.0000
0.3448 1.2414 0.0000
0.3448 1.2759 0.0000
0.3448 1.3103 0.0000
0.3448 1.3448 0.0000
0.3448 1.3793 0.0000
0.3448 1.4138 0.0000
0.3448 1.4483 0.0000
0.3448 1.4828 0.0000
0.3448 1.5172 0.0000
0.3448 1.5517 0.0000
0.3448 1.5862 0.0000
0.3448 1.6207 0.0000
0.3448 1.6552 0.0000
0.3448 1.6897 0.0000
0.3448 1.7241 0.0000
0.3448 1.7586 0.0000
0.3448 1.7931 0.0000
0.3448 1.8276 0.0000
0.3448 1.8621 0.0000
0.3448 1.8966 0.0000
0.3448 1.9310 0.0000
0.3448 1.9655 0.0000
0.3448 2.0000 0.0000
0.4138 1.0000 0.0000
0.4138 1.0345 0.0000
0.4138 1.0690 0.0000
0.4138 1.1034 0.0000
0.4138 1.1379 0.0000
0.4138 1.1724 0.0000
0.4138 1.2069 0.0000
0.4138 1.2414 0.0000
0.4138 1.2759 0.0000
0.4138 1.3103 0.0000
0.4138 1.3448 0.0000
0.4138 1.3793 0.0000
0.4138 1.4138 0.0000
0.4138 1.4483 0.0000
0.4138 1.4828 0.0000
0.4138 1.5172 0.0000
0.4138 1.5517 0.0000
0.4138 1.5862 0.0000
0.4138 1.6207 0.0000
0.4138 1.6552 0.0000
0.4138 1.6897 0.0000
0.4138 1.7241 0.0000
0.4138 1.7586 0.0000
0.4138 1.7931 0.0000
0.4138 1.8276 0.0000
0.4138 1.8621 0.0000
0.4138 1.8966 0.0000
0.4138 1.9310 0.0000
0.4138 1.9655 0.0000
0.4138 2.0000 0.0000
0.4828 1.0000 0.0000
0.4828 1.0345 0.0000
0.4828 1.0690 0.0000
0.4828 1.1034 0.0000
0.4828 1.1379 0.0000
0.4828 1.1724 0.0000
0.4828 1.2069 0.0000
0.4828 1.2414 0.0000
0.4828 1.2759 0.0000
0.4828 1.3103 0.0000
0.4828 1.3448 0.0000
0.4828 1.3793 0.0000
0.4828 1.4138 0.0000
0.4828 1.4483 0.0000
0.4828 1.4828 0.0000
0.4828 1.5172 0.0000
0.4828 1.5517 0.0000
0.4828 1.5862 0.0000
0.4828 1.6207 0.0000
0.4828 1.6552 0.0000
0.4828 1.6897 0.0000
0.4828 1.7241 0.0000
0.4828 1.7586 0.0000
0.4828 1.7931 0.0000
0.4828 1.8276 0.0000
0.4828 1.8621 0.0000
0.4828 1.8966 0.0000
0.4828 1.9310 0.0000
0.4828 1.9655 0.0000
0.4828 2.0000 0.0000
0.5517 1.0000 0.0000
0.5517 1.0345 0.0000
0.5517 1.0690 0.0000
0.5517 1.1034 0.0000
0.5517 1.1379 0.0000
0.5517 1.1724 0.0000
0.5517 1.2069 0.0000
0.5517 1.2414 0.0000
0.5517 1.2759 0.0000
0.5517 1.3103 0.0000
0.5517 1.3448 0.0000
0.5517 1.3793 0.0000
0.5517 1.4138 0.0000
0.5517 1.4483 0.0000
0.5517 1.4828 0.0000
0.5517 1.5172 0.0000
0.5517 1.5517 0.0000
0.5517 1.5862 0.0000
0.5517 1.6207 0.0000
0.5517 1.6552 0.0000
0.5517 1.6897 0.0000
0.5517 1.7241 0.0000
0.5517 1.7586 0.0000
0.5517 1.7931 0.0000
0.5517 1.8276 0.0000
0.5517 1.8621 0.0000
0.5517 1.8966 0.0000
0.5517 1.9310 0.0000
0.5517 1.9655 0.0000
0.5517 2.0000 0.0000
0.6207 1.0000 0.0000
0.6207 1.0345 0.0000
0.6207 1.0690 0.0000
0.6207 1.1034 0.0000
0.6207 1.1379 0.0000
0.6207 1.1724 0.0000
0.6207 1.2069 0.0000
0.6207 1.2414 0.0000
0.6207 1.2759 0.0000
0.6207 1.3103 0.0000
0.6207 1.3448 0.0000
0.6207 1.3793 0.0000
0.6207 1.4138 0.0000
0.6207 1.4483 0.0000
0.6207 1.4828 0.0000
0.6207 1.5172 0.0000
0.6207 1.5517 0.0000
0.6207 1.5862 0.0000
0.6207 1.6207 0.0000
0.6207 1.6552 0.0000
0.6207 1.6897 0.0000
0.6207 1.7241 0.0000
0.6207 1.7586 0.0000
0.6207 1.7931 0.0000
0.6207 1.8276 0.0000
0.6207 1.8621 0.0000
0.6207 1.8966 0.0000
0.6207 1.9310 0.0000
0.6207 1.9655 0.0000
0.6207 2.0000 0.0000
0.6897 1.0000 0.0000
0.6897 1.0345 0.0000
0.6897 1.0690 0.0000
0.6897 1.1034 0.0000
0.6897 1.1379 0.0000
0.6897 1.1724 0.0000
0.6897 1.2069 0.0000
0.6897 1.2414 0.0000
0.6897 1.2759 0.0000
0.6897 1.3103 0.0000
0.6897 1.3448 0.0000
0.6897 1.3793 0.0000
0.6897 1.4138 0.0000
0.6897 1.4483 0.0000
0.6897 1.4828 0.0000
0.6897 1.5172 0.0000
0.6897 1.5517 0.0000
0.6897 1.5862 0.0000
0.6897 1.6207 0.0000
0.6897 1.6552 0.0000
0.6897 1.6897 0.0000
0.6897 1.7241 0.0000
0.6897 1.7586 0.0000
0.6897 1.7931 0.0000
0.6897 1.8276 0.0000
0.6897 1.8621 0.0000
0.6897 1.8966 0.0000
0.6897 1.9310 0.0000
0.6897 1.9655 0.0000
0.6897 2.0000 0.0000
0.7586 1.0000 0.0000
0.7586 1.0345 0.0000
0.7586 1.0690 0.0000
0.7586 1.1034 0.0000
0.7586 1.1379 0.0000
0.7586 1.1724 0.0000
0.7586 1.2069 0.0000
0.7586 1.2414 0.0000
0.7586 1.2759 0.0000
0.7586 1.3103 0.0000
0.7586 1.3448 0.0000
0.7586 1.3793 0.0000
0.7586 1.4138 0.0000
0.7586 1.4483 0.0000
0.7586 1.4828 0.0000
0.7586 1.5172 0.0000
0.7586 1.5517 0.0000
0.7586 1.5862 0.0000
0.7586 1.6207 0.0000
0.7586 1.6552 0.0000
0.7586 1.6897 0.0000
0.7586 1.7241 0.0000
0.7586 1.7586 0.0000
0.7586 1.7931 0.0000
0.7586 1.8276 0.0000
0.7586 1.8621 0.0000
0.7586 1.8966 0.0000
0.7586 1.9310 0.0000
0.7586 1.9655 0.0000
0.7586 2.0000 0.0000
0.8276 1.0000 0.0000
0.8276 1.0345 0.0000
0.8276 1.0690 0.0000
0.8276 1.1034 0.0000
0.8276 1.1379 0.0000
0.8276 1.1724 0.0000
0.8276 1.2069 0.0000
0.8276 1.2414 0.0000
0.8276 1.2759 0.0000
0.8276 1.3103 0.0000
0.8276 1.3448 0.0000
0.8276 1.3793 0.0000
0.8276 1.4138 0.0000
0.8276 1.4483 0.0000
0.8276 1.4828 0.0000
0.8276 1.5172 0.0000
0.8276 1.5517 0.0000
0.8276 1.5862 0.0000
0.8276 1.6207 0.0000
0.8276 1.6552 0.0000
0.8276 1.6897 0.0000
0.8276 1.7241 0.0000
0.8276 1.7586 0.0000
0.8276 1.7931 0.0000
0.8276 1.8276 0.0000
0.8276 1.8621 0.0000
0.8276 1.8966 0.0000
0.8276 1.9310 0.0000
0.8276 1.9655 0.0000
0.8276 2.0000 0.0000
0.8966 1.0000 0.0000
0.8966 1.0345 0.0000
0.8966 1.0690 0.0000
0.8966 1.1034 0.0000
0.8966 1.1379 0.0000
0.8966 1.1724 0.0000
0.8966 1.2069 0.0000
0.8966 1.2414 0.0000
0.8966 1.2759 0.0000
0.8966 1.3103 0.0000
0.8966 1.3448 0.0000
0.8966 1.3793 0.0000
0.8966 1.4138 0.0000
0.8966 1.4483 0.0000
0.8966 1.4828 0.0000
0.8966 1.5172 0.0000
0.8966 1.5517 0.0000
0.8966 1.5862 0.0000
0.8966 1.6207 0.0000
0.8966 1.6552 0.0000
0.8966 1.6897 0.0000
0.8966 1.7241 0.0000
0.8966 1.7586 0.0000
0.8966 1.7931 0.0000
0.8966 1.8276 0.0000
0.8966 1.8621 0.0000
0.8966 1.8966 0.0000
0.8966 1.9310 0.0000
0.8966 1.9655 0.0000
0.8966 2.0000 0.0000
0.9655 1.0000 0.0000
0.9655 1.0345 0.0000
0.9655 1.0690 0.0000
0.9655 1.1034 0.0000
0.9655 1.1379 0.0000
0.9655 1.1724 0.0000
0.9655 1.2069 0.0000
0.9655 1.2414 0.0000
0.9655 1.2759 0.0000
0.9655 1.3103 0.0000
0.9655 1.3448 0.0000
0.9655 1.3793 0.0000
0.9655 1.4138 0.0000
0.9655 1.4483 0.0000
0.9655 1.4828 0.0000
0.9655 1.5172 0.0000
0.9655 1.5517 0.0000
0.9655 1.5862 0.0000
0.9655 1.6207 0.0000
0.9655 1.6552 0.0000
0.9655 1.6897 0.0000
0.9655 1.7241 0.0000
0.9655 1.7586 0.0000
0.9655 1.7931 0.0000
0.9655 1.8276 0.0000
0.9655 1.8621 0.0000
0.9655 1.8966 0.0000
0.9655 1.9310 0.0000
0.9655 1.9655 0.0000
0.9655 2.0000 0.0000
1.0345 1.0000 0.0000
1.0345 1.0345 0.0000
1.0345 1.0690 0.0000
1.0345 1.1034 0.0000
1.0345 1.1379 0.0000
1.0345 1.1724 0.0000
1.0345 1.2069 0.0000
1.0345 1.2414 0.0000
1.0345 1.2759 0.0000
1.0345 1.3103 0.0000
1.0345 1.3448 0.0000
[...]
         <PointData>
            <DataArray Name="fValues" NumberOfComponents="3" format="ascii" type="Float64">
-6.04823e-22  1.19764e-21        00000 
 5.39007e-22 -8.98345e-23        00000 
-3.99758e-22  3.05371e-23        00000 
 6.47366e-22 -4.46460e-23        00000 
 8.88352e-23  6.66264e-23        00000 
 3.03064e-22  3.01182e-23        00000 
 2.66506e-22 -2.66506e-22        00000 
-2.42762e-22  9.86397e-22        00000 
 2.83162e-22 -8.88352e-22        00000 
-9.41653e-23  1.09349e-22        00000 
 8.32830e-23 -1.33253e-22        00000 
-1.67422e-22  6.97593e-23        00000 
 4.88593e-22  2.22088e-22        00000 
-7.03635e-22 -5.06380e-22        00000 
       00000  1.77670e-22        00000 
 1.20823e-21  2.79037e-23        00000 
-1.33253e-21 -6.10742e-23        00000 
 7.87081e-22  8.46919e-23        00000 
-3.10923e-22  6.10742e-23        00000 
 4.79944e-22  1.19986e-22        00000 
 3.99758e-22 -3.10923e-22        00000 
-7.38525e-22  6.69644e-22        00000 
 5.33011e-22 -1.77670e-22        00000 
-3.71120e-22  1.56261e-22        00000 
 1.91551e-22  1.24369e-21        00000 
-9.13648e-23 -2.50772e-22        00000 
-1.80446e-23 -1.77670e-22        00000 
-6.42109e-23 -9.33723e-22        00000 
 3.21990e-22  8.34373e-22        00000 
 5.90550e-23 -3.26111e-22        00000 
 8.72206e-06  5.04890e-06        00000 
 7.06578e-06  2.99372e-06        00000 
 6.02495e-06  1.45397e-06        00000 
 5.14096e-06  2.51841e-07        00000 
 4.33332e-06 -7.34719e-07        00000 
 3.56151e-06 -1.57536e-06        00000 
 2.79562e-06 -2.30263e-06        00000 
 2.01360e-06 -2.92164e-06        00000 
 1.20297e-06 -3.41830e-06        00000 
 3.62512e-07 -3.76702e-06        00000 
-4.97167e-07 -3.93825e-06        00000 
-1.35441e-06 -3.90540e-06        00000 
-2.17863e-06 -3.65084e-06        00000 
-2.93356e-06 -3.17032e-06        00000 
-3.58111e-06 -2.47559e-06        00000 
-4.08555e-06 -1.59485e-06        00000 
-4.41733e-06 -5.71148e-07        00000 
-4.55617e-06  5.41008e-07        00000 
-4.49301e-06  1.68028e-06        00000 
-4.23073e-06  2.78365e-06        00000 
-3.78354e-06  3.79133e-06        00000 
-3.17565e-06  4.65068e-06        00000 
-2.43958e-06  5.31881e-06        00000 
-1.61510e-06  5.76387e-06        00000 
-7.49899e-07  5.96553e-06        00000 
 9.65129e-08  5.91599e-06        00000 
 8.42536e-07  5.62424e-06        00000 
 1.35979e-06  5.12771e-06        00000 
 1.40312e-06  4.52177e-06        00000 
 2.53362e-07  4.01375e-06        00000 
 1.71997e-05  7.99858e-06        00000 
 1.51884e-05  6.13445e-06        00000 
 1.31605e-05  4.33580e-06        00000 
 1.13566e-05  2.67813e-06        00000 
 9.71282e-06  1.13541e-06        00000 
 8.14488e-06 -3.18140e-07        00000 
 6.57058e-06 -1.68332e-06        00000 
 4.92335e-06 -2.93285e-06        00000 
 3.16202e-06 -4.01641e-06        00000 
 1.27685e-06 -4.86957e-06        00000 
-7.08267e-07 -5.42459e-06        00000 
-2.73769e-06 -5.62167e-06        00000 
-4.72962e-06 -5.41944e-06        00000 
-6.58500e-06 -4.80311e-06        00000 
-8.19858e-06 -3.78957e-06        00000 
-9.47103e-06 -2.42835e-06        00000 
-1.03202e-05 -7.98232e-07        00000 
-1.06903e-05  9.99732e-07        00000 
-1.05578e-05  2.85245e-06        00000 
-9.93273e-06  4.64587e-06        00000 
-8.85640e-06  6.27600e-06        00000 
-7.39582e-06  7.65768e-06        00000 
-5.63683e-06  8.72993e-06        00000 
-3.67786e-06  9.45813e-06        00000 
-1.62787e-06  9.83220e-06        00000 
 3.88942e-07  9.86415e-06        00000 
 2.21775e-06  9.58459e-06        00000 
 3.64235e-06  9.04059e-06        00000 
 4.33527e-06  8.28234e-06        00000 
 3.93699e-06  7.28101e-06        00000 
 2.60423e-05  1.29561e-05        00000 
 2.30450e-05  1.10655e-05        00000 
 2.03510e-05  9.29476e-06        00000 
 1.79493e-05  7.49269e-06        00000 
 1.57644e-05  5.60604e-06        00000 
 1.36471e-05  3.62622e-06        00000 
 1.14398e-05  1.58813e-06        00000 
 9.01019e-06 -4.33229e-07        00000 
 6.27348e-06 -2.33111e-06        00000 
 3.20541e-06 -3.97938e-06        00000 
-1.51705e-07 -5.24774e-06        00000 
-3.69074e-06 -6.01880e-06        00000 
-7.24925e-06 -6.20503e-06        00000 
-1.06264e-05 -5.76355e-06        00000 
-1.36056e-05 -4.70615e-06        00000 
-1.59805e-05 -3.10235e-06        00000 
-1.75805e-05 -1.07462e-06        00000 
-1.82916e-05  1.21517e-06        00000 
-1.80699e-05  3.58406e-06        00000 
-1.69446e-05  5.85143e-06        00000 
-1.50116e-05  7.85970e-06        00000 
-1.24180e-05  9.49190e-06        00000 
-9.34097e-06  1.06816e-05        00000 
-5.96852e-06  1.14115e-05        00000 
-2.48328e-06  1.17065e-05        00000 
 9.40920e-07  1.16139e-05        00000 
 4.12818e-06  1.11843e-05        00000 
 6.87899e-06  1.04459e-05        00000 
 8.95662e-06  9.38414e-06        00000 
 1.00711e-05  7.95501e-06        00000 
 3.44610e-05  2.06401e-05        00000 
 3.03704e-05  1.89624e-05        00000 
 2.71662e-05  1.72886e-05        00000 
 2.46133e-05  1.53968e-05        00000 
 2.24107e-05  1.31672e-05        00000 
 2.02422e-05  1.05785e-05        00000 
 1.78096e-05  7.68875e-06        00000 
 1.48697e-05  4.62080e-06        00000 
 1.12617e-05  1.54840e-06        00000 
 6.92811e-06 -1.32006e-06        00000 
 1.92701e-06 -3.76182e-06        00000 
-3.56510e-06 -5.56463e-06        00000 
-9.26391e-06 -6.55516e-06        00000 
-1.48032e-05 -6.62766e-06        00000 
-1.97761e-05 -5.76740e-06        00000 
-2.37864e-05 -4.06230e-06        00000 
-2.65014e-05 -1.69832e-06        00000 
-2.77016e-05  1.05987e-06        00000 
-2.73091e-05  3.90961e-06        00000 
-2.53971e-05  6.54959e-06        00000 
-2.21760e-05  8.72983e-06        00000 
-1.79512e-05  1.02844e-05        00000 
-1.30789e-05  1.11482e-05        00000 
-7.90273e-06  1.13614e-05        00000 
-2.71205e-06  1.10335e-05        00000 
 2.28785e-06  1.03156e-05        00000 
 6.97718e-06  9.33366e-06        00000 
 1.12837e-05  8.14917e-06        00000 
 1.51204e-05  6.71979e-06        00000 
 1.82899e-05  4.90323e-06        00000 
 4.10847e-05  3.12379e-05        00000 
 3.62234e-05  3.00810e-05        00000 
 3.31108e-05  2.87036e-05        00000 
 3.11578e-05  2.68029e-05        00000 
 2.97538e-05  2.42259e-05        00000 
 2.83181e-05  2.09414e-05        00000 
 2.63382e-05  1.70194e-05        00000 
 2.33973e-05  1.26169e-05        00000 
 1.92033e-05  7.96725e-06        00000 
 1.36178e-05  3.36817e-06        00000 
 6.68318e-06 -8.37537e-07        00000 
-1.35726e-06 -4.29313e-06        00000 
-1.00575e-05 -6.67189e-06        00000 
-1.87942e-05 -7.73153e-06        00000 
-2.68290e-05 -7.37059e-06        00000 
-3.34085e-05 -5.67169e-06        00000 
-3.78832e-05 -2.91112e-06        00000 
-3.98057e-05  4.77416e-07        00000 
-3.90268e-05  3.95235e-06        00000 
-3.57106e-05  6.98779e-06        00000 
-3.02987e-05  9.14097e-06        00000 
-2.34486e-05  1.01503e-05        00000 
-1.58729e-05  9.98046e-06        00000 
-8.24653e-06  8.78147e-06        00000 
-1.05810e-06  6.89325e-06        00000 
 5.46195e-06  4.68162e-06        00000 
 1.13449e-05  2.49984e-06        00000 
 1.68572e-05  5.22661e-07        00000 
 2.23320e-05 -1.30469e-06        00000 
 2.79752e-05 -3.31902e-06        00000 
 4.38954e-05  4.39266e-05        00000 
 3.92245e-05  4.37399e-05        00000 
 3.73545e-05  4.29738e-05        00000 
 3.71962e-05  4.13135e-05        00000 
 3.77569e-05  3.86114e-05        00000 
 3.81604e-05  3.48249e-05        00000 
 3.76425e-05  2.99977e-05        00000 
 3.55573e-05  2.42606e-05        00000 
 3.13978e-05  1.78478e-05        00000 
 2.48430e-05  1.11096e-05        00000 
 1.58190e-05  4.50925e-06        00000 
 4.56349e-06 -1.40508e-06        00000 
-8.32699e-06 -6.05644e-06        00000 
-2.18871e-05 -8.92587e-06        00000 
-3.48374e-05 -9.66593e-06        00000 
-4.57335e-05 -8.22682e-06        00000 
-5.32255e-05 -4.95407e-06        00000 
-5.63777e-05 -5.81834e-07        00000 
-5.47863e-05  3.96024e-06        00000 
-4.87801e-05  7.60197e-06        00000 
-3.93472e-05  9.54834e-06        00000 
-2.78235e-05  9.34100e-06        00000 
-1.58124e-05  6.95791e-06        00000 
-4.62166e-06  2.94667e-06        00000 
 4.84278e-06 -2.02556e-06        00000 
 1.22757e-05 -6.99304e-06        00000 
 1.81326e-05 -1.12839e-05        00000 
 2.33398e-05 -1.44488e-05        00000 
 2.92252e-05 -1.65431e-05        00000 
 3.70883e-05 -1.81959e-05        00000 
 4.02731e-05  5.61118e-05        00000 
 3.77180e-05  5.74185e-05        00000 
 3.88013e-05  5.77170e-05        00000 
 4.19032e-05  5.68884e-05        00000 
 4.57551e-05  5.48572e-05        00000 
 4.93037e-05  5.15349e-05        00000 
 5.16038e-05  4.68083e-05        00000 
 5.17446e-05  4.06174e-05        00000 
 4.88752e-05  3.30351e-05        00000 
 4.22934e-05  2.43355e-05        00000 
 3.15828e-05  1.50247e-05        00000 
 1.67614e-05  5.83021e-06        00000 
-1.58180e-06 -2.35119e-06        00000 
-2.21850e-05 -8.55091e-06        00000 
-4.30747e-05 -1.18833e-05        00000 
-6.16491e-05 -1.17771e-05        00000 
-7.50040e-05 -8.29078e-06        00000 
-8.06572e-05 -2.42752e-06        00000 
-7.77226e-05  3.85246e-06        00000 
-6.65694e-05  8.78397e-06        00000 
-4.91664e-05  1.03477e-05        00000 
-2.90112e-05  7.73420e-06        00000 
-9.12461e-06  1.38734e-06        00000 
 7.36084e-06 -7.89471e-06        00000 
 1.88211e-05 -1.77195e-05        00000 
 2.54490e-05 -2.68292e-05        00000 
 2.82019e-05 -3.36602e-05        00000 
 2.96712e-05 -3.77509e-05        00000 
 3.28705e-05 -3.94014e-05        00000 
 4.08768e-05 -3.95360e-05        00000 
 2.78411e-05  6.22475e-05        00000 
 3.04437e-05  6.53583e-05        00000 
 3.62605e-05  6.73075e-05        00000 
 4.36177e-05  6.85155e-05        00000 
 5.15478e-05  6.91102e-05        00000 
 5.93322e-05  6.87540e-05        00000 
 6.60497e-05  6.68954e-05        00000 
 7.04876e-05  6.29687e-05        00000 
 7.12130e-05  5.66039e-05        00000 
 6.68030e-05  4.77513e-05        00000 
 5.61168e-05  3.67388e-05        00000 
 3.85655e-05  2.42837e-05        00000 
 1.43576e-05  1.14657e-05        00000 
-1.52845e-05 -3.28364e-07        00000 
-4.79294e-05 -9.49607e-06        00000 
-7.97573e-05 -1.43928e-05        00000 
-1.05471e-04 -1.37176e-05        00000 
-1.18723e-04 -7.35789e-06        00000 
-1.13988e-04  2.24734e-06        00000 
-9.29207e-05  8.84536e-06        00000 
-6.01608e-05  1.01813e-05        00000 
-2.15752e-05  3.33992e-06        00000 
 1.17709e-05 -1.16071e-05        00000 
 3.50758e-05 -2.83026e-05        00000 
 4.65428e-05 -4.56130e-05        00000 
 4.56469e-05 -5.72791e-05        00000 
 3.93656e-05 -6.32102e-05        00000 
 3.26394e-05 -6.51811e-05        00000 
 2.87515e-05 -6.44850e-05        00000 
 3.17773e-05 -6.14300e-05        00000 
 7.01326e-06  5.27543e-05        00000 
 1.81942e-05  5.72427e-05        00000 
 2.87949e-05  6.13537e-05        00000 
 3.89840e-05  6.69419e-05        00000 
 4.99810e-05  7.38920e-05        00000 
 6.21867e-05  8.12495e-05        00000 
 7.49337e-05  8.75766e-05        00000 
 8.64394e-05  9.15313e-05        00000 
 9.42971e-05  9.20520e-05        00000 
 9.59280e-05  8.84417e-05        00000 
 8.90084e-05  8.04298e-05        00000 
 7.18841e-05  6.82007e-05        00000 
 4.39317e-05  5.23871e-05        00000 
 5.82892e-06  3.40583e-05        00000 
-4.02445e-05  1.47731e-05        00000 
-9.03305e-05 -3.23625e-06        00000 
-1.38041e-04 -1.67795e-05        00000 
-1.73124e-04 -2.17091e-05        00000 
-1.80117e-04 -1.46821e-05        00000 
-1.39024e-04  1.28495e-06        00000 
-6.73551e-05 -1.12738e-06        00000 
 3.52878e-06 -1.92306e-05        00000 
 6.56256e-05 -4.42044e-05        00000 
 9.57963e-05 -8.17155e-05        00000 
 8.26541e-05 -9.64494e-05        00000 
 6.01039e-05 -9.57146e-05        00000 
 4.00744e-05 -8.86679e-05        00000 
 2.49766e-05 -8.05191e-05        00000 
 1.37836e-05 -7.36560e-05        00000 
 4.84415e-06 -6.72836e-05        00000 
-1.23269e-05  1.61711e-05        00000 
 6.76493e-06  1.88508e-05        00000 
 1.52494e-05  2.62901e-05        00000 
 2.20121e-05  3.94420e-05        00000 
 3.21640e-05  5.75662e-05        00000 
 4.77460e-05  7.82607e-05        00000 
 6.73687e-05  9.97036e-05        00000 
 8.82441e-05  1.20280e-04        00000 
 1.06797e-04  1.38329e-04        00000 
 1.19050e-04  1.52180e-04        00000 
 1.21157e-04  1.60290e-04        00000 
 1.10071e-04  1.61338e-04        00000 
 8.41717e-05  1.54207e-04        00000 
 4.36111e-05  1.37865e-04        00000 
-9.72957e-06  1.11280e-04        00000 
-7.26155e-05  7.36377e-05        00000 
-1.40699e-04  2.53057e-05        00000 
-2.07442e-04 -2.97870e-05        00000 
-2.57929e-04 -7.95415e-05        00000 
-2.57961e-04 -1.00705e-04        00000 
-1.01142e-04 -5.92503e-05        00000 
 1.21238e-04 -9.56523e-05        00000 
 2.20759e-04 -2.11065e-04        00000 
 1.40408e-04 -1.97317e-04        00000 
 7.70664e-05 -1.51497e-04        00000 
 3.80229e-05 -1.10312e-04        00000 
 1.28248e-05 -7.90498e-05        00000 
-2.46136e-06 -5.57134e-05        00000 
-1.08665e-05 -3.93339e-05        00000 
-2.39171e-05 -3.00938e-05        00000 
 2.17880e-06 -4.93983e-05        00000 
 6.11173e-06 -5.14541e-05        00000 
-5.34384e-06 -4.30795e-05        00000 
-1.30974e-05 -2.31253e-05        00000 
-7.72823e-06  2.81558e-06        00000 
 7.75929e-06  3.51845e-05        00000 
 3.05728e-05  7.48840e-05        00000 
 5.77696e-05  1.21689e-04        00000 
 8.54810e-05  1.74027e-04        00000 
 1.08842e-04  2.29091e-04        00000 
 1.22628e-04  2.83071e-04        00000 
 1.22386e-04  3.31432e-04        00000 
 1.05652e-04  3.69137e-04        00000 
 7.27999e-05  3.90662e-04        00000 
 2.70764e-05  3.89688e-04        00000 
-2.63008e-05  3.58291e-04        00000 
-8.17349e-05  2.85461e-04        00000 
-1.34782e-04  1.54872e-04        00000 
-1.82741e-04 -5.71583e-05        00000 
-2.02689e-04 -3.74507e-04        00000 
-1.45211e-04 -8.15039e-04        00000 
 4.10092e-04 -8.91798e-04        00000 
 1.17284e-04 -4.12408e-04        00000 
 2.47723e-05 -1.68316e-04        00000 
-6.36042e-06 -6.01332e-05        00000 
-2.17488e-05 -3.55727e-06        00000 
-3.11101e-05  2.67302e-05        00000 
-3.51004e-05  3.61312e-05        00000 
-1.88839e-05  2.60114e-05        00000 
 8.09808e-06 -2.34029e-06        00000 
 1.07749e-04 -4.14816e-05        00000 
 4.95874e-05 -9.06995e-05        00000 
-1.90129e-05 -1.15120e-04        00000 
-4.35356e-05 -1.31605e-04        00000 
-5.06351e-05 -1.31596e-04        00000 
-4.81580e-05 -1.10436e-04        00000 
-3.90794e-05 -6.41380e-05        00000 
-2.52203e-05  1.13321e-05        00000 
-8.72821e-06  1.18345e-04        00000 
 7.48216e-06  2.55460e-04        00000 
 1.99385e-05  4.15885e-04        00000 
 2.53286e-05  5.87273e-04        00000 
 2.14336e-05  7.53305e-04        00000 
 7.86127e-06  8.96927e-04        00000 
-1.38058e-05  1.00448e-03        00000 
-4.06177e-05  1.06949e-03        00000 
-6.93592e-05  1.09457e-03        00000 
-9.75613e-05  1.08985e-03        00000 
-1.21215e-04  1.06254e-03        00000 
-1.43134e-04  9.75227e-04        00000 
 5.16725e-05  6.41387e-04        00000 
-2.39791e-04  5.61502e-04        00000 
-1.41174e-04  5.64569e-04        00000 
-1.02199e-04  4.13148e-04        00000 
-8.49224e-05  2.73260e-04        00000 
-6.85308e-05  1.79935e-04        00000 
-5.27432e-05  1.20109e-04        00000 
-3.60706e-05  7.97525e-05        00000 
 5.95443e-07  4.47547e-05        00000 
 1.58326e-05  4.28650e-05        00000 
 8.03164e-05 -6.97812e-05        00000 
 3.27944e-05 -3.51100e-05        00000 
-2.32319e-05 -6.98662e-05        00000 
-5.64451e-05 -1.23347e-04        00000 
-8.48665e-05 -1.96634e-04        00000 
-1.13688e-04 -3.01554e-04        00000 
-1.44873e-04 -4.49874e-04        00000 
-1.77228e-04 -6.50039e-04        00000 
-2.06998e-04 -9.04620e-04        00000 
-2.28530e-04 -1.20720e-03        00000 
-2.35475e-04 -1.54007e-03        00000 
-2.22525e-04 -1.87429e-03        00000 
-1.87317e-04 -2.17297e-03        00000 
-1.31859e-04 -2.39750e-03        00000 
-6.29274e-05 -2.51547e-03        00000 
 8.71258e-06 -2.50773e-03        00000 
 6.98464e-05 -2.37196e-03        00000 
 1.05548e-04 -2.12016e-03        00000 
 1.01291e-04 -1.76805e-03        00000 
 2.63847e-05 -1.32931e-03        00000 
 5.87848e-05 -9.58405e-04        00000 
 9.68091e-05 -7.38111e-04        00000 
 1.03482e-04 -5.73908e-04        00000 
 5.51324e-05 -4.32683e-04        00000 
 3.33429e-05 -3.02942e-04        00000 
 2.23452e-05 -2.05435e-04        00000 
 1.44882e-05 -1.39529e-04        00000 
 6.46432e-06 -9.51106e-05        00000 
-5.91224e-07 -6.60076e-05        00000 
-2.85774e-06 -5.49774e-05        00000 
-2.09788e-05  7.23322e-05        00000 
-6.73767e-06  7.35752e-05        00000 
 4.06296e-06  1.04675e-04        00000 
 1.32020e-05  1.58642e-04        00000 
 2.46866e-05  2.39285e-04        00000 
 3.96661e-05  3.56796e-04        00000 
 5.90169e-05  5.23268e-04        00000 
 8.24519e-05  7.48740e-04        00000 
 1.07621e-04  1.03716e-03        00000 
 1.29996e-04  1.38222e-03        00000 
 1.43613e-04  1.76421e-03        00000 
 1.42702e-04  2.14971e-03        00000 
 1.23748e-04  2.49520e-03        00000 
 8.72406e-05  2.75460e-03        00000 
 3.83283e-05  2.88889e-03        00000 
-1.39366e-05  2.87484e-03        00000 
-5.84151e-05  2.70966e-03        00000 
-8.45885e-05  2.40972e-03        00000 
-8.52351e-05  2.00625e-03        00000 
-8.12174e-05  1.55931e-03        00000 
-9.65894e-05  1.15814e-03        00000 
-1.14207e-04  8.48653e-04        00000 
-9.62386e-05  6.19064e-04        00000 
-6.29222e-05  4.44552e-04        00000 
-3.53294e-05  3.09497e-04        00000 
-1.94582e-05  2.09708e-04        00000 
-9.93474e-06  1.41529e-04        00000 
-3.88539e-06  9.74215e-05        00000 
-7.44202e-07  7.07966e-05        00000 
-1.34996e-06  5.68549e-05        00000 
 5.88011e-06 -6.89988e-05        00000 
 4.54843e-07 -8.16316e-05        00000 
-3.28355e-06 -1.10796e-04        00000 
-8.83899e-06 -1.62141e-04        00000 
-1.94179e-05 -2.43711e-04        00000 
-3.64413e-05 -3.66981e-04        00000 
-6.11703e-05 -5.46126e-04        00000 
-9.34680e-05 -7.94512e-04        00000 
-1.30306e-04 -1.11951e-03        00000 
-1.65127e-04 -1.51657e-03        00000 
-1.88709e-04 -1.96436e-03        00000 
-1.91640e-04 -2.42341e-03        00000 
-1.67710e-04 -2.84022e-03        00000 
-1.16872e-04 -3.15677e-03        00000 
-4.64034e-05 -3.32332e-03        00000 
 3.04014e-05 -3.31033e-03        00000 
 9.78001e-05 -3.11555e-03        00000 
 1.42580e-04 -2.76427e-03        00000 
 1.61450e-04 -2.30636e-03        00000 
 1.63734e-04 -1.81139e-03        00000 
 1.59985e-04 -1.35193e-03        00000 
 1.45290e-04 -9.72339e-04        00000 
 1.14470e-04 -6.82457e-04        00000 
 7.68966e-05 -4.70196e-04        00000 
 4.54072e-05 -3.17930e-04        00000 
 2.43462e-05 -2.11985e-04        00000 
 1.18911e-05 -1.41664e-04        00000 
 5.00807e-06 -9.75752e-05        00000 
 2.08330e-06 -7.18721e-05        00000 
 2.84187e-06 -5.73368e-05        00000 
-1.58177e-06  6.69745e-05        00000 
 1.35203e-06  8.24721e-05        00000 
 4.41374e-06  1.10826e-04        00000 
 1.07214e-05  1.61084e-04        00000 
 2.35134e-05  2.43879e-04        00000 
 4.57239e-05  3.73678e-04        00000 
 7.99016e-05  5.68934e-04        00000 
 1.26516e-04  8.48839e-04        00000 
 1.81651e-04  1.22681e-03        00000 
 2.35652e-04  1.70193e-03        00000 
 2.74146e-04  2.25101e-03        00000 
 2.81872e-04  2.82539e-03        00000 
 2.48271e-04  3.35542e-03        00000 
 1.72486e-04  3.76343e-03        00000 
 6.53812e-05  3.98183e-03        00000 
-5.26774e-05  3.97069e-03        00000 
-1.57818e-04  3.72858e-03        00000 