<?xml version="1.0" encoding="utf-8"?>
<VTKFile byte_order="LittleEndian" type="UnstructuredGrid" version="0.1">
   <UnstructuredGrid>
      <Piece NumberOfCells="3364" NumberOfPoints="1741">
         <Points>
            <DataArray Name="Points" NumberOfComponents="3" format="ascii" type="Float32">
0.0000 1.0000 0.0000
0.0000 1.0345 0.0000
0.0000 1.0690 0.0000
0.0000 1.1034 0.0000
0.0000 1.1379 0.0000
0.0000 1.1724 0.0000
0.0000 1.2069 0.0000
0.0000 1.2414 0.0000
0.0000 1.2759 0.0000
0.0000 1.3103 0.0000
0.0000 1.3448 0.0000
0.0000 1.3793 0.0000
0.0000 1.4138 0.0000
0.0000 1.4483 0.0000
0.0000 1.4828 0.0000
0.0000 1.5172 0.0000
0.0000 1.5517 0.0000
0.0000 1.5862 0.0000
0.0000 1.6207 0.0000
0.0000 1.6552 0.0000
0.0000 1.6897 0.0000
0.0000 1.7241 0.0000
0.0000 1.7586 0.0000
0.0000 1.7931 0.0000
0.0000 1.8276 0.0000
0.0000 1.8621 0.0000
0.0000 1.8966 0.0000
0.0000 1.9310 0.0000
0.0000 1.9655 0.0000
0.0000 2.0000 0.0000
0.0690 1.0000 0.0000
0.0690 1.0345 0.0000
0.0690 1.0690 0.0000
0.0690 1.1034 0.0000
0.0690 1.1379 0.0000
0.0690 1.1724 0.0000
0.0690 1.2069 0.0000
0.0690 1.2414 0.0000
0.0690 1.2759 0.0000
0.0690 1.3103 0.0000
0.0690 1.3448 0.0000
0.0690 1.3793 0.0000
0.0690 1.4138 0.0000
0.0690 1.4483 0.0000
0.0690 1.4828 0.0000
0.0690 1.5172 0.0000
0.0690 1.5517 0.0000
0.0690 1.5862 0.0000
0.0690 1.6207 0.0000
0.0690 1.6552 0.0000
0.0690 1.6897 0.0000
0.0690 1.7241 0.0000
0.0690 1.7586 0.0000
0.0690 1.7931 0.0000
0.0690 1.8276 0.0000
0.0690 1.8621 0.0000
0.0690 1.8966 0.0000
0.0690 1.9310 0.0000
0.0690 1.9655 0.0000
0.0690 2.0000 0.0000
0.1379 1.0000 0.0000
0.1379 1.0345 0.0000
0.1379 1.0690 0.0000
0.1379 1.1034 0.0000
0.1379 1.1379 0.0000
0.1379 1.1724 0.0000
0.1379 1.2069 0.0000
0.1379 1.2414 0.0000
0.1379 1.2759 0.0000
0.1379 1.3103 0.0000
0.1379 1.3448 0.0000
0.1379 1.3793 0.0000
0.1379 1.4138 0.0000
0.1379 1.4483 0.0000
0.1379 1.4828 0.0000
0.1379 1.5172 0.0000
0.1379 1.5517 0.0000
0.1379 1.5862 0.0000
0.1379 1.6207 0.0000
0.1379 1.6552 0.0000
0.1379 1.6897 0.0000
0.1379 1.7241 0.0000
0.1379 1.7586 0.0000
0.1379 1.7931 0.0000
0.1379 1.8276 0.0000
0.1379 1.8621 0.0000
0.1379 1.8966 0.0000
0.1379 1.9310 0.0000
0.1379 1.9655 0.0000
0.1379 2.0000 0.0000
0.2069 1.0000 0.0000
0.2069 1.0345 0.0000
0.2069 1.0690 0.0000
0.2069 1.1034 0.0000
0.2069 1.1379 0.0000
0.2069 1.1724 0.0000
0.2069 1.2069 0.0000
0.2069 1.2414 0.0000
0.2069 1.2759 0.0000
0.2069 1.3103 0.0000
0.2069 1.3448 0.0000
0.2069 1.3793 0.0000
0.2069 1.4138 0.0000
0.2069 1.4483 0.0000
0.2069 1.4828 0.0000
0.2069 1.5172 0.0000
0.2069 1.5517 0.0000
0.2069 1.5862 0.0000
0.2069 1.6207 0.0000
0.2069 1.6552 0.0000
0.2069 1.6897 0.0000
0.2069 1.7241 0.0000
0.2069 1.7586 0.0000
0.2069 1.7931 0.0000
0.2069 1.8276 0.0000
0.2069 1.8621 0.0000
0.2069 1.8966 0.0000
0.2069 1.9310 0.0000
0.2069 1.9655 0.0000
0.2069 2.0000 0.0000
0.2759 1.0000 0.0000
0.2759 1.0345 0.0000
0.2759 1.0690 0.0000
0.2759 1.1034 0.0000
0.2759 1.1379 0.0000
0.2759 1.1724 0.0000
0.2759 1.2069 0.0000
0.2759 1.2414 0.0000
0.2759 1.2759 0.0000
0.2759 1.3103 0.0000
0.2759 1.3448 0.0000
0.2759 1.3793 0.0000
0.2759 1.4138 0.0000
0.2759 1.4483 0.0000
0.2759 1.4828 0.0000
0.2759 1.5172 0.0000
0.2759 1.5517 0.0000
0.2759 1.5862 0.0000
0.2759 1.6207 0.0000
0.2759 1.6552 0.0000
0.2759 1.6897 0.0000
0.2759 1.7241 0.0000
0.2759 1.7586 0.0000
0.2759 1.7931 0.0000
0.2759 1.8276 0.0000
0.2759 1.8621 0.0000
0.2759 1.8966 0.0000
0.2759 1.9310 0.0000
0.2759 1.9655 0.0000
0.2759 2.0000 0.0000
0.3448 1.0000 0.0000
0.3448 1.0345 0.0000
0.3448 1.0690 0.0000
0.3448 1.1034 0.0000
0.3448 1.1379 0.0000
0.3448 1.1724 0.0000
0.3448 1.2069 0.0000
0.3448 1.2414 0.0000
0.3448 1.2759 0.0000
0.3448 1.3103 0.0000
0.3448 1.3448 0.0000
0.3448 1.3793 0.0000
0.3448 1.4138 0.0000
0.3448 1.4483 0.0000
0.3448 1.4828 0.0000
0.3448 1.5172 0.0000
0.3448 1.5517 0.0000
0.3448 1.5862 0.0000
0.3448 1.6207 0.0000
0.3448 1.6552 0.0000
0.3448 1.6897 0.0000
0.3448 1.7241 0.0000
0.3448 1.7586 0.0000
0.3448 1.7931 0.0000
0.3448 1.8276 0.0000
0.3448 1.8621 0.0000
0.3448 1.8966 0.0000
0.3448 1.9310 0.0000
0.3448 1.9655 0.0000
0.3448 2.0000 0.0000
0.4138 1.0000 0.0000
0.4138 1.0345 0.0000
0.4138 1.0690 0.0000
0.4138 1.1034 0.0000
0.4138 1.1379 0.0000
0.4138 1.1724 0.0000
0.4138 1.2069 0.0000
0.4138 1.2414 0.0000
0.4138 1.2759 0.0000
0.4138 1.3103 0.0000
0.4138 1.3448 0.0000
0.4138 1.3793 0.0000
0.4138 1.4138 0.0000
0.4138 1.4483 0.0000
0.4138 1.4828 0.0000
0.4138 1.5172 0.0000
0.4138 1.5517 0.0000
0.4138 1.5862 0.0000
0.4138 1.6207 0.0000
0.4138 1.6552 0.0000
0.4138 1.6897 0.0000
0.4138 1.7241 0.0000
0.4138 1.7586 0.0000
0.4138 1.7931 0.0000
0.4138 1.8276 0.0000
0.4138 1.8621 0.0000
0.4138 1.8966 0.0000
0.4138 1.9310 0.0000
0.4138 1.9655 0.0000
0.4138 2.0000 0.0000
0.4828 1.0000 0.0000
0.4828 1.0345 0.0000
0.4828 1.0690 0.0000
0.4828 1.1034 0.0000
0.4828 1.1379 0.0000
0.4828 1.1724 0.0000
0.4828 1.2069 0.0000
0.4828 1.2414 0.0000
0.4828 1.2759 0.0000
0.4828 1.3103 0.0000
0.4828 1.3448 0.0000
0.4828 1.3793 0.0000
0.4828 1.4138 0.0000
0.4828 1.4483 0.0000
0.4828 1.4828 0.0000
0.4828 1.5172 0.0000
0.4828 1.5517 0.0000
0.4828 1.5862 0.0000
0.4828 1.6207 0.0000
0.4828 1.6552 0.0000
0.4828 1.6897 0.0000
0.4828 1.7241 0.0000
0.4828 1.7586 0.0000
0.4828 1.7931 0.0000
0.4828 1.8276 0.0000
0.4828 1.8621 0.0000
0.4828 1.8966 0.0000
0.4828 1.9310 0.0000
0.4828 1.9655 0.0000
0.4828 2.0000 0.0000
0.5517 1.0000 0.0000
0.5517 1.0345 0.0000
0.5517 1.0690 0.0000
0.5517 1.1034 0.0000
0.5517 1.1379 0.0000
0.5517 1.1724 0.0000
0.5517 1.2069 0.0000
0.5517 1.2414 0.0000
0.5517 1.2759 0.0000
0.5517 1.3103 0.0000
0.5517 1.3448 0.0000
0.5517 1.3793 0.0000
0.5517 1.4138 0.0000
0.5517 1.4483 0.0000
0.5517 1.4828 0.0000
0.5517 1.5172 0.0000
0.5517 1.5517 0.0000
0.5517 1.5862 0.0000
0.5517 1.6207 0.0000
0.5517 1.6552 0.0000
0.5517 1.6897 0.0000
0.5517 1.7241 0.0000
0.5517 1.7586 0.0000
0.5517 1.7931 0.0000
0.5517 1.8276 0.0000
0.5517 1.8621 0.0000
0.5517 1.8966 0.0000
0.5517 1.9310 0.0000
0.5517 1.9655 0.0000
0.5517 2.0000 0.0000
0.6207 1.0000 0.0000
0.6207 1.0345 0.0000
0.6207 1.0690 0.0000
0.6207 1.1034 0.0000
0.6207 1.1379 0.0000
0.6207 1.1724 0.0000
0.6207 1.2069 0.0000
0.6207 1.2414 0.0000
0.6207 1.2759 0.0000
0.6207 1.3103 0.0000
0.6207 1.3448 0.0000
0.6207 1.3793 0.0000
0.6207 1.4138 0.0000
0.6207 1.4483 0.0000
0.6207 1.4828 0.0000
0.6207 1.5172 0.0000
0.6207 1.5517 0.0000
0.6207 1.5862 0.0000
0.6207 1.6207 0.0000
0.6207 1.6552 0.0000
0.6207 1.6897 0.0000
0.6207 1.7241 0.0000
0.6207 1.7586 0.0000
0.6207 1.7931 0.0000
0.6207 1.8276 0.0000
0.6207 1.8621 0.0000
0.6207 1.8966 0.0000
0.6207 1.9310 0.0000
0.6207 1.9655 0.0000
0.6207 2.0000 0.0000
0.6897 1.0000 0.0000
0.6897 1.0345 0.0000
0.6897 1.0690 0.0000
0.6897 1.1034 0.0000
0.6897 1.1379 0.0000
0.6897 1.1724 0.0000
0.6897 1.2069 0.0000
0.6897 1.2414 0.0000
0.6897 1.2759 0.0000
0.6897 1.3103 0.0000
0.6897 1.3448 0.0000
0.6897 1.3793 0.0000
0.6897 1.4138 0.0000
0.6897 1.4483 0.0000
0.6897 1.4828 0.0000
0.6897 1.5172 0.0000
0.6897 1.5517 0.0000
0.6897 1.5862 0.0000
0.6897 1.6207 0.0000
0.6897 1.6552 0.0000
0.6897 1.6897 0.0000
0.6897 1.7241 0.0000
0.6897 1.7586 0.0000
0.6897 1.7931 0.0000
0.6897 1.8276 0.0000
0.6897 1.8621 0.0000
0.6897 1.8966 0.0000
0.6897 1.9310 0.0000
0.6897 1.9655 0.0000
0.6897 2.0000 0.0000
0.7586 1.0000 0.0000
0.7586 1.0345 0.0000
0.7586 1.0690 0.0000
0.7586 1.1034 0.0000
0.7586 1.1379 0.0000
0.7586 1.1724 0.0000
0.7586 1.2069 0.0000
0.7586 1.2414 0.0000
0.7586 1.2759 0.0000
0.7586 1.3103 0.0000
0.7586 1.3448 0.0000
0.7586 1.3793 0.0000
0.7586 1.4138 0.0000
0.7586 1.4483 0.0000
0.7586 1.4828 0.0000
0.7586 1.5172 0.0000
0.7586 1.5517 0.0000
0.7586 1.5862 0.0000
0.7586 1.6207 0.0000
0.7586 1.6552 0.0000
0.7586 1.6897 0.0000
0.7586 1.7241 0.0000
0.7586 1.7586 0.0000
0.7586 1.7931 0.0000
0.7586 1.8276 0.0000
0.7586 1.8621 0.0000
0.7586 1.8966 0.0000
0.7586 1.9310 0.0000
0.7586 1.9655 0.0000
0.7586 2.0000 0.0000
0.8276 1.0000 0.0000
0.8276 1.0345 0.0000
0.8276 1.0690 0.0000
0.8276 1.1034 0.0000
0.8276 1.1379 0.0000
0.8276 1.1724 0.0000
0.8276 1.2069 0.0000
0.8276 1.2414 0.0000
0.8276 1.2759 0.0000
0.8276 1.3103 0.0000
0.8276 1.3448 0.0000
0.8276 1.3793 0.0000
0.8276 1.4138 0.0000
0.8276 1.4483 0.0000
0.8276 1.4828 0.0000
0.8276 1.5172 0.0000
0.8276 1.5517 0.0000
0.8276 1.5862 0.0000
0.8276 1.6207 0.0000
0.8276 1.6552 0.0000
0.8276 1.6897 0.0000
0.8276 1.7241 0.0000
0.8276 1.7586 0.0000
0.8276 1.7931 0.0000
0.8276 1.8276 0.0000
0.8276 1.8621 0.0000
0.8276 1.8966 0.0000
0.8276 1.9310 0.0000
0.8276 1.9655 0.0000
0.8276 2.0000 0.0000
0.8966 1.0000 0.0000
0.8966 1.0345 0.0000
0.8966 1.0690 0.0000
0.8966 1.1034 0.0000
0.8966 1.1379 0.0000
0.8966 1.1724 0.0000
0.8966 1.2069 0.0000
0.8966 1.2414 0.0000
0.8966 1.2759 0.0000
0.8966 1.3103 0.0000
0.8966 1.3448 0.0000
0.8966 1.3793 0.0000
0.8966 1.4138 0.0000
0.8966 1.4483 0.0000
0.8966 1.4828 0.0000
0.8966 1.5172 0.0000
0.8966 1.5517 0.0000
0.8966 1.5862 0.0000
0.8966 1.6207 0.0000
0.8966 1.6552 0.0000
0.8966 1.6897 0.0000
0.8966 1.7241 0.0000
0.8966 1.7586 0.0000
0.8966 1.7931 0.0000
0.8966 1.8276 0.0000
0.8966 1.8621 0.0000
0.8966 1.8966 0.0000
0.8966 1.9310 0.0000
0.8966 1.9655 0.0000
0.8966 2.0000 0.0000
0.9655 1.0000 0.0000
0.9655 1.0345 0.0000
0.9655 1.0690 0.0000
0.9655 1.1034 0.0000
0.9655 1.1379 0.0000
0.9655 1.1724 0.0000
0.9655 1.2069 0.0000
0.9655 1.2414 0.0000
0.9655 1.2759 0.0000
0.9655 1.3103 0.0000
0.9655 1.3448 0.0000
0.9655 1.3793 0.0000
0.9655 1.4138 0.0000
0.9655 1.4483 0.0000
0.9655 1.4828 0.0000
0.9655 1.5172 0.0000
0.9655 1.5517 0.0000
0.9655 1.5862 0.0000
0.9655 1.6207 0.0000
0.9655 1.6552 0.0000
0.9655 1.6897 0.0000
0.9655 1.7241 0.0000
0.9655 1.7586 0.0000
0.9655 1.7931 0.0000
0.9655 1.8276 0.0000
0.9655 1.8621 0.0000
0.9655 1.8966 0.0000
0.9655 1.9310 0.0000
0.9655 1.9655 0.0000
0.9655 2.0000 0.0000
1.0345 1.0000 0.0000
1.0345 1.0345 0.0000
1.0345 1.0690 0.0000
1.0345 1.1034 0.0000
1.0345 1.1379 0.0000
1.0345 1.1724 0.0000
1.0345 1.2069 0.0000
1.0345 1.2414 0.0000
1.0345 1.2759 0.0000
1.0345 1.3103 0.0000
1.0345 1.3448 0.0000
[...]
         <PointData>
            <DataArray Name="fValues" NumberOfComponents="3" format="ascii" type="Float64">
 2.44019e-21 -8.50309e-22        00000 
-3.59338e-22 -3.59338e-22        00000 
 1.59903e-21  5.33011e-22        00000 
 4.46460e-23  8.37112e-24        00000 
-4.44176e-22 -6.66264e-22        00000 
 2.51707e-21  3.88304e-22        00000 
-1.06602e-21  5.33011e-22        00000 
-5.58074e-23  1.03244e-22        00000 
 6.21846e-22  1.44357e-22        00000 
 7.12716e-22  3.53557e-23        00000 
-4.88593e-22  6.66264e-23        00000 
 2.82176e-22  1.59051e-22        00000 
-7.77308e-23 -8.88352e-23        00000 
 6.86412e-23 -4.57813e-23        00000 
-2.22088e-22  2.66506e-22        00000 
 2.24974e-22 -2.09278e-23        00000 
-1.77670e-22  2.60953e-22        00000 
-3.40561e-22 -1.60589e-23        00000 
-2.22088e-22        00000        00000 
 1.39519e-22  1.11615e-22        00000 
 8.88352e-22 -8.88352e-23        00000 
-1.77750e-21  4.94353e-22        00000 
-8.88352e-23  5.77429e-22        00000 
-1.18312e-21  8.67806e-22        00000 
-3.55341e-22  7.99517e-22        00000 
-4.37352e-22 -2.33750e-22        00000 
 2.66506e-22 -6.21846e-22        00000 
-2.46011e-22  7.26850e-22        00000 
-1.11996e-21 -6.04781e-22        00000 
 7.50063e-22 -3.13931e-21        00000 
 1.46830e-05  1.31619e-05        00000 
 1.04634e-05  1.02098e-05        00000 
 8.56348e-06  8.30282e-06        00000 
 7.40927e-06  6.94317e-06        00000 
 6.61836e-06  5.84099e-06        00000 
 6.01368e-06  4.84394e-06        00000 
 5.48901e-06  3.87721e-06        00000 
 4.97230e-06  2.91427e-06        00000 
 4.41359e-06  1.96016e-06        00000 
 3.78040e-06  1.04037e-06        00000 
 3.05547e-06  1.92549e-07        00000 
 2.23521e-06 -5.40343e-07        00000 
 1.32809e-06 -1.11569e-06        00000 
 3.52822e-07 -1.49605e-06        00000 
-6.63895e-07 -1.65298e-06        00000 
-1.68996e-06 -1.56999e-06        00000 
-2.69080e-06 -1.24433e-06        00000 
-3.63247e-06 -6.87667e-07        00000 
-4.48500e-06  7.45736e-08        00000 
-5.22563e-06  1.00511e-06        00000 
-5.84205e-06  2.05818e-06        00000 
-6.33543e-06  3.18429e-06        00000 
-6.72320e-06  4.33656e-06        00000 
-7.04190e-06  5.47882e-06        00000 
-7.35070e-06  6.59589e-06        00000 
-7.73780e-06  7.70744e-06        00000 
-8.33590e-06  8.88869e-06        00000 
-9.36805e-06  1.03061e-05        00000 
-1.13132e-05  1.22902e-05        00000 
-1.60901e-05  1.54255e-05        00000 
 2.52487e-05  2.20846e-05        00000 
 2.11196e-05  1.99723e-05        00000 
 1.79603e-05  1.78071e-05        00000 
 1.58411e-05  1.58206e-05        00000 
 1.43740e-05  1.39549e-05        00000 
 1.32699e-05  1.21301e-05        00000 
 1.23124e-05  1.02994e-05        00000 
 1.13386e-05  8.45620e-06        00000 
 1.02305e-05  6.62847e-06        00000 
 8.90979e-06  4.86984e-06        00000 
 7.33507e-06  3.25029e-06        00000 
 5.49895e-06  1.84693e-06        00000 
 3.42447e-06  7.35460e-07        00000 
 1.16072e-06 -1.75074e-08        00000 
-1.22258e-06 -3.60893e-07        00000 
-3.64156e-06 -2.64083e-07        00000 
-6.00551e-06  2.79909e-07        00000 
-8.22474e-06  1.25325e-06        00000 
-1.02189e-05  2.61422e-06        00000 
-1.19252e-05  4.30031e-06        00000 
-1.33067e-05  6.23344e-06        00000 
-1.43597e-05  8.32744e-06        00000 
-1.51207e-05  1.04974e-05        00000 
-1.56731e-05  1.26712e-05        00000 
-1.61530e-05  1.48018e-05        00000 
-1.67566e-05  1.68807e-05        00000 
-1.77537e-05  1.89466e-05        00000 
-1.95114e-05  2.10813e-05        00000 
-2.25320e-05  2.33451e-05        00000 
-2.68090e-05  2.54585e-05        00000 
 3.41454e-05  3.15844e-05        00000 
 2.97995e-05  2.97647e-05        00000 
 2.65672e-05  2.79042e-05        00000 
 2.42658e-05  2.58871e-05        00000 
 2.26648e-05  2.37027e-05        00000 
 2.14557e-05  2.13454e-05        00000 
 2.03499e-05  1.88307e-05        00000 
 1.91066e-05  1.62042e-05        00000 
 1.75416e-05  1.35410e-05        00000 
 1.55308e-05  1.09397e-05        00000 
 1.30097e-05  8.51408e-06        00000 
 9.97200e-06  6.38400e-06        00000 
 6.46460e-06  4.66483e-06        00000 
 2.58139e-06  3.45791e-06        00000 
-1.54604e-06  2.84175e-06        00000 
-5.75967e-06  2.86513e-06        00000 
-9.88819e-06  3.54256e-06        00000 
-1.37611e-05  4.85255e-06        00000 
-1.72235e-05  6.73861e-06        00000 
-2.01504e-05  9.11306e-06        00000 
-2.24607e-05  1.18632e-05        00000 
-2.41304e-05  1.48596e-05        00000 
-2.52031e-05  1.79665e-05        00000 
-2.58001e-05  2.10533e-05        00000 
-2.61255e-05  2.40076e-05        00000 
-2.64670e-05  2.67461e-05        00000 
-2.71862e-05  2.92208e-05        00000 
-2.86848e-05  3.14130e-05        00000 
-3.12853e-05  3.33150e-05        00000 
-3.52519e-05  3.50432e-05        00000 
 4.10311e-05  4.18578e-05        00000 
 3.66328e-05  4.05625e-05        00000 
 3.37677e-05  3.90535e-05        00000 
 3.20427e-05  3.71860e-05        00000 
 3.10358e-05  3.48946e-05        00000 
 3.03385e-05  3.21877e-05        00000 
 2.95715e-05  2.91205e-05        00000 
 2.84115e-05  2.57857e-05        00000 
 2.66073e-05  2.23071e-05        00000 
 2.39878e-05  1.88337e-05        00000 
 2.04674e-05  1.55320e-05        00000 
 1.60462e-05  1.25747e-05        00000 
 1.08076e-05  1.01289e-05        00000 
 4.90991e-06  8.34252e-06        00000 
-1.42666e-06  7.33156e-06        00000 
-7.93802e-06  7.17009e-06        00000 
-1.43375e-05  7.88373e-06        00000 
-2.03389e-05  9.44758e-06        00000 
-2.56795e-05  1.17884e-05        00000 
-3.01417e-05  1.47899e-05        00000 
-3.35727e-05  1.83006e-05        00000 
-3.59022e-05  2.21424e-05        00000 
-3.71579e-05  2.61209e-05        00000 
-3.74782e-05  3.00363e-05        00000 
-3.71218e-05  3.36955e-05        00000 
-3.64651e-05  3.69305e-05        00000 
-3.59876e-05  3.96135e-05        00000 
-3.62332e-05  4.16840e-05        00000 
-3.77754e-05  4.31853e-05        00000 
-4.11508e-05  4.42763e-05        00000 
 4.47775e-05  5.24669e-05        00000 
 4.09541e-05  5.19250e-05        00000 
 3.92295e-05  5.09404e-05        00000 
 3.88990e-05  4.93498e-05        00000 
 3.93068e-05  4.71006e-05        00000 
 3.98658e-05  4.42143e-05        00000 
 4.00681e-05  4.07646e-05        00000 
 3.94891e-05  3.68662e-05        00000 
 3.77948e-05  3.26709e-05        00000 
 3.47524e-05  2.83657e-05        00000 
 3.02422e-05  2.41670e-05        00000 
 2.42674e-05  2.03090e-05        00000 
 1.69571e-05  1.70253e-05        00000 
 8.55921e-06  1.45275e-05        00000 
-5.77687e-07  1.29839e-05        00000 
-1.00338e-05  1.25023e-05        00000 
-1.93537e-05  1.31205e-05        00000 
-2.80854e-05  1.48049e-05        00000 
-3.58156e-05  1.74573e-05        00000 
-4.22002e-05  2.09269e-05        00000 
-4.69876e-05  2.50238e-05        00000 
-5.00361e-05  2.95300e-05        00000 
-5.13303e-05  3.42068e-05        00000 
-5.09992e-05  3.88003e-05        00000 
-4.93291e-05  4.30505e-05        00000 
-4.67906e-05  4.66979e-05        00000 
-4.40334e-05  4.95304e-05        00000 
-4.18749e-05  5.14099e-05        00000 
-4.12618e-05  5.23414e-05        00000 
-4.31865e-05  5.25212e-05        00000 
 4.39054e-05  6.17409e-05        00000 
 4.18814e-05  6.22455e-05        00000 
 4.24527e-05  6.20011e-05        00000 
 4.45458e-05  6.09327e-05        00000 
 4.72711e-05  5.90541e-05        00000 
 4.98948e-05  5.64068e-05        00000 
 5.17962e-05  5.30467e-05        00000 
 5.24432e-05  4.90509e-05        00000 
 5.13861e-05  4.45415e-05        00000 
 4.82800e-05  3.97034e-05        00000 
 4.29208e-05  3.47879e-05        00000 
 3.52807e-05  3.00984e-05        00000 
 2.55311e-05  2.59589e-05        00000 
 1.40421e-05  2.26737e-05        00000 
 1.35415e-06  2.04866e-05        00000 
-1.18721e-05  1.95490e-05        00000 
-2.49228e-05  1.99035e-05        00000 
-3.71014e-05  2.14860e-05        00000 
-4.77909e-05  2.41452e-05        00000 
-5.64976e-05  2.76740e-05        00000 
-6.28715e-05  3.18430e-05        00000 
-6.67071e-05  3.64242e-05        00000 
-6.79372e-05  4.11951e-05        00000 
-6.66422e-05  4.59221e-05        00000 
-6.30905e-05  5.03379e-05        00000 
-5.77454e-05  5.41531e-05        00000 
-5.14079e-05  5.69934e-05        00000 
-4.52258e-05  5.85833e-05        00000 
-4.06427e-05  5.87540e-05        00000 
-3.93906e-05  5.76187e-05        00000 
 3.69077e-05  6.63089e-05        00000 
 3.86702e-05  6.80880e-05        00000 
 4.29637e-05  6.88356e-05        00000 
 4.84558e-05  6.87858e-05        00000 
 5.42361e-05  6.80827e-05        00000 
 5.96189e-05  6.67511e-05        00000 
 6.39948e-05  6.47010e-05        00000 
 6.67287e-05  6.18271e-05        00000 
 6.71704e-05  5.80948e-05        00000 
 6.47252e-05  5.36053e-05        00000 
 5.89643e-05  4.86158e-05        00000 
 4.97294e-05  4.35131e-05        00000 
 3.72021e-05  3.87539e-05        00000 
 2.19185e-05  3.47857e-05        00000 
 4.72478e-06  3.19675e-05        00000 
-1.33196e-05  3.05069e-05        00000 
-3.10739e-05  3.04286e-05        00000 
-4.74571e-05  3.15822e-05        00000 
-6.15696e-05  3.36885e-05        00000 
-7.27710e-05  3.64136e-05        00000 
-8.06947e-05  3.94541e-05        00000 
-8.51989e-05  4.26060e-05        00000 
-8.62712e-05  4.57912e-05        00000 
-8.39378e-05  4.90108e-05        00000 
-7.82706e-05  5.22173e-05        00000 
-6.96332e-05  5.51659e-05        00000 
-5.84960e-05  5.76105e-05        00000 
-4.61235e-05  5.87131e-05        00000 
-3.47901e-05  5.79510e-05        00000 
-2.71496e-05  5.50955e-05        00000 
 2.33433e-05  6.03948e-05        00000 
 3.15178e-05  6.32903e-05        00000 
 4.05533e-05  6.52920e-05        00000 
 4.95295e-05  6.72372e-05        00000 
 5.82238e-05  6.94931e-05        00000 
 6.65759e-05  7.18091e-05        00000 
 7.41930e-05  7.36649e-05        00000 
 8.02902e-05  7.44836e-05        00000 
 8.37631e-05  7.38662e-05        00000 
 8.34398e-05  7.17101e-05        00000 
 7.83621e-05  6.82295e-05        00000 
 6.80243e-05  6.39037e-05        00000 
 5.25314e-05  5.93708e-05        00000 
 3.26487e-05  5.52879e-05        00000 
 9.72960e-06  5.21837e-05        00000 
-1.44707e-05  5.03386e-05        00000 
-3.80597e-05  4.97207e-05        00000 
-5.92985e-05  4.99973e-05        00000 
-7.68553e-05  5.06226e-05        00000 
-8.99663e-05  5.09859e-05        00000 
-9.84616e-05  5.05889e-05        00000 
-1.02640e-04  4.92157e-05        00000 
-1.03002e-04  4.70509e-05        00000 
-9.98660e-05  4.46889e-05        00000 
-9.30014e-05  4.29411e-05        00000 
-8.15699e-05  4.23152e-05        00000 
-6.60326e-05  4.20763e-05        00000 
-4.60392e-05  4.26083e-05        00000 
-2.30615e-05  4.11834e-05        00000 
-3.43736e-06  3.59977e-05        00000 
 6.50074e-06  3.55047e-05        00000 
 2.32053e-05  3.84784e-05        00000 
 3.55280e-05  4.18131e-05        00000 
 4.51965e-05  4.77583e-05        00000 
 5.46797e-05  5.62233e-05        00000 
 6.52614e-05  6.62864e-05        00000 
 7.69686e-05  7.64512e-05        00000 
 8.84385e-05  8.53896e-05        00000 
 9.75447e-05  9.21827e-05        00000 
 1.01978e-04  9.63796e-05        00000 
 9.97450e-05  9.80046e-05        00000 
 8.96036e-05  9.75075e-05        00000 
 7.13883e-05  9.56360e-05        00000 
 4.61526e-05  9.32336e-05        00000 
 1.60729e-05  9.10033e-05        00000 
-1.58916e-05  8.92977e-05        00000 
-4.65184e-05  8.79960e-05        00000 
-7.29089e-05  8.65093e-05        00000 
-9.30050e-05  8.39149e-05        00000 
-1.05918e-04  7.91911e-05        00000 
-1.11999e-04  7.14965e-05        00000 
-1.12630e-04  6.04471e-05        00000 
-1.09758e-04  4.63593e-05        00000 
-1.05183e-04  3.04489e-05        00000 
-9.95138e-05  1.49497e-05        00000 
-9.07602e-05  2.87229e-06        00000 
-7.20795e-05 -3.42020e-06        00000 
-4.66082e-05 -1.03851e-05        00000 
-1.20843e-05 -1.21384e-05        00000 
 3.51823e-05 -1.58458e-05        00000 
 1.16560e-07 -1.60732e-05        00000 
 2.15927e-05 -1.69354e-05        00000 
 2.79509e-05 -1.14782e-05        00000 
 3.03712e-05  9.10085e-07        00000 
 3.55268e-05  1.96881e-05        00000 
 4.69718e-05  4.18389e-05        00000 
 6.36923e-05  6.52053e-05        00000 
 8.28413e-05  8.82486e-05        00000 
 1.00767e-04  1.09670e-04        00000 
 1.13538e-04  1.28378e-04        00000 
 1.17546e-04  1.43615e-04        00000 
 1.10221e-04  1.55078e-04        00000 
 9.07138e-05  1.62911e-04        00000 
 6.02928e-05  1.67549e-04        00000 
 2.22905e-05  1.69463e-04        00000 
-1.84653e-05  1.68888e-04        00000 
-5.66190e-05  1.65649e-04        00000 
-8.74101e-05  1.59142e-04        00000 
-1.07649e-04  1.48484e-04        00000 
-1.16301e-04  1.32749e-04        00000 
-1.14563e-04  1.11217e-04        00000 
-1.05474e-04  8.35415e-05        00000 
-9.32347e-05  4.98437e-05        00000 
-8.23797e-05  1.08380e-05        00000 
-7.68300e-05 -3.17384e-05        00000 
-7.80672e-05 -7.38714e-05        00000 
-8.14530e-05 -1.07005e-04        00000 
-4.42109e-05 -1.13086e-04        00000 
 7.75721e-06 -1.43126e-04        00000 
 7.69578e-05 -1.72346e-04        00000 
 3.97297e-05 -8.72684e-05        00000 
 3.92142e-05 -9.59036e-05        00000 
 1.81273e-05 -9.29365e-05        00000 
-1.29812e-06 -7.46550e-05        00000 
-4.12151e-06 -5.01425e-05        00000 
 6.25157e-06 -2.01965e-05        00000 
 2.58673e-05  1.61158e-05        00000 
 5.10006e-05  5.88528e-05        00000 
 7.73107e-05  1.06773e-04        00000 
 9.96786e-05  1.57480e-04        00000 
 1.12807e-04  2.07755e-04        00000 
 1.12348e-04  2.54006e-04        00000 
 9.61655e-05  2.92733e-04        00000 
 6.52550e-05  3.20946e-04        00000 
 2.38849e-05  3.36478e-04        00000 
-2.11965e-05  3.38170e-04        00000 
-6.23225e-05  3.25949e-04        00000 
-9.27647e-05  3.00798e-04        00000 
-1.08300e-04  2.64623e-04        00000 
-1.08018e-04  2.19984e-04        00000 
-9.41990e-05  1.69660e-04        00000 
-7.14265e-05  1.16051e-04        00000 
-4.53655e-05  6.04146e-05        00000 
-2.16865e-05  1.96412e-06        00000 
-5.51810e-06 -6.31339e-05        00000 
-1.96976e-06 -1.42730e-04        00000 
-1.50924e-05 -2.47608e-04        00000 
-6.80637e-05 -3.85705e-04        00000 
 5.22255e-05 -3.64998e-04        00000 
-1.09431e-04 -2.40134e-04        00000 
 1.78478e-04 -6.92200e-05        00000 
 1.11140e-04 -1.24927e-04        00000 
 1.53168e-05 -1.49861e-04        00000 
-2.51071e-05 -1.74419e-04        00000 
-4.05249e-05 -1.85744e-04        00000 
-4.24269e-05 -1.76502e-04        00000 
-3.53928e-05 -1.42451e-04        00000 
-2.21308e-05 -8.00658e-05        00000 
-5.31061e-06  1.22975e-05        00000 
 1.18629e-05  1.32349e-04        00000 
 2.57987e-05  2.72309e-04        00000 
 3.32121e-05  4.18659e-04        00000 
 3.20671e-05  5.53665e-04        00000 
 2.23537e-05  6.58545e-04        00000 
 6.32192e-06  7.17562e-04        00000 
-1.20097e-05  7.21816e-04        00000 
-2.79563e-05  6.71529e-04        00000 
-3.75074e-05  5.76058e-04        00000 
-3.84297e-05  4.51637e-04        00000 
-3.07606e-05  3.17601e-04        00000 
-1.65758e-05  1.92320e-04        00000 
 7.93924e-07  9.00195e-05        00000 
 1.77299e-05  1.92034e-05        00000 
 3.11222e-05 -1.73026e-05        00000 
 3.87730e-05 -2.14551e-05        00000 
 4.00188e-05 -7.46547e-08        00000 
 3.19907e-05  2.82066e-05        00000 
 4.87175e-05  4.96645e-06        00000 
-9.76460e-05  3.30103e-05        00000 
-5.18156e-05  6.58159e-05        00000 
 1.26550e-04 -9.04106e-05        00000 
 5.76392e-05 -3.04450e-05        00000 
-5.11076e-06 -6.02804e-05        00000 
-4.53576e-05 -1.17728e-04        00000 
-7.80478e-05 -1.94300e-04        00000 
-1.09035e-04 -3.00990e-04        00000 
-1.41013e-04 -4.50331e-04        00000 
-1.73305e-04 -6.51239e-04        00000 
-2.02436e-04 -9.06514e-04        00000 
-2.22876e-04 -1.20989e-03        00000 
-2.28298e-04 -1.54380e-03        00000 
-2.13324e-04 -1.87950e-03        00000 
-1.75418e-04 -2.18033e-03        00000 
-1.16258e-04 -2.40809e-03        00000 
-4.20296e-05 -2.53096e-03        00000 
 3.76315e-05 -2.53085e-03        00000 
 1.11797e-04 -2.40775e-03        00000 
 1.70820e-04 -2.17970e-03        00000 
 2.08489e-04 -1.87848e-03        00000 
 2.23080e-04 -1.54221e-03        00000 
 2.17063e-04 -1.20746e-03        00000 
 1.95710e-04 -9.02851e-04        00000 
 1.65194e-04 -6.45729e-04        00000 
 1.30833e-04 -4.42015e-04        00000 
 9.57742e-05 -2.88201e-04        00000 
 6.12433e-05 -1.73804e-04        00000 
 2.26076e-05 -8.38747e-05        00000 
 2.12755e-05 -3.18732e-05        00000 
 3.24622e-05 -1.64822e-05        00000 
 6.02722e-05 -2.56460e-06        00000 
-3.43599e-05  8.29271e-05        00000 
-1.08895e-05  7.62812e-05        00000 
 1.87424e-06  1.05069e-04        00000 
 1.02306e-05  1.59867e-04        00000 
 2.22324e-05  2.42992e-04        00000 
 3.77301e-05  3.62845e-04        00000 
 5.73162e-05  5.31335e-04        00000 
 8.07194e-05  7.58741e-04        00000 
 1.05646e-04  1.04925e-03        00000 
 1.27590e-04  1.39677e-03        00000 
 1.40577e-04  1.78181e-03        00000 
 1.38787e-04  2.17124e-03        00000 
 1.18612e-04  2.52192e-03        00000 
 8.03671e-05  2.78830e-03        00000 
 2.88745e-05  2.93215e-03        00000 
-2.74702e-05  2.93161e-03        00000 
-7.89123e-05  2.78665e-03        00000 
-1.17050e-04  2.51903e-03        00000 
-1.37047e-04  2.16690e-03        00000 
-1.38564e-04  1.77568e-03        00000 
-1.25172e-04  1.38835e-03        00000 
-1.02633e-04  1.03787e-03        00000 
-7.68226e-05  7.43405e-04        00000 
-5.20797e-05  5.10621e-04        00000 
-3.05479e-05  3.34655e-04        00000 
-1.23287e-05  2.04664e-04        00000 
-1.34077e-06  1.12275e-04        00000 
-1.26367e-06  5.60546e-05        00000 
-1.26051e-05  3.05624e-05        00000 
-3.64751e-05  1.70243e-05        00000 
 1.11094e-05 -7.49340e-05        00000 
 7.25686e-07 -8.54037e-05        00000 
-3.50143e-06 -1.13490e-04        00000 
-8.10357e-06 -1.64873e-04        00000 
-1.82782e-05 -2.47687e-04        00000 
-3.53337e-05 -3.72654e-04        00000 
-6.01307e-05 -5.53520e-04        00000 
-9.24067e-05 -8.03653e-04        00000 
-1.29113e-04 -1.13057e-03        00000 
-1.63687e-04 -1.52990e-03        00000 
-1.86890e-04 -1.98050e-03        00000 
-1.89270e-04 -2.44317e-03        00000 
-1.64542e-04 -2.86475e-03        00000 
-1.12522e-04 -3.18770e-03        00000 
-4.02244e-05 -3.36304e-03        00000 
 3.95545e-05 -3.36254e-03        00000 
 1.11813e-04 -3.18616e-03        00000 
 1.63750e-04 -2.86206e-03        00000 
 1.88341e-04 -2.43914e-03        00000 
 1.85754e-04 -1.97481e-03        00000 
 1.62247e-04 -1.52212e-03        00000 
 1.27226e-04 -1.12008e-03        00000 
 8.98618e-05 -7.89562e-04        00000 
 5.66327e-05 -5.34592e-04        00000 
 3.05622e-05 -3.47291e-04        00000 
 1.25303e-05 -2.14655e-04        00000 
 2.80727e-06 -1.24921e-04        00000 
 8.12619e-07 -6.99560e-05        00000 
 5.97049e-06 -4.19847e-05        00000 
 2.66032e-05 -2.80787e-05        00000 
-4.34068e-06  7.07805e-05        00000 
 1.44583e-06  8.58168e-05        00000 
 4.80527e-06  1.13752e-04        00000 
 1.05197e-05  1.63968e-04        00000 
 2.28976e-05  2.47443e-04        00000 
 4.49776e-05  3.78398e-04        00000 
 7.91373e-05  5.74995e-04        00000 
 1.25717e-04  8.56346e-04        00000 
 1.80751e-04  1.23594e-03        00000 
 2.34568e-04  1.71298e-03        00000 
 2.72770e-04  2.26446e-03        00000 
 2.80063e-04  2.84192e-03        00000 
 2.45821e-04  3.37602e-03        00000 
 1.69064e-04  3.78951e-03        00000 
 6.04426e-05  4.01550e-03        00000 
-5.99897e-05  4.01507e-03        00000 
-1.68579e-04  3.78822e-03        00000 