<?xml version="1.0" encoding="utf-8"?>
<VTKFile byte_order="LittleEndian" type="UnstructuredGrid" version="0.1">
   <UnstructuredGrid>
      <Piece NumberOfCells="3364" NumberOfPoints="1741">
         <Points>
            <DataArray Name="Points" NumberOfComponents="3" format="ascii" type="Float32">
0.0000 1.0000 0.0000
0.0000 1.0345 0.0000
0.0000 1.0690 0.0000
0.0000 1.1034 0.0000
0.0000 1.1379 0.0000
0.0000 1.1724 0.0000
0.0000 1.2069 0.0000
0.0000 1.2414 0.0000
0.0000 1.2759 0.0000
0.0000 1.3103 0.0000
0.0000 1.3448 0.0000
0.0000 1.3793 0.0000
0.0000 1.4138 0.0000
0.0000 1.4483 0.0000
0.0000 1.4828 0.0000
0.0000 1.5172 0.0000
0.0000 1.5517 0.0000
0.0000 1.5862 0.0000
0.0000 1.6207 0.0000
0.0000 1.6552 0.0000
0.0000 1.6897 0.0000
0.0000 1.7241 0.0000
0.0000 1.7586 0.0000
0.0000 1.7931 0.0000
0.0000 1.8276 0.0000
0.0000 1.8621 0.0000
0.0000 1.8966 0.0000
0.0000 1.9310 0.0000
0.0000 1.9655 0.0000
0.0000 2.0000 0.0000
0.0690 1.0000 0.0000
0.0690 1.0345 0.0000
0.0690 1.0690 0.0000
0.0690 1.1034 0.0000
0.0690 1.1379 0.0000
0.0690 1.1724 0.0000
0.0690 1.2069 0.0000
0.0690 1.2414 0.0000
0.0690 1.2759 0.0000
0.0690 1.3103 0.0000
0.0690 1.3448 0.0000
0.0690 1.3793 0.0000
0.0690 1.4138 0.0000
0.0690 1.4483 0.0000
0.0690 1.4828 0.0000
0.0690 1.5172 0.0000
0.0690 1.5517 0.0000
0.0690 1.5862 0.0000
0.0690 1.6207 0.0000
0.0690 1.6552 0.0000
0.0690 1.6897 0.0000
0.0690 1.7241 0.0000
0.0690 1.7586 0.0000
0.0690 1.7931 0.0000
0.0690 1.8276 0.0000
0.0690 1.8621 0.0000
0.0690 1.8966 0.0000
0.0690 1.9310 0.0000
0.0690 1.9655 0.0000
0.0690 2.0000 0.0000
0.1379 1.0000 0.0000
0.1379 1.0345 0.0000
0.1379 1.0690 0.0000
0.1379 1.1034 0.0000
0.1379 1.1379 0.0000
0.1379 1.1724 0.0000
0.1379 1.2069 0.0000
0.1379 1.2414 0.0000
0.1379 1.2759 0.0000
0.1379 1.3103 0.0000
0.1379 1.3448 0.0000
0.1379 1.3793 0.0000
0.1379 1.4138 0.0000
0.1379 1.4483 0.0000
0.1379 1.4828 0.0000
0.1379 1.5172 0.0000
0.1379 1.5517 0.0000
0.1379 1.5862 0.0000
0.1379 1.6207 0.0000
0.1379 1.6552 0.0000
0.1379 1.6897 0.0000
0.1379 1.7241 0.0000
0.1379 1.7586 0.0000
0.1379 1.7931 0.0000
0.1379 1.8276 0.0000
0.1379 1.8621 0.0000
0.1379 1.8966 0.0000
0.1379 1.9310 0.0000
0.1379 1.9655 0.0000
0.1379 2.0000 0.0000
0.2069 1.0000 0.0000
0.2069 1.0345 0.0000
0.2069 1.0690 0.0000
0.2069 1.1034 0.0000
0.2069 1.1379 0.0000
0.2069 1.1724 0.0000
0.2069 1.2069 0.0000
0.2069 1.2414 0.0000
0.2069 1.2759 0.0000
0.2069 1.3103 0.0000
0.2069 1.3448 0.0000
0.2069 1.3793 0.0000
0.2069 1.4138 0.0000
0.2069 1.4483 0.0000
0.2069 1.4828 0.0000
0.2069 1.5172 0.0000
0.2069 1.5517 0.0000
0.2069 1.5862 0.0000
0.2069 1.6207 0.0000
0.2069 1.6552 0.0000
0.2069 1.6897 0.0000
0.2069 1.7241 0.0000
0.2069 1.7586 0.0000
0.2069 1.7931 0.0000
0.2069 1.8276 0.0000
0.2069 1.8621 0.0000
0.2069 1.8966 0.0000
0.2069 1.9310 0.0000
0.2069 1.9655 0.0000
0.2069 2.0000 0.0000
0.2759 1.0000 0.0000
0.2759 1.0345 0.0000
0.2759 1.0690 0.0000
0.2759 1.1034 0.0000
0.2759 1.1379 0.0000
0.2759 1.1724 0.0000
0.2759 1.2069 0.0000
0.2759 1.2414 0.0000
0.2759 1.2759 0.0000
0.2759 1.3103 0.0000
0.2759 1.3448 0.0000
0.2759 1.3793 0.0000
0.2759 1.4138 0.0000
0.2759 1.4483 0.0000
0.2759 1.4828 0.0000
0.2759 1.5172 0.0000
0.2759 1.5517 0.0000
0.2759 1.5862 0.0000
0.2759 1.6207 0.0000
0.2759 1.6552 0.0000
0.2759 1.6897 0.0000
0.2759 1.7241 0.0000
0.2759 1.7586 0.0000
0.2759 1.7931 0.0000
0.2759 1.8276 0.0000
0.2759 1.8621 0.0000
0.2759 1.8966 0.0000
0.2759 1.9310 0.0000
0.2759 1.9655 0.0000
0.2759 2.0000 0.0000
0.3448 1.0000 0.0000
0.3448 1.0345 0.0000
0.3448 1.0690 0.0000
0.3448 1.1034 0.0000
0.3448 1.1379 0.0000
0.3448 1.1724 0.0000
0.3448 1.2069 0.0000
0.3448 1.2414 0.0000
0.3448 1.2759 0.0000
0.3448 1.3103 0.0000
0.3448 1.3448 0.0000
0.3448 1.3793 0.0000
0.3448 1.4138 0.0000
0.3448 1.4483 0.0000
0.3448 1.4828 0.0000
0.3448 1.5172 0.0000
0.3448 1.5517 0.0000
0.3448 1.5862 0.0000
0.3448 1.6207 0.0000
0.3448 1.6552 0.0000
0.3448 1.6897 0.0000
0.3448 1.7241 0.0000
0.3448 1.7586 0.0000
0.3448 1.7931 0.0000
0.3448 1.8276 0.0000
0.3448 1.8621 0.0000
0.3448 1.8966 0.0000
0.3448 1.9310 0.0000
0.3448 1.9655 0.0000
0.3448 2.0000 0.0000
0.4138 1.0000 0.0000
0.4138 1.0345 0.0000
0.4138 1.0690 0.0000
0.4138 1.1034 0.0000
0.4138 1.1379 0.0000
0.4138 1.1724 0.0000
0.4138 1.2069 0.0000
0.4138 1.2414 0.0000
0.4138 1.2759 0.0000
0.4138 1.3103 0.0000
0.4138 1.3448 0.0000
0.4138 1.3793 0.0000
0.4138 1.4138 0.0000
0.4138 1.4483 0.0000
0.4138 1.4828 0.0000
0.4138 1.5172 0.0000
0.4138 1.5517 0.0000
0.4138 1.5862 0.0000
0.4138 1.6207 0.0000
0.4138 1.6552 0.0000
0.4138 1.6897 0.0000
0.4138 1.7241 0.0000
0.4138 1.7586 0.0000
0.4138 1.7931 0.0000
0.4138 1.8276 0.0000
0.4138 1.8621 0.0000
0.4138 1.8966 0.0000
0.4138 1.9310 0.0000
0.4138 1.9655 0.0000
0.4138 2.0000 0.0000
0.4828 1.0000 0.0000
0.4828 1.0345 0.0000
0.4828 1.0690 0.0000
0.4828 1.1034 0.0000
0.4828 1.1379 0.0000
0.4828 1.1724 0.0000
0.4828 1.2069 0.0000
0.4828 1.2414 0.0000
0.4828 1.2759 0.0000
0.4828 1.3103 0.0000
0.4828 1.3448 0.0000
0.4828 1.3793 0.0000
0.4828 1.4138 0.0000
0.4828 1.4483 0.0000
0.4828 1.4828 0.0000
0.4828 1.5172 0.0000
0.4828 1.5517 0.0000
0.4828 1.5862 0.0000
0.4828 1.6207 0.0000
0.4828 1.6552 0.0000
0.4828 1.6897 0.0000
0.4828 1.7241 0.0000
0.4828 1.7586 0.0000
0.4828 1.7931 0.0000
0.4828 1.8276 0.0000
0.4828 1.8621 0.0000
0.4828 1.8966 0.0000
0.4828 1.9310 0.0000
0.4828 1.9655 0.0000
0.4828 2.0000 0.0000
0.5517 1.0000 0.0000
0.5517 1.0345 0.0000
0.5517 1.0690 0.0000
0.5517 1.1034 0.0000
0.5517 1.1379 0.0000
0.5517 1.1724 0.0000
0.5517 1.2069 0.0000
0.5517 1.2414 0.0000
0.5517 1.2759 0.0000
0.5517 1.3103 0.0000
0.5517 1.3448 0.0000
0.5517 1.3793 0.0000
0.5517 1.4138 0.0000
0.5517 1.4483 0.0000
0.5517 1.4828 0.0000
0.5517 1.5172 0.0000
0.5517 1.5517 0.0000
0.5517 1.5862 0.0000
0.5517 1.6207 0.0000
0.5517 1.6552 0.0000
0.5517 1.6897 0.0000
0.5517 1.7241 0.0000
0.5517 1.7586 0.0000
0.5517 1.7931 0.0000
0.5517 1.8276 0.0000
0.5517 1.8621 0.0000
0.5517 1.8966 0.0000
0.5517 1.9310 0.0000
0.5517 1.9655 0.0000
0.5517 2.0000 0.0000
0.6207 1.0000 0.0000
0.6207 1.0345 0.0000
0.6207 1.0690 0.0000
0.6207 1.1034 0.0000
0.6207 1.1379 0.0000
0.6207 1.1724 0.0000
0.6207 1.2069 0.0000
0.6207 1.2414 0.0000
0.6207 1.2759 0.0000
0.6207 1.3103 0.0000
0.6207 1.3448 0.0000
0.6207 1.3793 0.0000
0.6207 1.4138 0.0000
0.6207 1.4483 0.0000
0.6207 1.4828 0.0000
0.6207 1.5172 0.0000
0.6207 1.5517 0.0000
0.6207 1.5862 0.0000
0.6207 1.6207 0.0000
0.6207 1.6552 0.0000
0.6207 1.6897 0.0000
0.6207 1.7241 0.0000
0.6207 1.7586 0.0000
0.6207 1.7931 0.0000
0.6207 1.8276 0.0000
0.6207 1.8621 0.0000
0.6207 1.8966 0.0000
0.6207 1.9310 0.0000
0.6207 1.9655 0.0000
0.6207 2.0000 0.0000
0.6897 1.0000 0.0000
0.6897 1.0345 0.0000
0.6897 1.0690 0.0000
0.6897 1.1034 0.0000
0.6897 1.1379 0.0000
0.6897 1.1724 0.0000
0.6897 1.2069 0.0000
0.6897 1.2414 0.0000
0.6897 1.2759 0.0000
0.6897 1.3103 0.0000
0.6897 1.3448 0.0000
0.6897 1.3793 0.0000
0.6897 1.4138 0.0000
0.6897 1.4483 0.0000
0.6897 1.4828 0.0000
0.6897 1.5172 0.0000
0.6897 1.5517 0.0000
0.6897 1.5862 0.0000
0.6897 1.6207 0.0000
0.6897 1.6552 0.0000
0.6897 1.6897 0.0000
0.6897 1.7241 0.0000
0.6897 1.7586 0.0000
0.6897 1.7931 0.0000
0.6897 1.8276 0.0000
0.6897 1.8621 0.0000
0.6897 1.8966 0.0000
0.6897 1.9310 0.0000
0.6897 1.9655 0.0000
0.6897 2.0000 0.0000
0.7586 1.0000 0.0000
0.7586 1.0345 0.0000
0.7586 1.0690 0.0000
0.7586 1.1034 0.0000
0.7586 1.1379 0.0000
0.7586 1.1724 0.0000
0.7586 1.2069 0.0000
0.7586 1.2414 0.0000
0.7586 1.2759 0.0000
0.7586 1.3103 0.0000
0.7586 1.3448 0.0000
0.7586 1.3793 0.0000
0.7586 1.4138 0.0000
0.7586 1.4483 0.0000
0.7586 1.4828 0.0000
0.7586 1.5172 0.0000
0.7586 1.5517 0.0000
0.7586 1.5862 0.0000
0.7586 1.6207 0.0000
0.7586 1.6552 0.0000
0.7586 1.6897 0.0000
0.7586 1.7241 0.0000
0.7586 1.7586 0.0000
0.7586 1.7931 0.0000
0.7586 1.8276 0.0000
0.7586 1.8621 0.0000
0.7586 1.8966 0.0000
0.7586 1.9310 0.0000
0.7586 1.9655 0.0000
0.7586 2.0000 0.0000
0.8276 1.0000 0.0000
0.8276 1.0345 0.0000
0.8276 1.0690 0.0000
0.8276 1.1034 0.0000
0.8276 1.1379 0.0000
0.8276 1.1724 0.0000
0.8276 1.2069 0.0000
0.8276 1.2414 0.0000
0.8276 1.2759 0.0000
0.8276 1.3103 0.0000
0.8276 1.3448 0.0000
0.8276 1.3793 0.0000
0.8276 1.4138 0.0000
0.8276 1.4483 0.0000
0.8276 1.4828 0.0000
0.8276 1.5172 0.0000
0.8276 1.5517 0.0000
0.8276 1.5862 0.0000
0.8276 1.6207 0.0000
0.8276 1.6552 0.0000
0.8276 1.6897 0.0000
0.8276 1.7241 0.0000
0.8276 1.7586 0.0000
0.8276 1.7931 0.0000
0.8276 1.8276 0.0000
0.8276 1.8621 0.0000
0.8276 1.8966 0.0000
0.8276 1.9310 0.0000
0.8276 1.9655 0.0000
0.8276 2.0000 0.0000
0.8966 1.0000 0.0000
0.8966 1.0345 0.0000
0.8966 1.0690 0.0000
0.8966 1.1034 0.0000
0.8966 1.1379 0.0000
0.8966 1.1724 0.0000
0.8966 1.2069 0.0000
0.8966 1.2414 0.0000
0.8966 1.2759 0.0000
0.8966 1.3103 0.0000
0.8966 1.3448 0.0000
0.8966 1.3793 0.0000
0.8966 1.4138 0.0000
0.8966 1.4483 0.0000
0.8966 1.4828 0.0000
0.8966 1.5172 0.0000
0.8966 1.5517 0.0000
0.8966 1.5862 0.0000
0.8966 1.6207 0.0000
0.8966 1.6552 0.0000
0.8966 1.6897 0.0000
0.8966 1.7241 0.0000
0.8966 1.7586 0.0000
0.8966 1.7931 0.0000
0.8966 1.8276 0.0000
0.8966 1.8621 0.0000
0.8966 1.8966 0.0000
0.8966 1.9310 0.0000
0.8966 1.9655 0.0000
0.8966 2.0000 0.0000
0.9655 1.0000 0.0000
0.9655 1.0345 0.0000
0.9655 1.0690 0.0000
0.9655 1.1034 0.0000
0.9655 1.1379 0.0000
0.9655 1.1724 0.0000
0.9655 1.2069 0.0000
0.9655 1.2414 0.0000
0.9655 1.2759 0.0000
0.9655 1.3103 0.0000
0.9655 1.3448 0.0000
0.9655 1.3793 0.0000
0.9655 1.4138 0.0000
0.9655 1.4483 0.0000
0.9655 1.4828 0.0000
0.9655 1.5172 0.0000
0.9655 1.5517 0.0000
0.9655 1.5862 0.0000
0.9655 1.6207 0.0000
0.9655 1.6552 0.0000
0.9655 1.6897 0.0000
0.9655 1.7241 0.0000
0.9655 1.7586 0.0000
0.9655 1.7931 0.0000
0.9655 1.8276 0.0000
0.9655 1.8621 0.0000
0.9655 1.8966 0.0000
0.9655 1.9310 0.0000
0.9655 1.9655 0.0000
0.9655 2.0000 0.0000
1.0345 1.0000 0.0000
1.0345 1.0345 0.0000
1.0345 1.0690 0.0000
1.0345 1.1034 0.0000
1.0345 1.1379 0.0000
1.0345 1.1724 0.0000
1.0345 1.2069 0.0000
1.0345 1.2414 0.0000
1.0345 1.2759 0.0000
1.0345 1.3103 0.0000
1.0345 1.3448 0.0000
[...]
         <PointData>
            <DataArray Name="fValues" NumberOfComponents="3" format="ascii" type="Float64">
-1.92832e-21 -2.35036e-21        00000 
 3.95272e-21        00000        00000 
-3.19807e-21  6.21846e-22        00000 
 8.59435e-22  3.54377e-22        00000 
 5.33011e-22 -1.11044e-22        00000 
-2.82441e-21 -1.02232e-22        00000 
 2.13204e-21 -8.88352e-23        00000 
-1.59609e-21  5.58074e-23        00000 
 1.06602e-21 -1.55462e-22        00000 
 2.62543e-23  8.61140e-23        00000 
 4.44176e-23 -4.44176e-23        00000 
-2.89501e-22  3.62748e-23        00000 
-1.66566e-23  1.55462e-22        00000 
-1.29845e-22 -1.98917e-22        00000 
-8.88352e-23  1.33253e-22        00000 
 2.97175e-22 -1.42309e-22        00000 
-8.88352e-23  1.99879e-22        00000 
-4.87979e-22  4.39321e-23        00000 
 4.88593e-22  6.66264e-23        00000 
 5.24590e-22  1.43007e-23        00000 
       00000  1.05492e-22        00000 
-4.62848e-22 -1.44821e-22        00000 
       00000 -1.11044e-23        00000 
-5.41332e-22  4.57621e-22        00000 
 1.95437e-21 -1.77670e-22        00000 
-1.46508e-21 -2.74795e-22        00000 
 7.10681e-22  7.99517e-22        00000 
-1.93454e-21  1.17414e-22        00000 
-8.95971e-22 -1.45595e-21        00000 
-2.59644e-21 -5.76155e-22        00000 
-2.14457e-05 -1.63128e-05        00000 
-1.64671e-05 -1.16651e-05        00000 
-1.40015e-05 -8.41642e-06        00000 
-1.22149e-05 -6.03586e-06        00000 
-1.07354e-05 -4.20303e-06        00000 
-9.42358e-06 -2.73773e-06        00000 
-8.21128e-06 -1.53274e-06        00000 
-7.05867e-06 -5.22980e-07        00000 
-5.93954e-06  3.30171e-07        00000 
-4.83585e-06  1.04793e-06        00000 
-3.73540e-06  1.63987e-06        00000 
-2.63071e-06  2.10804e-06        00000 
-1.51825e-06  2.45013e-06        00000 
-3.97775e-07  2.66184e-06        00000 
 7.28501e-07  2.73876e-06        00000 
 1.85676e-06  2.67759e-06        00000 
 2.98260e-06  2.47681e-06        00000 
 4.10200e-06  2.13671e-06        00000 
 5.21241e-06  1.65886e-06        00000 
 6.31371e-06  1.04488e-06        00000 
 7.40911e-06  2.94655e-07        00000 
 8.50617e-06 -5.96196e-07        00000 
 9.61782e-06 -1.63971e-06        00000 
 1.07642e-05 -2.86018e-06        00000 
 1.19760e-05 -4.30095e-06        00000 
 1.33024e-05 -6.03523e-06        00000 
 1.48305e-05 -8.18569e-06        00000 
 1.67429e-05 -1.09633e-05        00000 
 1.95251e-05 -1.47530e-05        00000 
 2.55194e-05 -2.02076e-05        00000 
-3.92224e-05 -2.55398e-05        00000 
-3.44516e-05 -2.17101e-05        00000 
-3.00292e-05 -1.79249e-05        00000 
-2.63658e-05 -1.46040e-05        00000 
-2.32091e-05 -1.17537e-05        00000 
-2.03889e-05 -9.30352e-06        00000 
-1.77894e-05 -7.18279e-06        00000 
-1.53274e-05 -5.33853e-06        00000 
-1.29415e-05 -3.73734e-06        00000 
-1.05865e-05 -2.36289e-06        00000 
-8.23088e-06 -1.21199e-06        00000 
-5.85553e-06 -2.90453e-07        00000 
-3.45191e-06  3.90951e-07        00000 
-1.02050e-06  8.19957e-07        00000 
 1.43132e-06  9.85668e-07        00000 
 3.89178e-06  8.80573e-07        00000 
 6.34736e-06  5.01634e-07        00000 
 8.78570e-06 -1.49612e-07        00000 
 1.11984e-05 -1.06796e-06        00000 
 1.35837e-05 -2.24643e-06        00000 
 1.59490e-05 -3.67906e-06        00000 
 1.83129e-05 -5.36448e-06        00000 
 2.07077e-05 -7.31013e-06        00000 
 2.31821e-05 -9.53684e-06        00000 
 2.58054e-05 -1.20833e-05        00000 
 2.86762e-05 -1.50094e-05        00000 
 3.19387e-05 -1.83939e-05        00000 
 3.58152e-05 -2.23139e-05        00000 
 4.06485e-05 -2.67496e-05        00000 
 4.59908e-05 -3.11626e-05        00000 
-5.68463e-05 -3.58831e-05        00000 
-5.12496e-05 -3.20000e-05        00000 
-4.59016e-05 -2.83599e-05        00000 
-4.09248e-05 -2.49191e-05        00000 
-3.63859e-05 -2.17271e-05        00000 
-3.22107e-05 -1.87907e-05        00000 
-2.82970e-05 -1.60994e-05        00000 
-2.45452e-05 -1.36448e-05        00000 
-2.08687e-05 -1.14288e-05        00000 
-1.71992e-05 -9.46507e-06        00000 
-1.34880e-05 -7.77747e-06        00000 
-9.70687e-06 -6.39603e-06        00000 
-5.84650e-06 -5.35276e-06        00000 
-1.91429e-06 -4.67734e-06        00000 
 2.06943e-06 -4.39342e-06        00000 
 6.07583e-06 -4.51591e-06        00000 
 1.00727e-05 -5.04951e-06        00000 
 1.40301e-05 -5.98840e-06        00000 
 1.79250e-05 -7.31752e-06        00000 
 2.17472e-05 -9.01483e-06        00000 
 2.55023e-05 -1.10548e-05        00000 
 2.92160e-05 -1.34126e-05        00000 
 3.29353e-05 -1.60681e-05        00000 
 3.67298e-05 -1.90098e-05        00000 
 4.06909e-05 -2.22359e-05        00000 
 4.49286e-05 -2.57524e-05        00000 
 4.95614e-05 -2.95622e-05        00000 
 5.46822e-05 -3.36402e-05        00000 
 6.02209e-05 -3.79009e-05        00000 
 6.60437e-05 -4.23620e-05        00000 
-7.44207e-05 -4.84280e-05        00000 
-6.75965e-05 -4.46455e-05        00000 
-6.11692e-05 -4.10830e-05        00000 
-5.51846e-05 -3.76727e-05        00000 
-4.96178e-05 -3.43675e-05        00000 
-4.43989e-05 -3.11580e-05        00000 
-3.94167e-05 -2.80536e-05        00000 
-3.45488e-05 -2.50801e-05        00000 
-2.96816e-05 -2.22794e-05        00000 
-2.47233e-05 -1.97079e-05        00000 
-1.96110e-05 -1.74312e-05        00000 
-1.43128e-05 -1.55189e-05        00000 
-8.82804e-06 -1.40382e-05        00000 
-3.18326e-06 -1.30473e-05        00000 
 2.57315e-06 -1.25910e-05        00000 
 8.37854e-06 -1.26958e-05        00000 
 1.41644e-05 -1.33686e-05        00000 
 1.98655e-05 -1.45956e-05        00000 
 2.54286e-05 -1.63442e-05        00000 
 3.08203e-05 -1.85663e-05        00000 
 3.60335e-05 -2.12028e-05        00000 
 4.10920e-05 -2.41892e-05        00000 
 4.60513e-05 -2.74619e-05        00000 
 5.09976e-05 -3.09636e-05        00000 
 5.60408e-05 -3.46469e-05        00000 
 6.13022e-05 -3.84758e-05        00000 
 6.68925e-05 -4.24255e-05        00000 
 7.28779e-05 -4.64835e-05        00000 
 7.92774e-05 -5.06732e-05        00000 
 8.60340e-05 -5.50358e-05        00000 
-9.14625e-05 -6.39514e-05        00000 
-8.32578e-05 -6.03551e-05        00000 
-7.57874e-05 -5.69475e-05        00000 
-6.89876e-05 -5.35849e-05        00000 
-6.27321e-05 -5.01782e-05        00000 
-5.68509e-05 -4.66894e-05        00000 
-5.11554e-05 -4.31299e-05        00000 
-4.54586e-05 -3.95521e-05        00000 
-3.95957e-05 -3.60410e-05        00000 
-3.34392e-05 -3.27051e-05        00000 
-2.69087e-05 -2.96667e-05        00000 
-1.99747e-05 -2.70509e-05        00000 
-1.26576e-05 -2.49755e-05        00000 
-5.02227e-06 -2.35413e-05        00000 
 2.83108e-06 -2.28240e-05        00000 
 1.07790e-05 -2.28678e-05        00000 
 1.86883e-05 -2.36824e-05        00000 
 2.64307e-05 -2.52422e-05        00000 
 3.38969e-05 -2.74884e-05        00000 
 4.10091e-05 -3.03344e-05        00000 
 4.77316e-05 -3.36723e-05        00000 
 5.40768e-05 -3.73829e-05        00000 
 6.01085e-05 -4.13447e-05        00000 
 6.59380e-05 -4.54450e-05        00000 
 7.17158e-05 -4.95893e-05        00000 
 7.76160e-05 -5.37107e-05        00000 
 8.38156e-05 -5.77789e-05        00000 
 9.04747e-05 -6.18100e-05        00000 
 9.77099e-05 -6.58680e-05        00000 
 1.05577e-04 -7.00727e-05        00000 
-1.07248e-04 -8.27693e-05        00000 
-9.76904e-05 -7.95417e-05        00000 
-8.94169e-05 -7.63985e-05        00000 
-8.22061e-05 -7.31180e-05        00000 
-7.57624e-05 -6.95608e-05        00000 
-6.97541e-05 -6.56712e-05        00000 
-6.38473e-05 -6.14708e-05        00000 
-5.77358e-05 -5.70477e-05        00000 
-5.11649e-05 -5.25430e-05        00000 
-4.39489e-05 -4.81348e-05        00000 
-3.59822e-05 -4.40220e-05        00000 
-2.72431e-05 -4.04068e-05        00000 
-1.77907e-05 -3.74789e-05        00000 
-7.75552e-06 -3.53996e-05        00000 
 2.67490e-06 -3.42897e-05        00000 
 1.32753e-05 -3.42194e-05        00000 
 2.38048e-05 -3.52031e-05        00000 
 3.40296e-05 -3.71980e-05        00000 
 4.37461e-05 -4.01083e-05        00000 
 5.28011e-05 -4.37925e-05        00000 
 6.11080e-05 -4.80751e-05        00000 
 6.86588e-05 -5.27609e-05        00000 
 7.55283e-05 -5.76511e-05        00000 
 8.18727e-05 -6.25604e-05        00000 
 8.79198e-05 -6.73341e-05        00000 
 9.39523e-05 -7.18650e-05        00000 
 1.00285e-04 -7.61083e-05        00000 
 1.07233e-04 -8.00935e-05        00000 
 1.15081e-04 -8.39324e-05        00000 
 1.24044e-04 -8.78184e-05        00000 
-1.20624e-04 -1.04897e-04        00000 
-1.09995e-04 -1.02318e-04        00000 
-1.01483e-04 -9.96195e-05        00000 
-9.46060e-05 -9.64802e-05        00000 
-8.88032e-05 -9.27096e-05        00000 
-8.34917e-05 -8.82422e-05        00000 
-7.81171e-05 -8.31256e-05        00000 
-7.21914e-05 -7.75024e-05        00000 
-6.53233e-05 -7.15914e-05        00000 
-5.72397e-05 -6.56655e-05        00000 
-4.77982e-05 -6.00282e-05        00000 
-3.69911e-05 -5.49893e-05        00000 
-2.49398e-05 -5.08401e-05        00000 
-1.18804e-05 -4.78297e-05        00000 
 1.85952e-06 -4.61451e-05        00000 
 1.58913e-05 -4.58950e-05        00000 
 2.98004e-05 -4.71011e-05        00000 
 4.31840e-05 -4.96965e-05        00000 
 5.56871e-05 -5.35317e-05        00000 
 6.70354e-05 -5.83870e-05        00000 
 7.70613e-05 -6.39915e-05        00000 
 8.57224e-05 -7.00450e-05        00000 
 9.31105e-05 -7.62428e-05        00000 
 9.94507e-05 -8.23002e-05        00000 
 1.05092e-04 -8.79784e-05        00000 
 1.10488e-04 -9.31073e-05        00000 
 1.16165e-04 -9.76083e-05        00000 
 1.22687e-04 -1.01513e-04        00000 
 1.30602e-04 -1.04979e-04        00000 
 1.40385e-04 -1.08293e-04        00000 
-1.29803e-04 -1.29818e-04        00000 
-1.18812e-04 -1.28312e-04        00000 
-1.11124e-04 -1.26335e-04        00000 
-1.05830e-04 -1.23456e-04        00000 
-1.01968e-04 -1.19442e-04        00000 
-9.85924e-05 -1.14234e-04        00000 
-9.48411e-05 -1.07918e-04        00000 
-8.99726e-05 -1.00709e-04        00000 
-8.34028e-05 -9.29215e-05        00000 
-7.47308e-05 -8.49486e-05        00000 
-6.37573e-05 -7.72323e-05        00000 
-5.04918e-05 -7.02306e-05        00000 
-3.51480e-05 -6.43808e-05        00000 
-1.81235e-05 -6.00624e-05        00000 
 3.50703e-08 -5.75624e-05        00000 
 1.86804e-05 -5.70491e-05        00000 
 3.71222e-05 -5.85558e-05        00000 
 5.46896e-05 -6.19784e-05        00000 
 7.07904e-05 -6.70864e-05        00000 
 8.49636e-05 -7.35453e-05        00000 
 9.69199e-05 -8.09478e-05        00000 
 1.06567e-04 -8.88492e-05        00000 
 1.14024e-04 -9.68037e-05        00000 
 1.19616e-04 -1.04398e-04        00000 
 1.23863e-04 -1.11285e-04        00000 
 1.27458e-04 -1.17208e-04        00000 
 1.31232e-04 -1.22034e-04        00000 
 1.36110e-04 -1.25778e-04        00000 
 1.43046e-04 -1.28629e-04        00000 
 1.52945e-04 -1.30979e-04        00000 
-1.32132e-04 -1.55998e-04        00000 
-1.22226e-04 -1.56168e-04        00000 
-1.17149e-04 -1.55316e-04        00000 
-1.15346e-04 -1.52944e-04        00000 
-1.15302e-04 -1.48812e-04        00000 
-1.15611e-04 -1.42878e-04        00000 
-1.15020e-04 -1.35267e-04        00000 
-1.12460e-04 -1.26251e-04        00000 
-1.07078e-04 -1.16233e-04        00000 
-9.82788e-05 -1.05734e-04        00000 
-8.57548e-05 -9.53671e-05        00000 
-6.95157e-05 -8.57925e-05        00000 
-4.98939e-05 -7.76638e-05        00000 
-2.75248e-05 -7.15629e-05        00000 
-3.29558e-06 -6.79385e-05        00000 
 2.17337e-05 -6.70551e-05        00000 
 4.64297e-05 -6.89635e-05        00000 
 6.96932e-05 -7.34970e-05        00000 
 9.05625e-05 -8.02928e-05        00000 
 1.08299e-04 -8.88369e-05        00000 
 1.22446e-04 -9.85209e-05        00000 
 1.32861e-04 -1.08703e-04        00000 
 1.39721e-04 -1.18762e-04        00000 
 1.43502e-04 -1.28144e-04        00000 
 1.44961e-04 -1.36390e-04        00000 
 1.45100e-04 -1.43161e-04        00000 
 1.45138e-04 -1.48257e-04        00000 
 1.46477e-04 -1.51650e-04        00000 
 1.50644e-04 -1.53527e-04        00000 
 1.59211e-04 -1.54344e-04        00000 
-1.23994e-04 -1.79973e-04        00000 
-1.17799e-04 -1.82581e-04        00000 
-1.18035e-04 -1.83421e-04        00000 
-1.22312e-04 -1.82079e-04        00000 
-1.28506e-04 -1.78382e-04        00000 
-1.34744e-04 -1.72303e-04        00000 
-1.39365e-04 -1.63928e-04        00000 
-1.40906e-04 -1.53487e-04        00000 
-1.38128e-04 -1.41379e-04        00000 
-1.30088e-04 -1.28215e-04        00000 
-1.16230e-04 -1.14790e-04        00000 
-9.64745e-05 -1.02050e-04        00000 
-7.12688e-05 -9.09842e-05        00000 
-4.15843e-05 -8.25163e-05        00000 
-8.84560e-06 -7.73729e-05        00000 
 2.52075e-05 -7.59861e-05        00000 
 5.87020e-05 -7.84310e-05        00000 
 8.98349e-05 -8.44211e-05        00000 
 1.17062e-04 -9.33570e-05        00000 
 1.39244e-04 -1.04419e-04        00000 
 1.55737e-04 -1.16684e-04        00000 
 1.66407e-04 -1.29238e-04        00000 
 1.71597e-04 -1.41268e-04        00000 
 1.72059e-04 -1.52115e-04        00000 
 1.68879e-04 -1.61289e-04        00000 
 1.63423e-04 -1.68447e-04        00000 
 1.57322e-04 -1.73376e-04        00000 
 1.52481e-04 -1.75992e-04        00000 
 1.51103e-04 -1.76385e-04        00000 
 1.55674e-04 -1.74932e-04        00000 
-1.01249e-04 -1.94925e-04        00000 
-1.03021e-04 -2.00724e-04        00000 
-1.12061e-04 -2.03989e-04        00000 
-1.25258e-04 -2.04763e-04        00000 
-1.40198e-04 -2.03065e-04        00000 
-1.54833e-04 -1.98765e-04        00000 
-1.67252e-04 -1.91673e-04        00000 
-1.75535e-04 -1.81648e-04        00000 
-1.77812e-04 -1.68836e-04        00000 
-1.72431e-04 -1.53750e-04        00000 
-1.58205e-04 -1.37374e-04        00000 
-1.34680e-04 -1.21049e-04        00000 
-1.02313e-04 -1.06346e-04        00000 
-6.25373e-05 -9.47907e-05        00000 
-1.76559e-05 -8.76277e-05        00000 
 2.94079e-05 -8.55896e-05        00000 
 7.54814e-05 -8.87807e-05        00000 
 1.17547e-04 -9.66671e-05        00000 
 1.53116e-04 -1.08192e-04        00000 
 1.80499e-04 -1.21980e-04        00000 
 1.98927e-04 -1.36576e-04        00000 
 2.08515e-04 -1.50680e-04        00000 
 2.10106e-04 -1.63305e-04        00000 
 2.05040e-04 -1.73845e-04        00000 
 1.94936e-04 -1.82034e-04        00000 
 1.81545e-04 -1.87820e-04        00000 
 1.66748e-04 -1.91197e-04        00000 
 1.52688e-04 -1.92093e-04        00000 
 1.42018e-04 -1.90339e-04        00000 
 1.38151e-04 -1.85859e-04        00000 
-6.11298e-05 -1.88968e-04        00000 
-7.66905e-05 -1.98158e-04        00000 
-9.76681e-05 -2.04660e-04        00000 
-1.21376e-04 -2.09660e-04        00000 
-1.46316e-04 -2.13470e-04        00000 
-1.71276e-04 -2.15571e-04        00000 
-1.94523e-04 -2.14796e-04        00000 
-2.13635e-04 -2.10026e-04        00000 
-2.25550e-04 -2.00415e-04        00000 
-2.27018e-04 -1.86081e-04        00000 
-2.15308e-04 -1.68013e-04        00000 
-1.88805e-04 -1.48226e-04        00000 
-1.47635e-04 -1.29262e-04        00000 
-9.38347e-05 -1.13806e-04        00000 
-3.12494e-05 -1.04043e-04        00000 
 3.50232e-05 -1.01264e-04        00000 
 9.93835e-05 -1.05567e-04        00000 
 1.56627e-04 -1.15896e-04        00000 
 2.02699e-04 -1.30308e-04        00000 
 2.35192e-04 -1.46403e-04        00000 
 2.53504e-04 -1.61821e-04        00000 
 2.58662e-04 -1.74694e-04        00000 
 2.52854e-04 -1.83953e-04        00000 
 2.38806e-04 -1.89418e-04        00000 
 2.19169e-04 -1.91644e-04        00000 
 1.96119e-04 -1.91558e-04        00000 
 1.71246e-04 -1.90000e-04        00000 
 1.45962e-04 -1.87191e-04        00000 
 1.22208e-04 -1.82563e-04        00000 
 1.03435e-04 -1.74765e-04        00000 
-7.15644e-06 -1.44557e-04        00000 
-4.20168e-05 -1.55546e-04        00000 
-7.43888e-05 -1.65629e-04        00000 
-1.05381e-04 -1.78214e-04        00000 
-1.37525e-04 -1.93983e-04        00000 
-1.72326e-04 -2.11193e-04        00000 
-2.09570e-04 -2.26954e-04        00000 
-2.46038e-04 -2.37293e-04        00000 
-2.76283e-04 -2.39680e-04        00000 
-2.93658e-04 -2.32438e-04        00000 
-2.91530e-04 -2.16662e-04        00000 
-2.65452e-04 -1.95076e-04        00000 
-2.14208e-04 -1.72119e-04        00000 
-1.40714e-04 -1.52389e-04        00000 
-5.16307e-05 -1.39828e-04        00000 
 4.36291e-05 -1.36516e-04        00000 
 1.34887e-04 -1.42395e-04        00000 
 2.12970e-04 -1.55400e-04        00000 
 2.71207e-04 -1.72009e-04        00000 
 3.06355e-04 -1.88101e-04        00000 
 3.18792e-04 -1.99921e-04        00000 
 3.11954e-04 -2.04898e-04        00000 
 2.91214e-04 -2.02155e-04        00000 
 2.62437e-04 -1.92617e-04        00000 
 2.30520e-04 -1.78705e-04        00000 
 1.98258e-04 -1.63601e-04        00000 
 1.66079e-04 -1.50146e-04        00000 
 1.32279e-04 -1.39931e-04        00000 
 9.48912e-05 -1.31836e-04        00000 
 5.40964e-05 -1.22220e-04        00000 
 4.17318e-05 -4.32344e-05        00000 
-1.19947e-05 -5.05637e-05        00000 
-4.56956e-05 -6.22339e-05        00000 
-6.98723e-05 -8.47693e-05        00000 
-9.63523e-05 -1.20250e-04        00000 
-1.34944e-04 -1.65817e-04        00000 
-1.87363e-04 -2.13674e-04        00000 
-2.51000e-04 -2.57613e-04        00000 
-3.15838e-04 -2.88021e-04        00000 
-3.66794e-04 -3.02184e-04        00000 
-3.89570e-04 -2.98851e-04        00000 
-3.72368e-04 -2.82814e-04        00000 
-3.10778e-04 -2.60624e-04        00000 
-2.09147e-04 -2.40350e-04        00000 
-8.04350e-05 -2.27358e-04        00000 
 5.82501e-05 -2.24452e-04        00000 
 1.88452e-04 -2.31214e-04        00000 
 2.93911e-04 -2.44073e-04        00000 
 3.63685e-04 -2.57292e-04        00000 
 3.93937e-04 -2.64590e-04        00000 
 3.87952e-04 -2.60858e-04        00000 
 3.54564e-04 -2.43418e-04        00000 
 3.05582e-04 -2.12568e-04        00000 
 2.52952e-04 -1.71409e-04        00000 
 2.06122e-04 -1.25251e-04        00000 
 1.69669e-04 -8.07873e-05        00000 
 1.41418e-04 -4.46940e-05        00000 
 1.13744e-04 -2.08099e-05        00000 
 7.37575e-05 -9.79785e-06        00000 
 9.17521e-06 -3.68863e-06        00000 
 4.14434e-05  1.16833e-04        00000 
-1.49754e-05  1.24012e-04        00000 
-2.58505e-05  1.18998e-04        00000 
-1.53966e-05  9.36368e-05        00000 
-5.67817e-06  4.29005e-05        00000 
-2.01031e-05 -3.68440e-05        00000 
-8.40787e-05 -1.40022e-04        00000 
-1.87079e-04 -2.38383e-04        00000 
-3.10963e-04 -3.28065e-04        00000 
-4.28890e-04 -3.90058e-04        00000 
-5.03213e-04 -4.26806e-04        00000 
-5.07537e-04 -4.43192e-04        00000 
-4.34610e-04 -4.50924e-04        00000 
-2.97593e-04 -4.52142e-04        00000 
-1.15822e-04 -4.50961e-04        00000 
 8.18271e-05 -4.50194e-04        00000 
 2.62838e-04 -4.49258e-04        00000 
 3.98942e-04 -4.43905e-04        00000 
 4.72902e-04 -4.27782e-04        00000 
 4.81803e-04 -3.94986e-04        00000 
 4.36076e-04 -3.42441e-04        00000 
 3.55122e-04 -2.71109e-04        00000 
 2.61498e-04 -1.85666e-04        00000 
 1.75781e-04 -9.30443e-05        00000 
 1.13364e-04 -8.16709e-07        00000 
 8.28330e-05  8.33858e-05        00000 
 8.29798e-05  1.50668e-04        00000 
 9.46607e-05  1.90606e-04        00000 
 9.00275e-05  2.03541e-04        00000 
 2.64520e-05  1.91404e-04        00000 
-7.28404e-05  2.84623e-04        00000 
-8.92590e-05  3.18982e-04        00000 
-5.01405e-05  3.38182e-04        00000 
 2.15576e-05  3.42376e-04        00000 
 1.07211e-04  3.18980e-04        00000 
 1.76252e-04  2.55707e-04        00000 
 1.83463e-04  1.29907e-04        00000 
 2.25646e-05 -8.03657e-05        00000 
-2.20784e-04 -2.45554e-04        00000 
-4.44727e-04 -3.97219e-04        00000 
-5.70661e-04 -5.50700e-04        00000 
-5.85529e-04 -7.26956e-04        00000 
-5.19117e-04 -8.78201e-04        00000 
-3.63891e-04 -9.87513e-04        00000 
-1.41717e-04 -1.04550e-03        00000 
 1.04576e-04 -1.04793e-03        00000 
 3.23887e-04 -9.94756e-04        00000 