<?xml version="1.0" encoding="utf-8"?>
<VTKFile byte_order="LittleEndian" type="UnstructuredGrid" version="0.1">
   <UnstructuredGrid>
      <Piece NumberOfCells="3364" NumberOfPoints="1741">
         <Points>
            <DataArray Name="Points" NumberOfComponents="3" format="ascii" type="Float32">
0.0000 1.0000 0.0000
0.0000 1.0345 0.0000
0.0000 1.0690 0.0000
0.0000 1.1034 0.0000
0.0000 1.1379 0.0000
0.0000 1.1724 0.0000
0.0000 1.2069 0.0000
0.0000 1.2414 0.0000
0.0000 1.2759 0.0000
0.0000 1.3103 0.0000
0.0000 1.3448 0.0000
0.0000 1.3793 0.0000
0.0000 1.4138 0.0000
0.0000 1.4483 0.0000
0.0000 1.4828 0.0000
0.0000 1.5172 0.0000
0.0000 1.5517 0.0000
0.0000 1.5862 0.0000
0.0000 1.6207 0.0000
0.0000 1.6552 0.0000
0.0000 1.6897 0.0000
0.0000 1.7241 0.0000
0.0000 1.7586 0.0000
0.0000 1.7931 0.0000
0.0000 1.8276 0.0000
0.0000 1.8621 0.0000
0.0000 1.8966 0.0000
0.0000 1.9310 0.0000
0.0000 1.9655 0.0000
0.0000 2.0000 0.0000
0.0690 1.0000 0.0000
0.0690 1.0345 0.0000
0.0690 1.0690 0.0000
0.0690 1.1034 0.0000
0.0690 1.1379 0.0000
0.0690 1.1724 0.0000
0.0690 1.2069 0.0000
0.0690 1.2414 0.0000
0.0690 1.2759 0.0000
0.0690 1.3103 0.0000
0.0690 1.3448 0.0000
0.0690 1.3793 0.0000
0.0690 1.4138 0.0000
0.0690 1.4483 0.0000
0.0690 1.4828 0.0000
0.0690 1.5172 0.0000
0.0690 1.5517 0.0000
0.0690 1.5862 0.0000
0.0690 1.6207 0.0000
0.0690 1.6552 0.0000
0.0690 1.6897 0.0000
0.0690 1.7241 0.0000
0.0690 1.7586 0.0000
0.0690 1.7931 0.0000
0.0690 1.8276 0.0000
0.0690 1.8621 0.0000
0.0690 1.8966 0.0000
0.0690 1.9310 0.0000
0.0690 1.9655 0.0000
0.0690 2.0000 0.0000
0.1379 1.0000 0.0000
0.1379 1.0345 0.0000
0.1379 1.0690 0.0000
0.1379 1.1034 0.0000
0.1379 1.1379 0.0000
0.1379 1.1724 0.0000
0.1379 1.2069 0.0000
0.1379 1.2414 0.0000
0.1379 1.2759 0.0000
0.1379 1.3103 0.0000
0.1379 1.3448 0.0000
0.1379 1.3793 0.0000
0.1379 1.4138 0.0000
0.1379 1.4483 0.0000
0.1379 1.4828 0.0000
0.1379 1.5172 0.0000
0.1379 1.5517 0.0000
0.1379 1.5862 0.0000
0.1379 1.6207 0.0000
0.1379 1.6552 0.0000
0.1379 1.6897 0.0000
0.1379 1.7241 0.0000
0.1379 1.7586 0.0000
0.1379 1.7931 0.0000
0.1379 1.8276 0.0000
0.1379 1.8621 0.0000
0.1379 1.8966 0.0000
0.1379 1.9310 0.0000
0.1379 1.9655 0.0000
0.1379 2.0000 0.0000
0.2069 1.0000 0.0000
0.2069 1.0345 0.0000
0.2069 1.0690 0.0000
0.2069 1.1034 0.0000
0.2069 1.1379 0.0000
0.2069 1.1724 0.0000
0.2069 1.2069 0.0000
0.2069 1.2414 0.0000
0.2069 1.2759 0.0000
0.2069 1.3103 0.0000
0.2069 1.3448 0.0000
0.2069 1.3793 0.0000
0.2069 1.4138 0.0000
0.2069 1.4483 0.0000
0.2069 1.4828 0.0000
0.2069 1.5172 0.0000
0.2069 1.5517 0.0000
0.2069 1.5862 0.0000
0.2069 1.6207 0.0000
0.2069 1.6552 0.0000
0.2069 1.6897 0.0000
0.2069 1.7241 0.0000
0.2069 1.7586 0.0000
0.2069 1.7931 0.0000
0.2069 1.8276 0.0000
0.2069 1.8621 0.0000
0.2069 1.8966 0.0000
0.2069 1.9310 0.0000
0.2069 1.9655 0.0000
0.2069 2.0000 0.0000
0.2759 1.0000 0.0000
0.2759 1.0345 0.0000
0.2759 1.0690 0.0000
0.2759 1.1034 0.0000
0.2759 1.1379 0.0000
0.2759 1.1724 0.0000
0.2759 1.2069 0.0000
0.2759 1.2414 0.0000
0.2759 1.2759 0.0000
0.2759 1.3103 0.0000
0.2759 1.3448 0.0000
0.2759 1.3793 0.0000
0.2759 1.4138 0.0000
0.2759 1.4483 0.0000
0.2759 1.4828 0.0000
0.2759 1.5172 0.0000
0.2759 1.5517 0.0000
0.2759 1.5862 0.0000
0.2759 1.6207 0.0000
0.2759 1.6552 0.0000
0.2759 1.6897 0.0000
0.2759 1.7241 0.0000
0.2759 1.7586 0.0000
0.2759 1.7931 0.0000
0.2759 1.8276 0.0000
0.2759 1.8621 0.0000
0.2759 1.8966 0.0000
0.2759 1.9310 0.0000
0.2759 1.9655 0.0000
0.2759 2.0000 0.0000
0.3448 1.0000 0.0000
0.3448 1.0345 0.0000
0.3448 1.0690 0.0000
0.3448 1.1034 0.0000
0.3448 1.1379 0.0000
0.3448 1.1724 0.0000
0.3448 1.2069 0.0000
0.3448 1.2414 0.0000
0.3448 1.2759 0.0000
0.3448 1.3103 0.0000
0.3448 1.3448 0.0000
0.3448 1.3793 0.0000
0.3448 1.4138 0.0000
0.3448 1.4483 0.0000
0.3448 1.4828 0.0000
0.3448 1.5172 0.0000
0.3448 1.5517 0.0000
0.3448 1.5862 0.0000
0.3448 1.6207 0.0000
0.3448 1.6552 0.0000
0.3448 1.6897 0.0000
0.3448 1.7241 0.0000
0.3448 1.7586 0.0000
0.3448 1.7931 0.0000
0.3448 1.8276 0.0000
0.3448 1.8621 0.0000
0.3448 1.8966 0.0000
0.3448 1.9310 0.0000
0.3448 1.9655 0.0000
0.3448 2.0000 0.0000
0.4138 1.0000 0.0000
0.4138 1.0345 0.0000
0.4138 1.0690 0.0000
0.4138 1.1034 0.0000
0.4138 1.1379 0.0000
0.4138 1.1724 0.0000
0.4138 1.2069 0.0000
0.4138 1.2414 0.0000
0.4138 1.2759 0.0000
0.4138 1.3103 0.0000
0.4138 1.3448 0.0000
0.4138 1.3793 0.0000
0.4138 1.4138 0.0000
0.4138 1.4483 0.0000
0.4138 1.4828 0.0000
0.4138 1.5172 0.0000
0.4138 1.5517 0.0000
0.4138 1.5862 0.0000
0.4138 1.6207 0.0000
0.4138 1.6552 0.0000
0.4138 1.6897 0.0000
0.4138 1.7241 0.0000
0.4138 1.7586 0.0000
0.4138 1.7931 0.0000
0.4138 1.8276 0.0000
0.4138 1.8621 0.0000
0.4138 1.8966 0.0000
0.4138 1.9310 0.0000
0.4138 1.9655 0.0000
0.4138 2.0000 0.0000
0.4828 1.0000 0.0000
0.4828 1.0345 0.0000
0.4828 1.0690 0.0000
0.4828 1.1034 0.0000
0.4828 1.1379 0.0000
0.4828 1.1724 0.0000
0.4828 1.2069 0.0000
0.4828 1.2414 0.0000
0.4828 1.2759 0.0000
0.4828 1.3103 0.0000
0.4828 1.3448 0.0000
0.4828 1.3793 0.0000
0.4828 1.4138 0.0000
0.4828 1.4483 0.0000
0.4828 1.4828 0.0000
0.4828 1.5172 0.0000
0.4828 1.5517 0.0000
0.4828 1.5862 0.0000
0.4828 1.6207 0.0000
0.4828 1.6552 0.0000
0.4828 1.6897 0.0000
0.4828 1.7241 0.0000
0.4828 1.7586 0.0000
0.4828 1.7931 0.0000
0.4828 1.8276 0.0000
0.4828 1.8621 0.0000
0.4828 1.8966 0.0000
0.4828 1.9310 0.0000
0.4828 1.9655 0.0000
0.4828 2.0000 0.0000
0.5517 1.0000 0.0000
0.5517 1.0345 0.0000
0.5517 1.0690 0.0000
0.5517 1.1034 0.0000
0.5517 1.1379 0.0000
0.5517 1.1724 0.0000
0.5517 1.2069 0.0000
0.5517 1.2414 0.0000
0.5517 1.2759 0.0000
0.5517 1.3103 0.0000
0.5517 1.3448 0.0000
0.5517 1.3793 0.0000
0.5517 1.4138 0.0000
0.5517 1.4483 0.0000
0.5517 1.4828 0.0000
0.5517 1.5172 0.0000
0.5517 1.5517 0.0000
0.5517 1.5862 0.0000
0.5517 1.6207 0.0000
0.5517 1.6552 0.0000
0.5517 1.6897 0.0000
0.5517 1.7241 0.0000
0.5517 1.7586 0.0000
0.5517 1.7931 0.0000
0.5517 1.8276 0.0000
0.5517 1.8621 0.0000
0.5517 1.8966 0.0000
0.5517 1.9310 0.0000
0.5517 1.9655 0.0000
0.5517 2.0000 0.0000
0.6207 1.0000 0.0000
0.6207 1.0345 0.0000
0.6207 1.0690 0.0000
0.6207 1.1034 0.0000
0.6207 1.1379 0.0000
0.6207 1.1724 0.0000
0.6207 1.2069 0.0000
0.6207 1.2414 0.0000
0.6207 1.2759 0.0000
0.6207 1.3103 0.0000
0.6207 1.3448 0.0000
0.6207 1.3793 0.0000
0.6207 1.4138 0.0000
0.6207 1.4483 0.0000
0.6207 1.4828 0.0000
0.6207 1.5172 0.0000
0.6207 1.5517 0.0000
0.6207 1.5862 0.0000
0.6207 1.6207 0.0000
0.6207 1.6552 0.0000
0.6207 1.6897 0.0000
0.6207 1.7241 0.0000
0.6207 1.7586 0.0000
0.6207 1.7931 0.0000
0.6207 1.8276 0.0000
0.6207 1.8621 0.0000
0.6207 1.8966 0.0000
0.6207 1.9310 0.0000
0.6207 1.9655 0.0000
0.6207 2.0000 0.0000
0.6897 1.0000 0.0000
0.6897 1.0345 0.0000
0.6897 1.0690 0.0000
0.6897 1.1034 0.0000
0.6897 1.1379 0.0000
0.6897 1.1724 0.0000
0.6897 1.2069 0.0000
0.6897 1.2414 0.0000
0.6897 1.2759 0.0000
0.6897 1.3103 0.0000
0.6897 1.3448 0.0000
0.6897 1.3793 0.0000
0.6897 1.4138 0.0000
0.6897 1.4483 0.0000
0.6897 1.4828 0.0000
0.6897 1.5172 0.0000
0.6897 1.5517 0.0000
0.6897 1.5862 0.0000
0.6897 1.6207 0.0000
0.6897 1.6552 0.0000
0.6897 1.6897 0.0000
0.6897 1.7241 0.0000
0.6897 1.7586 0.0000
0.6897 1.7931 0.0000
0.6897 1.8276 0.0000
0.6897 1.8621 0.0000
0.6897 1.8966 0.0000
0.6897 1.9310 0.0000
0.6897 1.9655 0.0000
0.6897 2.0000 0.0000
0.7586 1.0000 0.0000
0.7586 1.0345 0.0000
0.7586 1.0690 0.0000
0.7586 1.1034 0.0000
0.7586 1.1379 0.0000
0.7586 1.1724 0.0000
0.7586 1.2069 0.0000
0.7586 1.2414 0.0000
0.7586 1.2759 0.0000
0.7586 1.3103 0.0000
0.7586 1.3448 0.0000
0.7586 1.3793 0.0000
0.7586 1.4138 0.0000
0.7586 1.4483 0.0000
0.7586 1.4828 0.0000
0.7586 1.5172 0.0000
0.7586 1.5517 0.0000
0.7586 1.5862 0.0000
0.7586 1.6207 0.0000
0.7586 1.6552 0.0000
0.7586 1.6897 0.0000
0.7586 1.7241 0.0000
0.7586 1.7586 0.0000
0.7586 1.7931 0.0000
0.7586 1.8276 0.0000
0.7586 1.8621 0.0000
0.7586 1.8966 0.0000
0.7586 1.9310 0.0000
0.7586 1.9655 0.0000
0.7586 2.0000 0.0000
0.8276 1.0000 0.0000
0.8276 1.0345 0.0000
0.8276 1.0690 0.0000
0.8276 1.1034 0.0000
0.8276 1.1379 0.0000
0.8276 1.1724 0.0000
0.8276 1.2069 0.0000
0.8276 1.2414 0.0000
0.8276 1.2759 0.0000
0.8276 1.3103 0.0000
0.8276 1.3448 0.0000
0.8276 1.3793 0.0000
0.8276 1.4138 0.0000
0.8276 1.4483 0.0000
0.8276 1.4828 0.0000
0.8276 1.5172 0.0000
0.8276 1.5517 0.0000
0.8276 1.5862 0.0000
0.8276 1.6207 0.0000
0.8276 1.6552 0.0000
0.8276 1.6897 0.0000
0.8276 1.7241 0.0000
0.8276 1.7586 0.0000
0.8276 1.7931 0.0000
0.8276 1.8276 0.0000
0.8276 1.8621 0.0000
0.8276 1.8966 0.0000
0.8276 1.9310 0.0000
0.8276 1.9655 0.0000
0.8276 2.0000 0.0000
0.8966 1.0000 0.0000
0.8966 1.0345 0.0000
0.8966 1.0690 0.0000
0.8966 1.1034 0.0000
0.8966 1.1379 0.0000
0.8966 1.1724 0.0000
0.8966 1.2069 0.0000
0.8966 1.2414 0.0000
0.8966 1.2759 0.0000
0.8966 1.3103 0.0000
0.8966 1.3448 0.0000
0.8966 1.3793 0.0000
0.8966 1.4138 0.0000
0.8966 1.4483 0.0000
0.8966 1.4828 0.0000
0.8966 1.5172 0.0000
0.8966 1.5517 0.0000
0.8966 1.5862 0.0000
0.8966 1.6207 0.0000
0.8966 1.6552 0.0000
0.8966 1.6897 0.0000
0.8966 1.7241 0.0000
0.8966 1.7586 0.0000
0.8966 1.7931 0.0000
0.8966 1.8276 0.0000
0.8966 1.8621 0.0000
0.8966 1.8966 0.0000
0.8966 1.9310 0.0000
0.8966 1.9655 0.0000
0.8966 2.0000 0.0000
0.9655 1.0000 0.0000
0.9655 1.0345 0.0000
0.9655 1.0690 0.0000
0.9655 1.1034 0.0000
0.9655 1.1379 0.0000
0.9655 1.1724 0.0000
0.9655 1.2069 0.0000
0.9655 1.2414 0.0000
0.9655 1.2759 0.0000
0.9655 1.3103 0.0000
0.9655 1.3448 0.0000
0.9655 1.3793 0.0000
0.9655 1.4138 0.0000
0.9655 1.4483 0.0000
0.9655 1.4828 0.0000
0.9655 1.5172 0.0000
0.9655 1.5517 0.0000
0.9655 1.5862 0.0000
0.9655 1.6207 0.0000
0.9655 1.6552 0.0000
0.9655 1.6897 0.0000
0.9655 1.7241 0.0000
0.9655 1.7586 0.0000
0.9655 1.7931 0.0000
0.9655 1.8276 0.0000
0.9655 1.8621 0.0000
0.9655 1.8966 0.0000
0.9655 1.9310 0.0000
0.9655 1.9655 0.0000
0.9655 2.0000 0.0000
1.0345 1.0000 0.0000
1.0345 1.0345 0.0000
1.0345 1.0690 0.0000
1.0345 1.1034 0.0000
1.0345 1.1379 0.0000
1.0345 1.1724 0.0000
1.0345 1.2069 0.0000
1.0345 1.2414 0.0000
1.0345 1.2759 0.0000
1.0345 1.3103 0.0000
1.0345 1.3448 0.0000
[...]
         <PointData>
            <DataArray Name="fValues" NumberOfComponents="3" format="ascii" type="Float64">
 5.16009e-18  4.12680e-18        00000 
-3.31166e-18 -1.10389e-18        00000 
 1.54644e-18 -1.00064e-18        00000 
 8.00056e-20  2.80019e-19        00000 
-8.18705e-19  2.09225e-18        00000 
 8.56328e-19 -2.79124e-18        00000 
-2.72902e-19  2.63805e-18        00000 
 4.91463e-19  4.05742e-19        00000 
 1.59193e-19  2.72902e-19        00000 
 1.91775e-19  9.24822e-20        00000 
-1.59193e-19 -6.36771e-19        00000 
 5.08964e-21  2.11443e-19        00000 
 2.70059e-20  5.45803e-19        00000 
 2.12129e-20  3.63060e-20        00000 
 4.83263e-20  1.36451e-18        00000 
-1.73316e-19 -1.42867e-19        00000 
 3.86611e-19  2.72902e-19        00000 
 2.23566e-19 -7.76958e-20        00000 
-4.77578e-19  7.27738e-19        00000 
 1.17151e-19 -9.54352e-19        00000 
 5.00320e-19  9.09672e-19        00000 
 1.79230e-20 -1.39997e-18        00000 
 9.09672e-20 -3.63869e-19        00000 
-9.14349e-20  3.71454e-19        00000 
-3.63869e-19 -1.81934e-19        00000 
-5.41697e-19  3.88748e-19        00000 
 9.09672e-19 -1.27354e-18        00000 
-1.45424e-18  1.20232e-18        00000 
 7.33980e-19 -6.42232e-19        00000 
-2.10891e-18  1.12326e-18        00000 
 1.67699e-02  1.58480e-02        00000 
 1.14127e-02  1.25789e-02        00000 
 8.83384e-03  1.06200e-02        00000 
 7.13372e-03  9.41070e-03        00000 
 5.86656e-03  8.63565e-03        00000 
 4.85140e-03  8.12723e-03        00000 
 3.99831e-03  7.79026e-03        00000 
 3.25626e-03  7.56782e-03        00000 
 2.59342e-03  7.42449e-03        00000 
 1.98849e-03  7.33765e-03        00000 
 1.42634e-03  7.29257e-03        00000 
 8.95696e-04  7.27962e-03        00000 
 3.87774e-04  7.29253e-03        00000 
-1.04615e-04  7.32729e-03        00000 
-5.87667e-04  7.38154e-03        00000 
-1.06706e-03  7.45416e-03        00000 
-1.54837e-03  7.54508e-03        00000 
-2.03746e-03  7.65537e-03        00000 
-2.54092e-03  7.78743e-03        00000 
-3.06657e-03  7.94545e-03        00000 
-3.62417e-03  8.13619e-03        00000 
-4.22637e-03  8.37021e-03        00000 
-4.89040e-03  8.66385e-03        00000 
-5.64073e-03  9.04251e-03        00000 
-6.51434e-03  9.54623e-03        00000 
-7.57110e-03  1.02400e-02        00000 
-8.91758e-03  1.12334e-02        00000 
-1.07703e-02  1.27212e-02        00000 
-1.36665e-02  1.50733e-02        00000 
-1.99057e-02  1.89516e-02        00000 
 2.83080e-02  2.75947e-02        00000 
 2.27521e-02  2.53740e-02        00000 
 1.82525e-02  2.32233e-02        00000 
 1.48800e-02  2.15040e-02        00000 
 1.22412e-02  2.01979e-02        00000 
 1.00928e-02  1.92237e-02        00000 
 8.28366e-03  1.85045e-02        00000 
 6.71607e-03  1.79794e-02        00000 
 5.32413e-03  1.76033e-02        00000 
 4.06148e-03  1.73433e-02        00000 
 2.89432e-03  1.71762e-02        00000 
 1.79722e-03  1.70857e-02        00000 
 7.50329e-04  1.70606e-02        00000 
-2.62442e-04  1.70937e-02        00000 
-1.25482e-03  1.71804e-02        00000 
-2.23929e-03  1.73188e-02        00000 
-3.22806e-03  1.75088e-02        00000 
-4.23405e-03  1.77527e-02        00000 
-5.27190e-03  1.80553e-02        00000 
-6.35916e-03  1.84244e-02        00000 
-7.51785e-03  1.88723e-02        00000 
-8.77656e-03  1.94170e-02        00000 
-1.01736e-02  2.00847e-02        00000 
-1.17620e-02  2.09120e-02        00000 
-1.36179e-02  2.19502e-02        00000 
-1.58547e-02  2.32680e-02        00000 
-1.86498e-02  2.49526e-02        00000 
-2.22908e-02  2.70949e-02        00000 
-2.72456e-02  2.97074e-02        00000 
-3.34209e-02  3.23406e-02        00000 
 3.77409e-02  3.99784e-02        00000 
 3.17555e-02  3.80625e-02        00000 
 2.65858e-02  3.62857e-02        00000 
 2.21819e-02  3.46712e-02        00000 
 1.84799e-02  3.32886e-02        00000 
 1.53392e-02  3.21477e-02        00000 
 1.26317e-02  3.12294e-02        00000 
 1.02548e-02  3.05057e-02        00000 
 8.12931e-03  2.99491e-02        00000 
 6.19409e-03  2.95360e-02        00000 
 4.40182e-03  2.92477e-02        00000 
 2.71540e-03  2.90701e-02        00000 
 1.10524e-03  2.89932e-02        00000 
-4.52988e-04  2.90099e-02        00000 
-1.98011e-03  2.91162e-02        00000 
-3.49508e-03  2.93098e-02        00000 
-5.01644e-03  2.95910e-02        00000 
-6.56379e-03  2.99617e-02        00000 
-8.15935e-03  3.04266e-02        00000 
-9.82961e-03  3.09930e-02        00000 
-1.16073e-02  3.16720e-02        00000 
-1.35340e-02  3.24788e-02        00000 
-1.56628e-02  3.34341e-02        00000 
-1.80631e-02  3.45634e-02        00000 
-2.08250e-02  3.58967e-02        00000 
-2.40656e-02  3.74633e-02        00000 
-2.79314e-02  3.92812e-02        00000 
-3.25821e-02  4.13315e-02        00000 
-3.80820e-02  4.35217e-02        00000 
-4.44726e-02  4.58127e-02        00000 
 4.55181e-02  5.30217e-02        00000 
 3.91114e-02  5.14794e-02        00000 
 3.34229e-02  5.00052e-02        00000 
 2.84085e-02  4.86326e-02        00000 
 2.40010e-02  4.73831e-02        00000 
 2.01253e-02  4.62790e-02        00000 
 1.66937e-02  4.53293e-02        00000 
 1.36219e-02  4.45335e-02        00000 
 1.08353e-02  4.38855e-02        00000 
 8.27107e-03  4.33780e-02        00000 
 5.87714e-03  4.30041e-02        00000 
 3.61092e-03  4.27580e-02        00000 
 1.43743e-03  4.26356e-02        00000 
-6.72466e-04  4.26338e-02        00000 
-2.74388e-03  4.27510e-02        00000 
-4.79969e-03  4.29862e-02        00000 
-6.86224e-03  4.33392e-02        00000 
-8.95519e-03  4.38106e-02        00000 
-1.11053e-02  4.44020e-02        00000 
-1.33441e-02  4.51162e-02        00000 
-1.57100e-02  4.59572e-02        00000 
-1.82503e-02  4.69307e-02        00000 
-2.10228e-02  4.80433e-02        00000 
-2.40974e-02  4.93018e-02        00000 
-2.75569e-02  5.07104e-02        00000 
-3.14946e-02  5.22665e-02        00000 
-3.60057e-02  5.39545e-02        00000 
-4.11680e-02  5.57423e-02        00000 
-4.70465e-02  5.75974e-02        00000 
-5.36745e-02  5.94728e-02        00000 
 5.15986e-02  6.67485e-02        00000 
 4.48752e-02  6.55697e-02        00000 
 3.88321e-02  6.44150e-02        00000 
 3.34108e-02  6.32983e-02        00000 
 2.85477e-02  6.22388e-02        00000 
 2.41733e-02  6.12543e-02        00000 
 2.02166e-02  6.03611e-02        00000 
 1.66070e-02  5.95722e-02        00000 
 1.32787e-02  5.88972e-02        00000 
 1.01728e-02  5.83432e-02        00000 
 7.23892e-03  5.79161e-02        00000 
 4.43461e-03  5.76205e-02        00000 
 1.72470e-03  5.74604e-02        00000 
-9.20069e-04  5.74390e-02        00000 
-3.52468e-03  5.75582e-02        00000 
-6.11164e-03  5.78189e-02        00000 
-8.70284e-03  5.82206e-02        00000 
-1.13215e-02  5.87617e-02        00000 
-1.39942e-02  5.94389e-02        00000 
-1.67526e-02  6.02481e-02        00000 
-1.96348e-02  6.11840e-02        00000 
-2.26873e-02  6.22404e-02        00000 
-2.59652e-02  6.34093e-02        00000 
-2.95324e-02  6.46809e-02        00000 
-3.34601e-02  6.60417e-02        00000 
-3.78233e-02  6.74739e-02        00000 
-4.26956e-02  6.89546e-02        00000 
-4.81467e-02  7.04589e-02        00000 
-5.42363e-02  7.19597e-02        00000 
-6.10153e-02  7.34359e-02        00000 
 5.58933e-02  8.09087e-02        00000 
 4.90100e-02  8.01144e-02        00000 
 4.27871e-02  7.92850e-02        00000 
 3.71536e-02  7.84333e-02        00000 
 3.20383e-02  7.75756e-02        00000 
 2.73698e-02  7.67316e-02        00000 
 2.30781e-02  7.59222e-02        00000 
 1.90968e-02  7.51686e-02        00000 
 1.53647e-02  7.44913e-02        00000 
 1.18275e-02  7.39093e-02        00000 
 8.43862e-03  7.34401e-02        00000 
 5.15966e-03  7.30991e-02        00000 
 1.95972e-03  7.28991e-02        00000 
-1.18576e-03  7.28500e-02        00000 
-4.29654e-03  7.29586e-02        00000 
-7.38953e-03  7.32278e-02        00000 
-1.04809e-02  7.36570e-02        00000 
-1.35880e-02  7.42417e-02        00000 
-1.67321e-02  7.49733e-02        00000 
-1.99394e-02  7.58402e-02        00000 
-2.32433e-02  7.68272e-02        00000 
-2.66852e-02  7.79163e-02        00000 
-3.03149e-02  7.90869e-02        00000 
-3.41904e-02  8.03159e-02        00000 
-3.83762e-02  8.15784e-02        00000 
-4.29413e-02  8.28478e-02        00000 
-4.79572e-02  8.40978e-02        00000 
-5.34949e-02  8.53028e-02        00000 
-5.96237e-02  8.64409e-02        00000 
-6.64099e-02  8.74950e-02        00000 
 5.82795e-02  9.51464e-02        00000 
 5.14414e-02  9.47561e-02        00000 
 4.52464e-02  9.42603e-02        00000 
 3.96105e-02  9.36725e-02        00000 
 3.44515e-02  9.30114e-02        00000 
 2.96899e-02  9.23005e-02        00000 
 2.52511e-02  9.15671e-02        00000 
 2.10664e-02  9.08407e-02        00000 
 1.70753e-02  9.01518e-02        00000 
 1.32261e-02  8.95309e-02        00000 
 9.47729e-03  8.90067e-02        00000 
 5.79669e-03  8.86052e-02        00000 
 2.16145e-03  8.83487e-02        00000 
-1.44357e-03  8.82547e-02        00000 
-5.02758e-03  8.83349e-02        00000 
-8.59616e-03  8.85952e-02        00000 
-1.21538e-02  8.90347e-02        00000 
-1.57063e-02  8.96460e-02        00000 
-1.92638e-02  9.04154e-02        00000 
-2.28425e-02  9.13231e-02        00000 
-2.64668e-02  9.23442e-02        00000 
-3.01707e-02  9.34493e-02        00000 
-3.39982e-02  9.46058e-02        00000 
-3.80033e-02  9.57791e-02        00000 
-4.22490e-02  9.69335e-02        00000 
-4.68060e-02  9.80344e-02        00000 
-5.17507e-02  9.90494e-02        00000 
-5.71634e-02  9.99500e-02        00000 
-6.31263e-02  1.00713e-01        00000 
-6.97222e-02  1.01321e-01        00000 
 5.86324e-02  1.09004e-01        00000 
 5.20900e-02  1.09037e-01        00000 
 4.61695e-02  1.08880e-01        00000 
 4.07713e-02  1.08548e-01        00000 
 3.57988e-02  1.08067e-01        00000 
 3.11602e-02  1.07465e-01        00000 
 2.67712e-02  1.06779e-01        00000 
 2.25575e-02  1.06048e-01        00000 
 1.84563e-02  1.05314e-01        00000 
 1.44178e-02  1.04621e-01        00000 
 1.04054e-02  1.04009e-01        00000 
 6.39576e-03  1.03515e-01        00000 
 2.37766e-03  1.03172e-01        00000 
-1.64977e-03  1.03007e-01        00000 
-5.67949e-03  1.03036e-01        00000 
-9.69949e-03  1.03269e-01        00000 
-1.36960e-02  1.03706e-01        00000 
-1.76571e-02  1.04336e-01        00000 
-2.15757e-02  1.05139e-01        00000 
-2.54528e-02  1.06089e-01        00000 
-2.93002e-02  1.07149e-01        00000 
-3.31419e-02  1.08278e-01        00000 
-3.70156e-02  1.09432e-01        00000 
-4.09727e-02  1.10562e-01        00000 
-4.50781e-02  1.11623e-01        00000 
-4.94084e-02  1.12568e-01        00000 
-5.40502e-02  1.13357e-01        00000 
-5.90978e-02  1.13954e-01        00000 
-6.46501e-02  1.14332e-01        00000 
-7.08086e-02  1.14471e-01        00000 
 5.68345e-02  1.21932e-01        00000 
 5.08863e-02  1.22403e-01        00000 
 4.55310e-02  1.22584e-01        00000 
 4.06487e-02  1.22496e-01        00000 
 3.61234e-02  1.22168e-01        00000 
 3.18462e-02  1.21641e-01        00000 
 2.77199e-02  1.20961e-01        00000 
 2.36612e-02  1.20181e-01        00000 
 1.96035e-02  1.19357e-01        00000 
 1.54980e-02  1.18544e-01        00000 
 1.13145e-02  1.17798e-01        00000 
 7.04095e-03  1.17169e-01        00000 
 2.68183e-03  1.16702e-01        00000 
-1.74419e-03  1.16433e-01        00000 
-6.20744e-03  1.16385e-01        00000 
-1.06713e-02  1.16572e-01        00000 
-1.50964e-02  1.16995e-01        00000 
-1.94456e-02  1.17639e-01        00000 
-2.36881e-02  1.18481e-01        00000 
-2.78040e-02  1.19484e-01        00000 
-3.17875e-02  1.20600e-01        00000 
-3.56497e-02  1.21776e-01        00000 
-3.94207e-02  1.22954e-01        00000 
-4.31496e-02  1.24070e-01        00000 
-4.69047e-02  1.25064e-01        00000 
-5.07718e-02  1.25878e-01        00000 
-5.48516e-02  1.26458e-01        00000 
-5.92571e-02  1.26760e-01        00000 
-6.41089e-02  1.26749e-01        00000 
-6.95318e-02  1.26398e-01        00000 
 5.27830e-02  1.33278e-01        00000 
 4.77820e-02  1.34199e-01        00000 
 4.33316e-02  1.34713e-01        00000 
 3.92847e-02  1.34847e-01        00000 
 3.54997e-02  1.34643e-01        00000 
 3.18469e-02  1.34154e-01        00000 
 2.82124e-02  1.33438e-01        00000 
 2.45021e-02  1.32564e-01        00000 
 2.06446e-02  1.31601e-01        00000 
 1.65926e-02  1.30622e-01        00000 
 1.23237e-02  1.29697e-01        00000 
 7.83993e-03  1.28889e-01        00000 
 3.16602e-03  1.28258e-01        00000 
-1.65389e-03  1.27849e-01        00000 
-6.56037e-03  1.27696e-01        00000 
-1.14840e-02  1.27817e-01        00000 
-1.63514e-02  1.28213e-01        00000 
-2.10918e-02  1.28868e-01        00000 
-2.56426e-02  1.29753e-01        00000 
-2.99562e-02  1.30820e-01        00000 
-3.40037e-02  1.32010e-01        00000 
-3.77795e-02  1.33257e-01        00000 
-4.13033e-02  1.34485e-01        00000 
-4.46213e-02  1.35617e-01        00000 
-4.78057e-02  1.36575e-01        00000 
-5.09531e-02  1.37286e-01        00000 
-5.41820e-02  1.37681e-01        00000 
-5.76283e-02  1.37702e-01        00000 
-6.14405e-02  1.37303e-01        00000 
-6.57733e-02  1.36449e-01        00000 
 4.64052e-02  1.42273e-01        00000 
 4.27667e-02  1.43646e-01        00000 
 3.96112e-02  1.44478e-01        00000 
 3.67562e-02  1.44814e-01        00000 
 3.40307e-02  1.44708e-01        00000 
 3.12817e-02  1.44229e-01        00000 
 2.83779e-02  1.43451e-01        00000 
 2.52143e-02  1.42456e-01        00000 
 2.17148e-02  1.41329e-01        00000 
 1.78339e-02  1.40156e-01        00000 
 1.35585e-02  1.39021e-01        00000 
 8.90730e-03  1.38004e-01        00000 
 3.92940e-03  1.37178e-01        00000 
-1.29941e-03  1.36600e-01        00000 
-6.68197e-03  1.36314e-01        00000 
-1.21068e-02  1.36346e-01        00000 
-1.74565e-02  1.36697e-01        00000 
-2.26163e-02  1.37351e-01        00000 
-2.74832e-02  1.38270e-01        00000 
-3.19736e-02  1.39398e-01        00000 
-3.60298e-02  1.40664e-01        00000 
-3.96249e-02  1.41986e-01        00000 
-4.27655e-02  1.43273e-01        00000 
-4.54929e-02  1.44432e-01        00000 
-4.78823e-02  1.45371e-01        00000 
-5.00416e-02  1.45997e-01        00000 
-5.21074e-02  1.46228e-01        00000 
-5.42415e-02  1.45986e-01        00000 
-5.66249e-02  1.45209e-01        00000 
-5.94507e-02  1.43849e-01        00000 
 3.76927e-02  1.48005e-01        00000 
 3.58979e-02  1.49813e-01        00000 
 3.44664e-02  1.50942e-01        00000 
 3.31778e-02  1.51460e-01        00000 
 3.18343e-02  1.51447e-01        00000 
 3.02640e-02  1.50985e-01        00000 
 2.83236e-02  1.50163e-01        00000 
 2.59003e-02  1.49071e-01        00000 
 2.29142e-02  1.47804e-01        00000 
 1.93219e-02  1.46457e-01        00000 
 1.51184e-02  1.45124e-01        00000 
 1.03394e-02  1.43900e-01        00000 
 5.06091e-03  1.42870e-01        00000 
-6.04362e-04  1.42108e-01        00000 
-6.51311e-03  1.41669e-01        00000 
-1.25009e-02  1.41585e-01        00000 
-1.83940e-02  1.41865e-01        00000 
-2.40220e-02  1.42488e-01        00000 
-2.92305e-02  1.43408e-01        00000 
-3.38920e-02  1.44561e-01        00000 
-3.79145e-02  1.45861e-01        00000 
-4.12468e-02  1.47215e-01        00000 
-4.38808e-02  1.48519e-01        00000 
-4.58514e-02  1.49669e-01        00000 
-4.72350e-02  1.50560e-01        00000 
-4.81464e-02  1.51090e-01        00000 
-4.87366e-02  1.51157e-01        00000 
-4.91890e-02  1.50668e-01        00000 
-4.97162e-02  1.49534e-01        00000 
-5.05533e-02  1.47683e-01        00000 
 2.67741e-02  1.49407e-01        00000 
 2.73548e-02  1.51598e-01        00000 
 2.80780e-02  1.52989e-01        00000 
 2.86995e-02  1.53689e-01        00000 
 2.90144e-02  1.53805e-01        00000 
 2.88521e-02  1.53436e-01        00000 
 2.80723e-02  1.52674e-01        00000 
 2.65631e-02  1.51605e-01        00000 
 2.42429e-02  1.50317e-01        00000 
 2.10659e-02  1.48903e-01        00000 
 1.70291e-02  1.47459e-01        00000 
 1.21790e-02  1.46087e-01        00000 
 6.61548e-03  1.44887e-01        00000 
 4.91116e-04  1.43950e-01        00000 
-5.99617e-03  1.43348e-01        00000 
-1.26157e-02  1.43124e-01        00000 
-1.91215e-02  1.43290e-01        00000 
-2.52720e-02  1.43825e-01        00000 
-3.08490e-02  1.44674e-01        00000 
-3.56740e-02  1.45758e-01        00000 
-3.96184e-02  1.46981e-01        00000 
-4.26090e-02  1.48239e-01        00000 
-4.46267e-02  1.49425e-01        00000 
-4.57025e-02  1.50434e-01        00000 
-4.59111e-02  1.51164e-01        00000 
-4.53664e-02  1.51513e-01        00000 
-4.42181e-02  1.51373e-01        00000 
-4.26531e-02  1.50634e-01        00000 
-4.08969e-02  1.49178e-01        00000 
-3.92154e-02  1.46886e-01        00000 
 1.40495e-02  1.45288e-01        00000 
 1.75261e-02  1.47753e-01        00000 
 2.07482e-02  1.49351e-01        00000 
 2.34976e-02  1.50259e-01        00000 
 2.56141e-02  1.50617e-01        00000 
 2.69737e-02  1.50527e-01        00000 
 2.74709e-02  1.50064e-01        00000 
 2.70105e-02  1.49285e-01        00000 
 2.55091e-02  1.48242e-01        00000 
 2.29059e-02  1.47001e-01        00000 
 1.91802e-02  1.45643e-01        00000 
 1.43696e-02  1.44271e-01        00000 
 8.58445e-03  1.42997e-01        00000 
 2.01356e-03  1.41934e-01        00000 
-5.08207e-03  1.41177e-01        00000 
-1.23873e-02  1.40788e-01        00000 
-1.95608e-02  1.40786e-01        00000 
-2.62675e-02  1.41143e-01        00000 
-3.22104e-02  1.41793e-01        00000 
-3.71547e-02  1.42638e-01        00000 
-4.09418e-02  1.43570e-01        00000 
-4.34904e-02  1.44479e-01        00000 
-4.47876e-02  1.45268e-01        00000 
-4.48730e-02  1.45855e-01        00000 
-4.38217e-02  1.46167e-01        00000 
-4.17324e-02  1.46130e-01        00000 
-3.87234e-02  1.45656e-01        00000 
-3.49394e-02  1.44630e-01        00000 
-3.05666e-02  1.42899e-01        00000 
-2.58526e-02  1.40280e-01        00000 
 3.94706e-04  1.34493e-01        00000 
 7.12884e-03  1.37023e-01        00000 
 1.29482e-02  1.38747e-01        00000 
 1.77664e-02  1.39923e-01        00000 
 2.15653e-02  1.40722e-01        00000 
 2.43457e-02  1.41231e-01        00000 
 2.60906e-02  1.41474e-01        00000 
 2.67465e-02  1.41434e-01        00000 
 2.62237e-02  1.41089e-01        00000 
 2.44188e-02  1.40435e-01        00000 
 2.12504e-02  1.39510e-01        00000 
 1.67021e-02  1.38401e-01        00000 
 1.08601e-02  1.37232e-01        00000 
 3.93448e-03  1.36147e-01        00000 
-3.74230e-03  1.35275e-01        00000 
-1.17431e-02  1.34705e-01        00000 
-1.95935e-02  1.34467e-01        00000 
-2.68307e-02  1.34523e-01        00000 
-3.30580e-02  1.34782e-01        00000 
-3.79854e-02  1.35122e-01        00000 
-4.14461e-02  1.35418e-01        00000 
-4.33879e-02  1.35567e-01        00000 
-4.38449e-02  1.35503e-01        00000 
-4.28983e-02  1.35199e-01        00000 
-4.06371e-02  1.34653e-01        00000 
-3.71300e-02  1.33867e-01        00000 
-3.24149e-02  1.32814e-01        00000 
-2.65131e-02  1.31405e-01        00000 
-1.94648e-02  1.29468e-01        00000 
-1.13821e-02  1.26735e-01        00000 
-1.26043e-02  1.16289e-01        00000 
-2.67778e-03  1.18548e-01        00000 
 5.36924e-03  1.20264e-01        00000 
 1.17422e-02  1.21769e-01        00000 
 1.66953e-02  1.23246e-01        00000 
 2.04609e-02  1.24746e-01        00000 
 2.31892e-02  1.26211e-01        00000 
 2.49071e-02  1.27510e-01        00000 
 2.55183e-02  1.28489e-01        00000 
 2.48303e-02  1.29020e-01        00000 
 2.26250e-02  1.29048e-01        00000 
 1.87461e-02  1.28613e-01        00000 
 1.31830e-02  1.27844e-01        00000 
 6.13208e-03  1.26921e-01        00000 
-1.99601e-03  1.26026e-01        00000 
-1.06163e-02  1.25285e-01        00000 
-1.90599e-02  1.24738e-01        00000 