<?xml version="1.0" encoding="utf-8"?>
<VTKFile byte_order="LittleEndian" type="UnstructuredGrid" version="0.1">
   <UnstructuredGrid>
      <Piece NumberOfCells="3364" NumberOfPoints="1741">
         <Points>
            <DataArray Name="Points" NumberOfComponents="3" format="ascii" type="Float32">
0.0000 1.0000 0.0000
0.0000 1.0345 0.0000
0.0000 1.0690 0.0000
0.0000 1.1034 0.0000
0.0000 1.1379 0.0000
0.0000 1.1724 0.0000
0.0000 1.2069 0.0000
0.0000 1.2414 0.0000
0.0000 1.2759 0.0000
0.0000 1.3103 0.0000
0.0000 1.3448 0.0000
0.0000 1.3793 0.0000
0.0000 1.4138 0.0000
0.0000 1.4483 0.0000
0.0000 1.4828 0.0000
0.0000 1.5172 0.0000
0.0000 1.5517 0.0000
0.0000 1.5862 0.0000
0.0000 1.6207 0.0000
0.0000 1.6552 0.0000
0.0000 1.6897 0.0000
0.0000 1.7241 0.0000
0.0000 1.7586 0.0000
0.0000 1.7931 0.0000
0.0000 1.8276 0.0000
0.0000 1.8621 0.0000
0.0000 1.8966 0.0000
0.0000 1.9310 0.0000
0.0000 1.9655 0.0000
0.0000 2.0000 0.0000
0.0690 1.0000 0.0000
0.0690 1.0345 0.0000
0.0690 1.0690 0.0000
0.0690 1.1034 0.0000
0.0690 1.1379 0.0000
0.0690 1.1724 0.0000
0.0690 1.2069 0.0000
0.0690 1.2414 0.0000
0.0690 1.2759 0.0000
0.0690 1.3103 0.0000
0.0690 1.3448 0.0000
0.0690 1.3793 0.0000
0.0690 1.4138 0.0000
0.0690 1.4483 0.0000
0.0690 1.4828 0.0000
0.0690 1.5172 0.0000
0.0690 1.5517 0.0000
0.0690 1.5862 0.0000
0.0690 1.6207 0.0000
0.0690 1.6552 0.0000
0.0690 1.6897 0.0000
0.0690 1.7241 0.0000
0.0690 1.7586 0.0000
0.0690 1.7931 0.0000
0.0690 1.8276 0.0000
0.0690 1.8621 0.0000
0.0690 1.8966 0.0000
0.0690 1.9310 0.0000
0.0690 1.9655 0.0000
0.0690 2.0000 0.0000
0.1379 1.0000 0.0000
0.1379 1.0345 0.0000
0.1379 1.0690 0.0000
0.1379 1.1034 0.0000
0.1379 1.1379 0.0000
0.1379 1.1724 0.0000
0.1379 1.2069 0.0000
0.1379 1.2414 0.0000
0.1379 1.2759 0.0000
0.1379 1.3103 0.0000
0.1379 1.3448 0.0000
0.1379 1.3793 0.0000
0.1379 1.4138 0.0000
0.1379 1.4483 0.0000
0.1379 1.4828 0.0000
0.1379 1.5172 0.0000
0.1379 1.5517 0.0000
0.1379 1.5862 0.0000
0.1379 1.6207 0.0000
0.1379 1.6552 0.0000
0.1379 1.6897 0.0000
0.1379 1.7241 0.0000
0.1379 1.7586 0.0000
0.1379 1.7931 0.0000
0.1379 1.8276 0.0000
0.1379 1.8621 0.0000
0.1379 1.8966 0.0000
0.1379 1.9310 0.0000
0.1379 1.9655 0.0000
0.1379 2.0000 0.0000
0.2069 1.0000 0.0000
0.2069 1.0345 0.0000
0.2069 1.0690 0.0000
0.2069 1.1034 0.0000
0.2069 1.1379 0.0000
0.2069 1.1724 0.0000
0.2069 1.2069 0.0000
0.2069 1.2414 0.0000
0.2069 1.2759 0.0000
0.2069 1.3103 0.0000
0.2069 1.3448 0.0000
0.2069 1.3793 0.0000
0.2069 1.4138 0.0000
0.2069 1.4483 0.0000
0.2069 1.4828 0.0000
0.2069 1.5172 0.0000
0.2069 1.5517 0.0000
0.2069 1.5862 0.0000
0.2069 1.6207 0.0000
0.2069 1.6552 0.0000
0.2069 1.6897 0.0000
0.2069 1.7241 0.0000
0.2069 1.7586 0.0000
0.2069 1.7931 0.0000
0.2069 1.8276 0.0000
0.2069 1.8621 0.0000
0.2069 1.8966 0.0000
0.2069 1.9310 0.0000
0.2069 1.9655 0.0000
0.2069 2.0000 0.0000
0.2759 1.0000 0.0000
0.2759 1.0345 0.0000
0.2759 1.0690 0.0000
0.2759 1.1034 0.0000
0.2759 1.1379 0.0000
0.2759 1.1724 0.0000
0.2759 1.2069 0.0000
0.2759 1.2414 0.0000
0.2759 1.2759 0.0000
0.2759 1.3103 0.0000
0.2759 1.3448 0.0000
0.2759 1.3793 0.0000
0.2759 1.4138 0.0000
0.2759 1.4483 0.0000
0.2759 1.4828 0.0000
0.2759 1.5172 0.0000
0.2759 1.5517 0.0000
0.2759 1.5862 0.0000
0.2759 1.6207 0.0000
0.2759 1.6552 0.0000
0.2759 1.6897 0.0000
0.2759 1.7241 0.0000
0.2759 1.7586 0.0000
0.2759 1.7931 0.0000
0.2759 1.8276 0.0000
0.2759 1.8621 0.0000
0.2759 1.8966 0.0000
0.2759 1.9310 0.0000
0.2759 1.9655 0.0000
0.2759 2.0000 0.0000
0.3448 1.0000 0.0000
0.3448 1.0345 0.0000
0.3448 1.0690 0.0000
0.3448 1.1034 0.0000
0.3448 1.1379 0.0000
0.3448 1.1724 0.0000
0.3448 1.2069 0.0000
0.3448 1.2414 0.0000
0.3448 1.2759 0.0000
0.3448 1.3103 0.0000
0.3448 1.3448 0.0000
0.3448 1.3793 0.0000
0.3448 1.4138 0.0000
0.3448 1.4483 0.0000
0.3448 1.4828 0.0000
0.3448 1.5172 0.0000
0.3448 1.5517 0.0000
0.3448 1.5862 0.0000
0.3448 1.6207 0.0000
0.3448 1.6552 0.0000
0.3448 1.6897 0.0000
0.3448 1.7241 0.0000
0.3448 1.7586 0.0000
0.3448 1.7931 0.0000
0.3448 1.8276 0.0000
0.3448 1.8621 0.0000
0.3448 1.8966 0.0000
0.3448 1.9310 0.0000
0.3448 1.9655 0.0000
0.3448 2.0000 0.0000
0.4138 1.0000 0.0000
0.4138 1.0345 0.0000
0.4138 1.0690 0.0000
0.4138 1.1034 0.0000
0.4138 1.1379 0.0000
0.4138 1.1724 0.0000
0.4138 1.2069 0.0000
0.4138 1.2414 0.0000
0.4138 1.2759 0.0000
0.4138 1.3103 0.0000
0.4138 1.3448 0.0000
0.4138 1.3793 0.0000
0.4138 1.4138 0.0000
0.4138 1.4483 0.0000
0.4138 1.4828 0.0000
0.4138 1.5172 0.0000
0.4138 1.5517 0.0000
0.4138 1.5862 0.0000
0.4138 1.6207 0.0000
0.4138 1.6552 0.0000
0.4138 1.6897 0.0000
0.4138 1.7241 0.0000
0.4138 1.7586 0.0000
0.4138 1.7931 0.0000
0.4138 1.8276 0.0000
0.4138 1.8621 0.0000
0.4138 1.8966 0.0000
0.4138 1.9310 0.0000
0.4138 1.9655 0.0000
0.4138 2.0000 0.0000
0.4828 1.0000 0.0000
0.4828 1.0345 0.0000
0.4828 1.0690 0.0000
0.4828 1.1034 0.0000
0.4828 1.1379 0.0000
0.4828 1.1724 0.0000
0.4828 1.2069 0.0000
0.4828 1.2414 0.0000
0.4828 1.2759 0.0000
0.4828 1.3103 0.0000
0.4828 1.3448 0.0000
0.4828 1.3793 0.0000
0.4828 1.4138 0.0000
0.4828 1.4483 0.0000
0.4828 1.4828 0.0000
0.4828 1.5172 0.0000
0.4828 1.5517 0.0000
0.4828 1.5862 0.0000
0.4828 1.6207 0.0000
0.4828 1.6552 0.0000
0.4828 1.6897 0.0000
0.4828 1.7241 0.0000
0.4828 1.7586 0.0000
0.4828 1.7931 0.0000
0.4828 1.8276 0.0000
0.4828 1.8621 0.0000
0.4828 1.8966 0.0000
0.4828 1.9310 0.0000
0.4828 1.9655 0.0000
0.4828 2.0000 0.0000
0.5517 1.0000 0.0000
0.5517 1.0345 0.0000
0.5517 1.0690 0.0000
0.5517 1.1034 0.0000
0.5517 1.1379 0.0000
0.5517 1.1724 0.0000
0.5517 1.2069 0.0000
0.5517 1.2414 0.0000
0.5517 1.2759 0.0000
0.5517 1.3103 0.0000
0.5517 1.3448 0.0000
0.5517 1.3793 0.0000
0.5517 1.4138 0.0000
0.5517 1.4483 0.0000
0.5517 1.4828 0.0000
0.5517 1.5172 0.0000
0.5517 1.5517 0.0000
0.5517 1.5862 0.0000
0.5517 1.6207 0.0000
0.5517 1.6552 0.0000
0.5517 1.6897 0.0000
0.5517 1.7241 0.0000
0.5517 1.7586 0.0000
0.5517 1.7931 0.0000
0.5517 1.8276 0.0000
0.5517 1.8621 0.0000
0.5517 1.8966 0.0000
0.5517 1.9310 0.0000
0.5517 1.9655 0.0000
0.5517 2.0000 0.0000
0.6207 1.0000 0.0000
0.6207 1.0345 0.0000
0.6207 1.0690 0.0000
0.6207 1.1034 0.0000
0.6207 1.1379 0.0000
0.6207 1.1724 0.0000
0.6207 1.2069 0.0000
0.6207 1.2414 0.0000
0.6207 1.2759 0.0000
0.6207 1.3103 0.0000
0.6207 1.3448 0.0000
0.6207 1.3793 0.0000
0.6207 1.4138 0.0000
0.6207 1.4483 0.0000
0.6207 1.4828 0.0000
0.6207 1.5172 0.0000
0.6207 1.5517 0.0000
0.6207 1.5862 0.0000
0.6207 1.6207 0.0000
0.6207 1.6552 0.0000
0.6207 1.6897 0.0000
0.6207 1.7241 0.0000
0.6207 1.7586 0.0000
0.6207 1.7931 0.0000
0.6207 1.8276 0.0000
0.6207 1.8621 0.0000
0.6207 1.8966 0.0000
0.6207 1.9310 0.0000
0.6207 1.9655 0.0000
0.6207 2.0000 0.0000
0.6897 1.0000 0.0000
0.6897 1.0345 0.0000
0.6897 1.0690 0.0000
0.6897 1.1034 0.0000
0.6897 1.1379 0.0000
0.6897 1.1724 0.0000
0.6897 1.2069 0.0000
0.6897 1.2414 0.0000
0.6897 1.2759 0.0000
0.6897 1.3103 0.0000
0.6897 1.3448 0.0000
0.6897 1.3793 0.0000
0.6897 1.4138 0.0000
0.6897 1.4483 0.0000
0.6897 1.4828 0.0000
0.6897 1.5172 0.0000
0.6897 1.5517 0.0000
0.6897 1.5862 0.0000
0.6897 1.6207 0.0000
0.6897 1.6552 0.0000
0.6897 1.6897 0.0000
0.6897 1.7241 0.0000
0.6897 1.7586 0.0000
0.6897 1.7931 0.0000
0.6897 1.8276 0.0000
0.6897 1.8621 0.0000
0.6897 1.8966 0.0000
0.6897 1.9310 0.0000
0.6897 1.9655 0.0000
0.6897 2.0000 0.0000
0.7586 1.0000 0.0000
0.7586 1.0345 0.0000
0.7586 1.0690 0.0000
0.7586 1.1034 0.0000
0.7586 1.1379 0.0000
0.7586 1.1724 0.0000
0.7586 1.2069 0.0000
0.7586 1.2414 0.0000
0.7586 1.2759 0.0000
0.7586 1.3103 0.0000
0.7586 1.3448 0.0000
0.7586 1.3793 0.0000
0.7586 1.4138 0.0000
0.7586 1.4483 0.0000
0.7586 1.4828 0.0000
0.7586 1.5172 0.0000
0.7586 1.5517 0.0000
0.7586 1.5862 0.0000
0.7586 1.6207 0.0000
0.7586 1.6552 0.0000
0.7586 1.6897 0.0000
0.7586 1.7241 0.0000
0.7586 1.7586 0.0000
0.7586 1.7931 0.0000
0.7586 1.8276 0.0000
0.7586 1.8621 0.0000
0.7586 1.8966 0.0000
0.7586 1.9310 0.0000
0.7586 1.9655 0.0000
0.7586 2.0000 0.0000
0.8276 1.0000 0.0000
0.8276 1.0345 0.0000
0.8276 1.0690 0.0000
0.8276 1.1034 0.0000
0.8276 1.1379 0.0000
0.8276 1.1724 0.0000
0.8276 1.2069 0.0000
0.8276 1.2414 0.0000
0.8276 1.2759 0.0000
0.8276 1.3103 0.0000
0.8276 1.3448 0.0000
0.8276 1.3793 0.0000
0.8276 1.4138 0.0000
0.8276 1.4483 0.0000
0.8276 1.4828 0.0000
0.8276 1.5172 0.0000
0.8276 1.5517 0.0000
0.8276 1.5862 0.0000
0.8276 1.6207 0.0000
0.8276 1.6552 0.0000
0.8276 1.6897 0.0000
0.8276 1.7241 0.0000
0.8276 1.7586 0.0000
0.8276 1.7931 0.0000
0.8276 1.8276 0.0000
0.8276 1.8621 0.0000
0.8276 1.8966 0.0000
0.8276 1.9310 0.0000
0.8276 1.9655 0.0000
0.8276 2.0000 0.0000
0.8966 1.0000 0.0000
0.8966 1.0345 0.0000
0.8966 1.0690 0.0000
0.8966 1.1034 0.0000
0.8966 1.1379 0.0000
0.8966 1.1724 0.0000
0.8966 1.2069 0.0000
0.8966 1.2414 0.0000
0.8966 1.2759 0.0000
0.8966 1.3103 0.0000
0.8966 1.3448 0.0000
0.8966 1.3793 0.0000
0.8966 1.4138 0.0000
0.8966 1.4483 0.0000
0.8966 1.4828 0.0000
0.8966 1.5172 0.0000
0.8966 1.5517 0.0000
0.8966 1.5862 0.0000
0.8966 1.6207 0.0000
0.8966 1.6552 0.0000
0.8966 1.6897 0.0000
0.8966 1.7241 0.0000
0.8966 1.7586 0.0000
0.8966 1.7931 0.0000
0.8966 1.8276 0.0000
0.8966 1.8621 0.0000
0.8966 1.8966 0.0000
0.8966 1.9310 0.0000
0.8966 1.9655 0.0000
0.8966 2.0000 0.0000
0.9655 1.0000 0.0000
0.9655 1.0345 0.0000
0.9655 1.0690 0.0000
0.9655 1.1034 0.0000
0.9655 1.1379 0.0000
0.9655 1.1724 0.0000
0.9655 1.2069 0.0000
0.9655 1.2414 0.0000
0.9655 1.2759 0.0000
0.9655 1.3103 0.0000
0.9655 1.3448 0.0000
0.9655 1.3793 0.0000
0.9655 1.4138 0.0000
0.9655 1.4483 0.0000
0.9655 1.4828 0.0000
0.9655 1.5172 0.0000
0.9655 1.5517 0.0000
0.9655 1.5862 0.0000
0.9655 1.6207 0.0000
0.9655 1.6552 0.0000
0.9655 1.6897 0.0000
0.9655 1.7241 0.0000
0.9655 1.7586 0.0000
0.9655 1.7931 0.0000
0.9655 1.8276 0.0000
0.9655 1.8621 0.0000
0.9655 1.8966 0.0000
0.9655 1.9310 0.0000
0.9655 1.9655 0.0000
0.9655 2.0000 0.0000
1.0345 1.0000 0.0000
1.0345 1.0345 0.0000
1.0345 1.0690 0.0000
1.0345 1.1034 0.0000
1.0345 1.1379 0.0000
1.0345 1.1724 0.0000
1.0345 1.2069 0.0000
1.0345 1.2414 0.0000
1.0345 1.2759 0.0000
1.0345 1.3103 0.0000
1.0345 1.3448 0.0000
[...]
         <PointData>
            <DataArray Name="fValues" NumberOfComponents="3" format="ascii" type="Float64">
-1.83981e-19  1.14669e-18        00000 
 7.35924e-19 -7.35924e-19        00000 
-1.81934e-19 -5.45803e-19        00000 
 1.33724e-18 -1.71440e-20        00000 
 7.27738e-19  2.72902e-19        00000 
 9.92496e-19 -1.35661e-19        00000 
 2.72902e-19  1.81934e-19        00000 
-9.25779e-19 -8.17200e-19        00000 
 3.18385e-19  1.09161e-18        00000 
 5.96833e-19  4.05058e-19        00000 
-6.82254e-19 -4.54836e-19        00000 
 5.07535e-19  9.65781e-19        00000 
-3.18385e-19 -1.54644e-18        00000 
 1.85020e-19  1.13049e-19        00000 
-8.52818e-20  2.72902e-19        00000 
 2.46803e-19 -3.02878e-19        00000 
-6.82254e-19        00000        00000 
-1.35318e-19  6.95678e-19        00000 
-6.36771e-19  6.36771e-19        00000 
 6.74333e-19 -1.28009e-18        00000 
-3.63869e-19 -7.27738e-19        00000 
-9.89239e-19 -1.49745e-18        00000 
-4.54836e-19  3.63869e-19        00000 
-3.54310e-19 -7.54338e-19        00000 
-1.45548e-18  1.81934e-18        00000 
 1.26917e-18 -1.21490e-18        00000 
-9.09672e-19 -3.63869e-19        00000 
-1.48859e-18  2.27869e-18        00000 
-4.58737e-19 -3.85339e-18        00000 
 1.14684e-19  6.73959e-18        00000 
 2.50707e-02  2.21953e-02        00000 
 1.78339e-02  1.71285e-02        00000 
 1.43544e-02  1.39076e-02        00000 
 1.20083e-02  1.17721e-02        00000 
 1.02050e-02  1.02882e-02        00000 
 8.71181e-03  9.22226e-03        00000 
 7.41587e-03  8.43935e-03        00000 
 6.25449e-03  7.85692e-03        00000 
 5.18918e-03  7.42218e-03        00000 
 4.19441e-03  7.10024e-03        00000 
 3.25211e-03  6.86748e-03        00000 
 2.34875e-03  6.70777e-03        00000 
 1.47369e-03  6.61012e-03        00000 
 6.18079e-04  6.56726e-03        00000 
-2.25811e-04  6.57473e-03        00000 
-1.06512e-03  6.63039e-03        00000 
-1.90685e-03  6.73416e-03        00000 
-2.75829e-03  6.88810e-03        00000 
-3.62747e-03  7.09661e-03        00000 
-4.52371e-03  7.36704e-03        00000 
-5.45842e-03  7.71066e-03        00000 
-6.44620e-03  8.14421e-03        00000 
-7.50674e-03  8.69238e-03        00000 
-8.66803e-03  9.39203e-03        00000 
-9.97250e-03  1.02993e-02        00000 
-1.14896e-02  1.15027e-02        00000 
-1.33449e-02  1.31477e-02        00000 
-1.57979e-02  1.54883e-02        00000 
-1.95083e-02  1.89992e-02        00000 
-2.74001e-02  2.45165e-02        00000 
 4.34180e-02  3.72860e-02        00000 
 3.61624e-02  3.35938e-02        00000 
 3.00640e-02  2.99800e-02        00000 
 2.53561e-02  2.69830e-02        00000 
 2.15525e-02  2.45964e-02        00000 
 1.83524e-02  2.27172e-02        00000 
 1.55706e-02  2.12428e-02        00000 
 1.30881e-02  2.00897e-02        00000 
 1.08249e-02  1.91939e-02        00000 
 8.72482e-03  1.85078e-02        00000 
 6.74657e-03  1.79960e-02        00000 
 4.85872e-03  1.76332e-02        00000 
 3.03635e-03  1.74011e-02        00000 
 1.25879e-03  1.72876e-02        00000 
-4.91928e-04  1.72849e-02        00000 
-2.23234e-03  1.73893e-02        00000 
-3.97862e-03  1.76010e-02        00000 
-5.74763e-03  1.79235e-02        00000 
-7.55803e-03  1.83648e-02        00000 
-9.43159e-03  1.89376e-02        00000 
-1.13949e-02  1.96606e-02        00000 
-1.34818e-02  2.05606e-02        00000 
-1.57370e-02  2.16746e-02        00000 
-1.82220e-02  2.30534e-02        00000 
-2.10245e-02  2.47652e-02        00000 
-2.42756e-02  2.68994e-02        00000 
-2.81807e-02  2.95662e-02        00000 
-3.30744e-02  3.28760e-02        00000 
-3.94995e-02  3.68310e-02        00000 
-4.72073e-02  4.08275e-02        00000 
 5.95833e-02  5.32071e-02        00000 
 5.16662e-02  4.98055e-02        00000 
 4.45881e-02  4.66385e-02        00000 
 3.83544e-02  4.37301e-02        00000 
 3.29424e-02  4.11824e-02        00000 
 2.82029e-02  3.90155e-02        00000 
 2.39910e-02  3.72073e-02        00000 
 2.01880e-02  3.57207e-02        00000 
 1.67008e-02  3.45178e-02        00000 
 1.34566e-02  3.35644e-02        00000 
 1.03980e-02  3.28324e-02        00000 
 7.47916e-03  3.22996e-02        00000 
 4.66231e-03  3.19495e-02        00000 
 1.91561e-03  3.17703e-02        00000 
-7.88989e-04  3.17545e-02        00000 
-3.47745e-03  3.18985e-02        00000 
-6.17520e-03  3.22024e-02        00000 
-8.90868e-03  3.26699e-02        00000 
-1.17070e-02  3.33087e-02        00000 
-1.46035e-02  3.41308e-02        00000 
-1.76385e-02  3.51537e-02        00000 
-2.08610e-02  3.64002e-02        00000 
-2.43332e-02  3.78997e-02        00000 
-2.81340e-02  3.96880e-02        00000 
-3.23651e-02  4.18046e-02        00000 
-3.71566e-02  4.42876e-02        00000 
-4.26679e-02  4.71581e-02        00000 
-4.90634e-02  5.03895e-02        00000 
-5.63673e-02  5.38625e-02        00000 
-6.45694e-02  5.75417e-02        00000 
 7.40743e-02  7.04171e-02        00000 
 6.53333e-02  6.74297e-02        00000 
 5.73325e-02  6.46131e-02        00000 
 5.00623e-02  6.20020e-02        00000 
 4.34772e-02  5.96198e-02        00000 
 3.75146e-02  5.74950e-02        00000 
 3.20866e-02  5.56393e-02        00000 
 2.71024e-02  5.40502e-02        00000 
 2.24784e-02  5.27177e-02        00000 
 1.81416e-02  5.16288e-02        00000 
 1.40301e-02  5.07706e-02        00000 
 1.00910e-02  5.01318e-02        00000 
 6.27935e-03  4.97035e-02        00000 
 2.55612e-03  4.94788e-02        00000 
-1.11363e-03  4.94536e-02        00000 
-4.76250e-03  4.96256e-02        00000 
-8.42249e-03  4.99948e-02        00000 
-1.21268e-02  5.05634e-02        00000 
-1.59114e-02  5.13356e-02        00000 
-1.98172e-02  5.23182e-02        00000 
-2.38918e-02  5.35201e-02        00000 
-2.81913e-02  5.49526e-02        00000 
-3.27823e-02  5.66285e-02        00000 
-3.77432e-02  5.85600e-02        00000 
-4.31643e-02  6.07561e-02        00000 
-4.91436e-02  6.32165e-02        00000 
-5.57756e-02  6.59246e-02        00000 
-6.31259e-02  6.88445e-02        00000 
-7.12402e-02  7.19448e-02        00000 
-8.01215e-02  7.51806e-02        00000 
 8.67101e-02  8.92323e-02        00000 
 7.71719e-02  8.66659e-02        00000 
 6.83635e-02  8.42393e-02        00000 
 6.02418e-02  8.19573e-02        00000 
 5.27561e-02  7.98357e-02        00000 
 4.58444e-02  7.78904e-02        00000 
 3.94388e-02  7.61373e-02        00000 
 3.34669e-02  7.45878e-02        00000 
 2.78572e-02  7.32492e-02        00000 
 2.25431e-02  7.21254e-02        00000 
 1.74646e-02  7.12183e-02        00000 
 1.25687e-02  7.05291e-02        00000 
 7.80895e-03  7.00584e-02        00000 
 3.14447e-03  6.98066e-02        00000 
-1.46174e-03  6.97740e-02        00000 
-6.04424e-03  6.99608e-02        00000 
-1.06370e-02  7.03668e-02        00000 
-1.52751e-02  7.09916e-02        00000 
-1.99966e-02  7.18345e-02        00000 
-2.48440e-02  7.28946e-02        00000 
-2.98660e-02  7.41706e-02        00000 
-3.51183e-02  7.56604e-02        00000 
-4.06644e-02  7.73605e-02        00000 
-4.65750e-02  7.92650e-02        00000 
-5.29260e-02  8.13638e-02        00000 
-5.97936e-02  8.36415e-02        00000 
-6.72489e-02  8.60772e-02        00000 
-7.53550e-02  8.86494e-02        00000 
-8.41617e-02  9.13361e-02        00000 
-9.37086e-02  9.41272e-02        00000 
 9.72550e-02  1.09506e-01        00000 
 8.70444e-02  1.07412e-01        00000 
 7.75795e-02  1.05403e-01        00000 
 6.87928e-02  1.03479e-01        00000 
 6.06165e-02  1.01651e-01        00000 
 5.29825e-02  9.99320e-02        00000 
 4.58210e-02  9.83395e-02        00000 
 3.90636e-02  9.68915e-02        00000 
 3.26440e-02  9.56054e-02        00000 
 2.65003e-02  9.44972e-02        00000 
 2.05766e-02  9.35813e-02        00000 
 1.48231e-02  9.28701e-02        00000 
 9.19648e-03  9.23741e-02        00000 
 3.65889e-03  9.21013e-02        00000 
-1.82344e-03  9.20573e-02        00000 
-7.28167e-03  9.22447e-02        00000 
-1.27462e-02  9.26635e-02        00000 
-1.82486e-02  9.33103e-02        00000 
-2.38233e-02  9.41792e-02        00000 
-2.95093e-02  9.52613e-02        00000 
-3.53515e-02  9.65449e-02        00000 
-4.14015e-02  9.80160e-02        00000 
-4.77176e-02  9.96581e-02        00000 
-5.43643e-02  1.01452e-01        00000 
-6.14104e-02  1.03378e-01        00000 
-6.89270e-02  1.05413e-01        00000 
-7.69857e-02  1.07535e-01        00000 
-8.56559e-02  1.09725e-01        00000 
-9.50056e-02  1.11971e-01        00000 
-1.05102e-01  1.14264e-01        00000 
 1.05428e-01  1.30906e-01        00000 
 9.47514e-02  1.29336e-01        00000 
 8.48394e-02  1.27777e-01        00000 
 7.56041e-02  1.26231e-01        00000 
 6.69612e-02  1.24707e-01        00000 
 5.88294e-02  1.23223e-01        00000 
 5.11315e-02  1.21800e-01        00000 
 4.37943e-02  1.20461e-01        00000 
 3.67509e-02  1.19235e-01        00000 
 2.99408e-02  1.18147e-01        00000 
 2.33117e-02  1.17224e-01        00000 
 1.68188e-02  1.16488e-01        00000 
 1.04251e-02  1.15961e-01        00000 
 4.10036e-03  1.15658e-01        00000 
-2.18077e-03  1.15590e-01        00000 
-8.44027e-03  1.15763e-01        00000 
-1.46991e-02  1.16178e-01        00000 
-2.09794e-02  1.16828e-01        00000 
-2.73067e-02  1.17701e-01        00000 
-3.37117e-02  1.18781e-01        00000 
-4.02321e-02  1.20046e-01        00000 
-4.69134e-02  1.21471e-01        00000 
-5.38093e-02  1.23027e-01        00000 
-6.09813e-02  1.24685e-01        00000 
-6.84982e-02  1.26415e-01        00000 
-7.64346e-02  1.28188e-01        00000 
-8.48699e-02  1.29978e-01        00000 
-9.38870e-02  1.31765e-01        00000 
-1.03572e-01  1.33533e-01        00000 
-1.14015e-01  1.35277e-01        00000 
 1.10947e-01  1.52940e-01        00000 
 1.00079e-01  1.51946e-01        00000 
 8.99895e-02  1.50867e-01        00000 
 8.05707e-02  1.49710e-01        00000 
 7.17204e-02  1.48488e-01        00000 
 6.33415e-02  1.47225e-01        00000 
 5.53439e-02  1.45949e-01        00000 
 4.76459e-02  1.44693e-01        00000 
 4.01754e-02  1.43496e-01        00000 
 3.28713e-02  1.42397e-01        00000 
 2.56842e-02  1.41434e-01        00000 
 1.85758e-02  1.40643e-01        00000 
 1.15187e-02  1.40056e-01        00000 
 4.49487e-03  1.39698e-01        00000 
-2.50694e-03  1.39586e-01        00000 
-9.49322e-03  1.39731e-01        00000 
-1.64689e-02  1.40131e-01        00000 
-2.34404e-02  1.40780e-01        00000 
-3.04183e-02  1.41658e-01        00000 
-3.74205e-02  1.42740e-01        00000 
-4.44738e-02  1.43994e-01        00000 
-5.16160e-02  1.45382e-01        00000 
-5.88965e-02  1.46865e-01        00000 
-6.63765e-02  1.48399e-01        00000 
-7.41287e-02  1.49943e-01        00000 
-8.22360e-02  1.51458e-01        00000 
-9.07902e-02  1.52913e-01        00000 
-9.98907e-02  1.54279e-01        00000 
-1.09643e-01  1.55538e-01        00000 
-1.20160e-01  1.56680e-01        00000 
 1.13535e-01  1.74982e-01        00000 
 1.02818e-01  1.74611e-01        00000 
 9.28836e-02  1.74038e-01        00000 
 8.36041e-02  1.73273e-01        00000 
 7.48551e-02  1.72338e-01        00000 
 6.65195e-02  1.71263e-01        00000 
 5.84899e-02  1.70089e-01        00000 
 5.06717e-02  1.68862e-01        00000 
 4.29850e-02  1.67635e-01        00000 
 3.53665e-02  1.66463e-01        00000 
 2.77698e-02  1.65401e-01        00000 
 2.01656e-02  1.64501e-01        00000 
 1.25401e-02  1.63807e-01        00000 
 4.89285e-03  1.63356e-01        00000 
-2.76629e-03  1.63173e-01        00000 
-1.04208e-02  1.63273e-01        00000 
-1.80519e-02  1.63656e-01        00000 
-2.56422e-02  1.64311e-01        00000 
-3.31809e-02  1.65212e-01        00000 
-4.06667e-02  1.66325e-01        00000 
-4.81115e-02  1.67603e-01        00000 
-5.55428e-02  1.68994e-01        00000 
-6.30049e-02  1.70443e-01        00000 
-7.05600e-02  1.71891e-01        00000 
-7.82872e-02  1.73282e-01        00000 
-8.62815e-02  1.74564e-01        00000 
-9.46514e-02  1.75693e-01        00000 
-1.03517e-01  1.76631e-01        00000 
-1.13006e-01  1.77353e-01        00000 
-1.23253e-01  1.77843e-01        00000 
 1.12924e-01  1.96273e-01        00000 
 1.02770e-01  1.96569e-01        00000 
 9.33954e-02  1.96521e-01        00000 
 8.46443e-02  1.96143e-01        00000 
 7.63643e-02  1.95465e-01        00000 
 6.84118e-02  1.94530e-01        00000 
 6.06563e-02  1.93393e-01        00000 
 5.29859e-02  1.92119e-01        00000 
 4.53099e-02  1.90780e-01        00000 
 3.75618e-02  1.89454e-01        00000 
 2.96998e-02  1.88213e-01        00000 
 2.17068e-02  1.87130e-01        00000 
 1.35878e-02  1.86267e-01        00000 
 5.36759e-03  1.85674e-01        00000 
-2.91451e-03  1.85387e-01        00000 
-1.12094e-02  1.85426e-01        00000 
-1.94645e-02  1.85793e-01        00000 
-2.76294e-02  1.86471e-01        00000 
-3.56625e-02  1.87429e-01        00000 
-4.35359e-02  1.88616e-01        00000 
-5.12406e-02  1.89973e-01        00000 
-5.87897e-02  1.91428e-01        00000 
-6.62210e-02  1.92906e-01        00000 
-7.35975e-02  1.94328e-01        00000 
-8.10071e-02  1.95619e-01        00000 
-8.85606e-02  1.96707e-01        00000 
-9.63886e-02  1.97532e-01        00000 
-1.04637e-01  1.98045e-01        00000 
-1.13463e-01  1.98209e-01        00000 
-1.23029e-01  1.98003e-01        00000 
 1.08859e-01  2.15910e-01        00000 
 9.97602e-02  2.16915e-01        00000 
 9.14287e-02  2.17402e-01        00000 
 8.36700e-02  2.17395e-01        00000 
 7.62930e-02  2.16933e-01        00000 
 6.91181e-02  2.16076e-01        00000 
 6.19850e-02  2.14899e-01        00000 
 5.47589e-02  2.13490e-01        00000 
 4.73359e-02  2.11946e-01        00000 
 3.96457e-02  2.10368e-01        00000 
 3.16533e-02  2.08858e-01        00000 
 2.33580e-02  2.07509e-01        00000 
 1.47915e-02  2.06405e-01        00000 
 6.01230e-03  2.05615e-01        00000 
-2.89942e-03  2.05187e-01        00000 
-1.18500e-02  2.05148e-01        00000 
-2.07402e-02  2.05502e-01        00000 
-2.94745e-02  2.06227e-01        00000 
-3.79689e-02  2.07280e-01        00000 
-4.61593e-02  2.08598e-01        00000 
-5.40079e-02  2.10099e-01        00000 
-6.15080e-02  2.11691e-01        00000 
-6.86874e-02  2.13273e-01        00000 
-7.56099e-02  2.14742e-01        00000 
-8.23740e-02  2.15996e-01        00000 
-8.91106e-02  2.16943e-01        00000 
-9.59785e-02  2.17500e-01        00000 
-1.03158e-01  2.17600e-01        00000 
-1.10844e-01  2.17195e-01        00000 
-1.19239e-01  2.16254e-01        00000 
 1.01095e-01  2.32823e-01        00000 
 9.36419e-02  2.34569e-01        00000 
 8.69293e-02  2.35595e-01        00000 
 8.07083e-02  2.35933e-01        00000 
 7.47362e-02  2.35641e-01        00000 
 6.87877e-02  2.34798e-01        00000 
 6.26648e-02  2.33505e-01        00000 
 5.62056e-02  2.31876e-01        00000 
 4.92899e-02  2.30037e-01        00000 
 4.18440e-02  2.28118e-01        00000 
 3.38421e-02  2.26251e-01        00000 
 2.53060e-02  2.24556e-01        00000 
 1.63019e-02  2.23143e-01        00000 
 6.93412e-03  2.22102e-01        00000 
-2.66317e-03  2.21497e-01        00000 
-1.23362e-02  2.21363e-01        00000 
-2.19237e-02  2.21706e-01        00000 
-3.12689e-02  2.22498e-01        00000 
-4.02317e-02  2.23685e-01        00000 
-4.86995e-02  2.25184e-01        00000 
-5.65961e-02  2.26890e-01        00000 
-6.38884e-02  2.28686e-01        00000 
-7.05907e-02  2.30442e-01        00000 
-7.67659e-02  2.32025e-01        00000 
-8.25245e-02  2.33308e-01        00000 
-8.80213e-02  2.34167e-01        00000 
-9.34495e-02  2.34498e-01        00000 
-9.90330e-02  2.34208e-01        00000 
-1.05017e-01  2.33232e-01        00000 
-1.11656e-01  2.31526e-01        00000 
 8.94255e-02  2.45724e-01        00000 
 8.43259e-02  2.48233e-01        00000 
 7.99049e-02  2.49789e-01        00000 
 7.58430e-02  2.50446e-01        00000 
 7.18344e-02  2.50285e-01        00000 
 6.76012e-02  2.49413e-01        00000 
 6.29039e-02  2.47957e-01        00000 
 5.75504e-02  2.46060e-01        00000 
 5.14031e-02  2.43875e-01        00000 
 4.43845e-02  2.41562e-01        00000 
 3.64804e-02  2.39282e-01        00000 
 2.77401e-02  2.37189e-01        00000 
 1.82732e-02  2.35418e-01        00000 
 8.24258e-03  2.34086e-01        00000 
-2.14701e-03  2.33274e-01        00000 
-1.26631e-02  2.33029e-01        00000 
-2.30621e-02  2.33359e-01        00000 
-3.31072e-02  2.34229e-01        00000 
-4.25850e-02  2.35569e-01        00000 
-5.13207e-02  2.37274e-01        00000 
-5.91898e-02  2.39215e-01        00000 
-6.61264e-02  2.41245e-01        00000 
-7.21274e-02  2.43206e-01        00000 
-7.72538e-02  2.44937e-01        00000 
-8.16279e-02  2.46281e-01        00000 
-8.54296e-02  2.47089e-01        00000 
-8.88899e-02  2.47224e-01        00000 
-9.22820e-02  2.46571e-01        00000 
-9.59114e-02  2.45033e-01        00000 
-1.00102e-01  2.42546e-01        00000 
 7.37432e-02  2.53064e-01        00000 
 7.18315e-02  2.56327e-01        00000 
 7.04561e-02  2.58391e-01        00000 
 6.92175e-02  2.59349e-01        00000 
 6.77482e-02  2.59320e-01        00000 
 6.57230e-02  2.58439e-01        00000 
 6.28657e-02  2.56856e-01        00000 
 5.89567e-02  2.54733e-01        00000 
 5.38404e-02  2.52245e-01        00000 
 4.74333e-02  2.49572e-01        00000 
 3.97305e-02  2.46901e-01        00000 
 3.08102e-02  2.44416e-01        00000 
 2.08322e-02  2.42284e-01        00000 
 1.00308e-02  2.40650e-01        00000 
-1.29961e-03  2.39619e-01        00000 
-1.28240e-02  2.39251e-01        00000 
-2.41916e-02  2.39556e-01        00000 
-3.50615e-02  2.40489e-01        00000 
-4.51273e-02  2.41961e-01        00000 
-5.41380e-02  2.43843e-01        00000 
-6.19132e-02  2.45976e-01        00000 
-6.83515e-02  2.48186e-01        00000 
-7.34330e-02  2.50291e-01        00000 
-7.72170e-02  2.52110e-01        00000 
-7.98371e-02  2.53467e-01        00000 
-8.14939e-02  2.54193e-01        00000 
-8.24495e-02  2.54128e-01        00000 
-8.30207e-02  2.53124e-01        00000 
-8.35719e-02  2.51049e-01        00000 
-8.45049e-02  2.47795e-01        00000 
 5.41736e-02  2.52991e-01        00000 
 5.63875e-02  2.56941e-01        00000 
 5.88246e-02  2.59471e-01        00000 
 6.10284e-02  2.60747e-01        00000 
 6.26028e-02  2.60935e-01        00000 
 6.32075e-02  2.60195e-01        00000 
 6.25533e-02  2.58682e-01        00000 
 6.04037e-02  2.56554e-01        00000 
 5.65832e-02  2.53976e-01        00000 
 5.09915e-02  2.51134e-01        00000 
 4.36197e-02  2.48227e-01        00000 
 3.45648e-02  2.45463e-01        00000 
 2.40357e-02  2.43045e-01        00000 
 1.23486e-02  2.41151e-01        00000 
-8.95247e-05  2.39917e-01        00000 
-1.28107e-02  2.39421e-01        00000 
-2.53225e-02  2.39675e-01        00000 
-3.71489e-02  2.40619e-01        00000 
-4.78677e-02  2.42137e-01        00000 
-5.71405e-02  2.44067e-01        00000 
-6.47312e-02  2.46222e-01        00000 
-7.05118e-02  2.48404e-01        00000 
-7.44580e-02  2.50421e-01        00000 
-7.66367e-02  2.52093e-01        00000 
-7.71922e-02  2.53251e-01        00000 
-7.63338e-02  2.53733e-01        00000 
-7.43293e-02  2.53373e-01        00000 
-7.15054e-02  2.51998e-01        00000 
-6.82521e-02  2.49427e-01        00000 
-6.50275e-02  2.45478e-01        00000 
 3.13322e-02  2.43410e-01        00000 
 3.85974e-02  2.47870e-01        00000 
 4.54609e-02  2.50797e-01        00000 
 5.15019e-02  2.52471e-01        00000 
 5.63913e-02  2.53110e-01        00000 
 5.98531e-02  2.52875e-01        00000 
 6.16367e-02  2.51886e-01        00000 
 6.15085e-02  2.50242e-01        00000 
 5.92635e-02  2.48058e-01        00000 
 5.47544e-02  2.45479e-01        00000 
 4.79294e-02  2.42691e-01        00000 
 3.88700e-02  2.39919e-01        00000 
 2.78158e-02  2.37402e-01        00000 
 1.51696e-02  2.35365e-01        00000 
 1.47764e-03  2.33989e-01        00000 
-1.26146e-02  2.33374e-01        00000 
-2.64231e-02  2.33533e-01        00000 