<?xml version="1.0" encoding="utf-8"?>
<VTKFile byte_order="LittleEndian" type="UnstructuredGrid" version="0.1">
   <UnstructuredGrid>
      <Piece NumberOfCells="3364" NumberOfPoints="1741">
         <Points>
            <DataArray Name="Points" NumberOfComponents="3" format="ascii" type="Float32">
0.0000 1.0000 0.0000
0.0000 1.0345 0.0000
0.0000 1.0690 0.0000
0.0000 1.1034 0.0000
0.0000 1.1379 0.0000
0.0000 1.1724 0.0000
0.0000 1.2069 0.0000
0.0000 1.2414 0.0000
0.0000 1.2759 0.0000
0.0000 1.3103 0.0000
0.0000 1.3448 0.0000
0.0000 1.3793 0.0000
0.0000 1.4138 0.0000
0.0000 1.4483 0.0000
0.0000 1.4828 0.0000
0.0000 1.5172 0.0000
0.0000 1.5517 0.0000
0.0000 1.5862 0.0000
0.0000 1.6207 0.0000
0.0000 1.6552 0.0000
0.0000 1.6897 0.0000
0.0000 1.7241 0.0000
0.0000 1.7586 0.0000
0.0000 1.7931 0.0000
0.0000 1.8276 0.0000
0.0000 1.8621 0.0000
0.0000 1.8966 0.0000
0.0000 1.9310 0.0000
0.0000 1.9655 0.0000
0.0000 2.0000 0.0000
0.0690 1.0000 0.0000
0.0690 1.0345 0.0000
0.0690 1.0690 0.0000
0.0690 1.1034 0.0000
0.0690 1.1379 0.0000
0.0690 1.1724 0.0000
0.0690 1.2069 0.0000
0.0690 1.2414 0.0000
0.0690 1.2759 0.0000
0.0690 1.3103 0.0000
0.0690 1.3448 0.0000
0.0690 1.3793 0.0000
0.0690 1.4138 0.0000
0.0690 1.4483 0.0000
0.0690 1.4828 0.0000
0.0690 1.5172 0.0000
0.0690 1.5517 0.0000
0.0690 1.5862 0.0000
0.0690 1.6207 0.0000
0.0690 1.6552 0.0000
0.0690 1.6897 0.0000
0.0690 1.7241 0.0000
0.0690 1.7586 0.0000
0.0690 1.7931 0.0000
0.0690 1.8276 0.0000
0.0690 1.8621 0.0000
0.0690 1.8966 0.0000
0.0690 1.9310 0.0000
0.0690 1.9655 0.0000
0.0690 2.0000 0.0000
0.1379 1.0000 0.0000
0.1379 1.0345 0.0000
0.1379 1.0690 0.0000
0.1379 1.1034 0.0000
0.1379 1.1379 0.0000
0.1379 1.1724 0.0000
0.1379 1.2069 0.0000
0.1379 1.2414 0.0000
0.1379 1.2759 0.0000
0.1379 1.3103 0.0000
0.1379 1.3448 0.0000
0.1379 1.3793 0.0000
0.1379 1.4138 0.0000
0.1379 1.4483 0.0000
0.1379 1.4828 0.0000
0.1379 1.5172 0.0000
0.1379 1.5517 0.0000
0.1379 1.5862 0.0000
0.1379 1.6207 0.0000
0.1379 1.6552 0.0000
0.1379 1.6897 0.0000
0.1379 1.7241 0.0000
0.1379 1.7586 0.0000
0.1379 1.7931 0.0000
0.1379 1.8276 0.0000
0.1379 1.8621 0.0000
0.1379 1.8966 0.0000
0.1379 1.9310 0.0000
0.1379 1.9655 0.0000
0.1379 2.0000 0.0000
0.2069 1.0000 0.0000
0.2069 1.0345 0.0000
0.2069 1.0690 0.0000
0.2069 1.1034 0.0000
0.2069 1.1379 0.0000
0.2069 1.1724 0.0000
0.2069 1.2069 0.0000
0.2069 1.2414 0.0000
0.2069 1.2759 0.0000
0.2069 1.3103 0.0000
0.2069 1.3448 0.0000
0.2069 1.3793 0.0000
0.2069 1.4138 0.0000
0.2069 1.4483 0.0000
0.2069 1.4828 0.0000
0.2069 1.5172 0.0000
0.2069 1.5517 0.0000
0.2069 1.5862 0.0000
0.2069 1.6207 0.0000
0.2069 1.6552 0.0000
0.2069 1.6897 0.0000
0.2069 1.7241 0.0000
0.2069 1.7586 0.0000
0.2069 1.7931 0.0000
0.2069 1.8276 0.0000
0.2069 1.8621 0.0000
0.2069 1.8966 0.0000
0.2069 1.9310 0.0000
0.2069 1.9655 0.0000
0.2069 2.0000 0.0000
0.2759 1.0000 0.0000
0.2759 1.0345 0.0000
0.2759 1.0690 0.0000
0.2759 1.1034 0.0000
0.2759 1.1379 0.0000
0.2759 1.1724 0.0000
0.2759 1.2069 0.0000
0.2759 1.2414 0.0000
0.2759 1.2759 0.0000
0.2759 1.3103 0.0000
0.2759 1.3448 0.0000
0.2759 1.3793 0.0000
0.2759 1.4138 0.0000
0.2759 1.4483 0.0000
0.2759 1.4828 0.0000
0.2759 1.5172 0.0000
0.2759 1.5517 0.0000
0.2759 1.5862 0.0000
0.2759 1.6207 0.0000
0.2759 1.6552 0.0000
0.2759 1.6897 0.0000
0.2759 1.7241 0.0000
0.2759 1.7586 0.0000
0.2759 1.7931 0.0000
0.2759 1.8276 0.0000
0.2759 1.8621 0.0000
0.2759 1.8966 0.0000
0.2759 1.9310 0.0000
0.2759 1.9655 0.0000
0.2759 2.0000 0.0000
0.3448 1.0000 0.0000
0.3448 1.0345 0.0000
0.3448 1.0690 0.0000
0.3448 1.1034 0.0000
0.3448 1.1379 0.0000
0.3448 1.1724 0.0000
0.3448 1.2069 0.0000
0.3448 1.2414 0.0000
0.3448 1.2759 0.0000
0.3448 1.3103 0.0000
0.3448 1.3448 0.0000
0.3448 1.3793 0.0000
0.3448 1.4138 0.0000
0.3448 1.4483 0.0000
0.3448 1.4828 0.0000
0.3448 1.5172 0.0000
0.3448 1.5517 0.0000
0.3448 1.5862 0.0000
0.3448 1.6207 0.0000
0.3448 1.6552 0.0000
0.3448 1.6897 0.0000
0.3448 1.7241 0.0000
0.3448 1.7586 0.0000
0.3448 1.7931 0.0000
0.3448 1.8276 0.0000
0.3448 1.8621 0.0000
0.3448 1.8966 0.0000
0.3448 1.9310 0.0000
0.3448 1.9655 0.0000
0.3448 2.0000 0.0000
0.4138 1.0000 0.0000
0.4138 1.0345 0.0000
0.4138 1.0690 0.0000
0.4138 1.1034 0.0000
0.4138 1.1379 0.0000
0.4138 1.1724 0.0000
0.4138 1.2069 0.0000
0.4138 1.2414 0.0000
0.4138 1.2759 0.0000
0.4138 1.3103 0.0000
0.4138 1.3448 0.0000
0.4138 1.3793 0.0000
0.4138 1.4138 0.0000
0.4138 1.4483 0.0000
0.4138 1.4828 0.0000
0.4138 1.5172 0.0000
0.4138 1.5517 0.0000
0.4138 1.5862 0.0000
0.4138 1.6207 0.0000
0.4138 1.6552 0.0000
0.4138 1.6897 0.0000
0.4138 1.7241 0.0000
0.4138 1.7586 0.0000
0.4138 1.7931 0.0000
0.4138 1.8276 0.0000
0.4138 1.8621 0.0000
0.4138 1.8966 0.0000
0.4138 1.9310 0.0000
0.4138 1.9655 0.0000
0.4138 2.0000 0.0000
0.4828 1.0000 0.0000
0.4828 1.0345 0.0000
0.4828 1.0690 0.0000
0.4828 1.1034 0.0000
0.4828 1.1379 0.0000
0.4828 1.1724 0.0000
0.4828 1.2069 0.0000
0.4828 1.2414 0.0000
0.4828 1.2759 0.0000
0.4828 1.3103 0.0000
0.4828 1.3448 0.0000
0.4828 1.3793 0.0000
0.4828 1.4138 0.0000
0.4828 1.4483 0.0000
0.4828 1.4828 0.0000
0.4828 1.5172 0.0000
0.4828 1.5517 0.0000
0.4828 1.5862 0.0000
0.4828 1.6207 0.0000
0.4828 1.6552 0.0000
0.4828 1.6897 0.0000
0.4828 1.7241 0.0000
0.4828 1.7586 0.0000
0.4828 1.7931 0.0000
0.4828 1.8276 0.0000
0.4828 1.8621 0.0000
0.4828 1.8966 0.0000
0.4828 1.9310 0.0000
0.4828 1.9655 0.0000
0.4828 2.0000 0.0000
0.5517 1.0000 0.0000
0.5517 1.0345 0.0000
0.5517 1.0690 0.0000
0.5517 1.1034 0.0000
0.5517 1.1379 0.0000
0.5517 1.1724 0.0000
0.5517 1.2069 0.0000
0.5517 1.2414 0.0000
0.5517 1.2759 0.0000
0.5517 1.3103 0.0000
0.5517 1.3448 0.0000
0.5517 1.3793 0.0000
0.5517 1.4138 0.0000
0.5517 1.4483 0.0000
0.5517 1.4828 0.0000
0.5517 1.5172 0.0000
0.5517 1.5517 0.0000
0.5517 1.5862 0.0000
0.5517 1.6207 0.0000
0.5517 1.6552 0.0000
0.5517 1.6897 0.0000
0.5517 1.7241 0.0000
0.5517 1.7586 0.0000
0.5517 1.7931 0.0000
0.5517 1.8276 0.0000
0.5517 1.8621 0.0000
0.5517 1.8966 0.0000
0.5517 1.9310 0.0000
0.5517 1.9655 0.0000
0.5517 2.0000 0.0000
0.6207 1.0000 0.0000
0.6207 1.0345 0.0000
0.6207 1.0690 0.0000
0.6207 1.1034 0.0000
0.6207 1.1379 0.0000
0.6207 1.1724 0.0000
0.6207 1.2069 0.0000
0.6207 1.2414 0.0000
0.6207 1.2759 0.0000
0.6207 1.3103 0.0000
0.6207 1.3448 0.0000
0.6207 1.3793 0.0000
0.6207 1.4138 0.0000
0.6207 1.4483 0.0000
0.6207 1.4828 0.0000
0.6207 1.5172 0.0000
0.6207 1.5517 0.0000
0.6207 1.5862 0.0000
0.6207 1.6207 0.0000
0.6207 1.6552 0.0000
0.6207 1.6897 0.0000
0.6207 1.7241 0.0000
0.6207 1.7586 0.0000
0.6207 1.7931 0.0000
0.6207 1.8276 0.0000
0.6207 1.8621 0.0000
0.6207 1.8966 0.0000
0.6207 1.9310 0.0000
0.6207 1.9655 0.0000
0.6207 2.0000 0.0000
0.6897 1.0000 0.0000
0.6897 1.0345 0.0000
0.6897 1.0690 0.0000
0.6897 1.1034 0.0000
0.6897 1.1379 0.0000
0.6897 1.1724 0.0000
0.6897 1.2069 0.0000
0.6897 1.2414 0.0000
0.6897 1.2759 0.0000
0.6897 1.3103 0.0000
0.6897 1.3448 0.0000
0.6897 1.3793 0.0000
0.6897 1.4138 0.0000
0.6897 1.4483 0.0000
0.6897 1.4828 0.0000
0.6897 1.5172 0.0000
0.6897 1.5517 0.0000
0.6897 1.5862 0.0000
0.6897 1.6207 0.0000
0.6897 1.6552 0.0000
0.6897 1.6897 0.0000
0.6897 1.7241 0.0000
0.6897 1.7586 0.0000
0.6897 1.7931 0.0000
0.6897 1.8276 0.0000
0.6897 1.8621 0.0000
0.6897 1.8966 0.0000
0.6897 1.9310 0.0000
0.6897 1.9655 0.0000
0.6897 2.0000 0.0000
0.7586 1.0000 0.0000
0.7586 1.0345 0.0000
0.7586 1.0690 0.0000
0.7586 1.1034 0.0000
0.7586 1.1379 0.0000
0.7586 1.1724 0.0000
0.7586 1.2069 0.0000
0.7586 1.2414 0.0000
0.7586 1.2759 0.0000
0.7586 1.3103 0.0000
0.7586 1.3448 0.0000
0.7586 1.3793 0.0000
0.7586 1.4138 0.0000
0.7586 1.4483 0.0000
0.7586 1.4828 0.0000
0.7586 1.5172 0.0000
0.7586 1.5517 0.0000
0.7586 1.5862 0.0000
0.7586 1.6207 0.0000
0.7586 1.6552 0.0000
0.7586 1.6897 0.0000
0.7586 1.7241 0.0000
0.7586 1.7586 0.0000
0.7586 1.7931 0.0000
0.7586 1.8276 0.0000
0.7586 1.8621 0.0000
0.7586 1.8966 0.0000
0.7586 1.9310 0.0000
0.7586 1.9655 0.0000
0.7586 2.0000 0.0000
0.8276 1.0000 0.0000
0.8276 1.0345 0.0000
0.8276 1.0690 0.0000
0.8276 1.1034 0.0000
0.8276 1.1379 0.0000
0.8276 1.1724 0.0000
0.8276 1.2069 0.0000
0.8276 1.2414 0.0000
0.8276 1.2759 0.0000
0.8276 1.3103 0.0000
0.8276 1.3448 0.0000
0.8276 1.3793 0.0000
0.8276 1.4138 0.0000
0.8276 1.4483 0.0000
0.8276 1.4828 0.0000
0.8276 1.5172 0.0000
0.8276 1.5517 0.0000
0.8276 1.5862 0.0000
0.8276 1.6207 0.0000
0.8276 1.6552 0.0000
0.8276 1.6897 0.0000
0.8276 1.7241 0.0000
0.8276 1.7586 0.0000
0.8276 1.7931 0.0000
0.8276 1.8276 0.0000
0.8276 1.8621 0.0000
0.8276 1.8966 0.0000
0.8276 1.9310 0.0000
0.8276 1.9655 0.0000
0.8276 2.0000 0.0000
0.8966 1.0000 0.0000
0.8966 1.0345 0.0000
0.8966 1.0690 0.0000
0.8966 1.1034 0.0000
0.8966 1.1379 0.0000
0.8966 1.1724 0.0000
0.8966 1.2069 0.0000
0.8966 1.2414 0.0000
0.8966 1.2759 0.0000
0.8966 1.3103 0.0000
0.8966 1.3448 0.0000
0.8966 1.3793 0.0000
0.8966 1.4138 0.0000
0.8966 1.4483 0.0000
0.8966 1.4828 0.0000
0.8966 1.5172 0.0000
0.8966 1.5517 0.0000
0.8966 1.5862 0.0000
0.8966 1.6207 0.0000
0.8966 1.6552 0.0000
0.8966 1.6897 0.0000
0.8966 1.7241 0.0000
0.8966 1.7586 0.0000
0.8966 1.7931 0.0000
0.8966 1.8276 0.0000
0.8966 1.8621 0.0000
0.8966 1.8966 0.0000
0.8966 1.9310 0.0000
0.8966 1.9655 0.0000
0.8966 2.0000 0.0000
0.9655 1.0000 0.0000
0.9655 1.0345 0.0000
0.9655 1.0690 0.0000
0.9655 1.1034 0.0000
0.9655 1.1379 0.0000
0.9655 1.1724 0.0000
0.9655 1.2069 0.0000
0.9655 1.2414 0.0000
0.9655 1.2759 0.0000
0.9655 1.3103 0.0000
0.9655 1.3448 0.0000
0.9655 1.3793 0.0000
0.9655 1.4138 0.0000
0.9655 1.4483 0.0000
0.9655 1.4828 0.0000
0.9655 1.5172 0.0000
0.9655 1.5517 0.0000
0.9655 1.5862 0.0000
0.9655 1.6207 0.0000
0.9655 1.6552 0.0000
0.9655 1.6897 0.0000
0.9655 1.7241 0.0000
0.9655 1.7586 0.0000
0.9655 1.7931 0.0000
0.9655 1.8276 0.0000
0.9655 1.8621 0.0000
0.9655 1.8966 0.0000
0.9655 1.9310 0.0000
0.9655 1.9655 0.0000
0.9655 2.0000 0.0000
1.0345 1.0000 0.0000
1.0345 1.0345 0.0000
1.0345 1.0690 0.0000
1.0345 1.1034 0.0000
1.0345 1.1379 0.0000
1.0345 1.1724 0.0000
1.0345 1.2069 0.0000
1.0345 1.2414 0.0000
1.0345 1.2759 0.0000
1.0345 1.3103 0.0000
1.0345 1.3448 0.0000
[...]
         <PointData>
            <DataArray Name="fValues" NumberOfComponents="3" format="ascii" type="Float64">
 3.40651e-16  2.93552e-16        00000 
-3.76793e-16 -1.88397e-16        00000 
 2.32876e-16  4.42465e-16        00000 
 3.61351e-16 -1.18500e-16        00000 
-3.95889e-16  4.19177e-16        00000 
-3.68243e-16 -5.89273e-16        00000 
 6.98628e-17  3.02739e-16        00000 
 4.97406e-17 -2.63333e-17        00000 
-2.32876e-17  3.49314e-17        00000 
-1.16358e-16 -1.22048e-16        00000 
 2.32876e-16  2.32876e-17        00000 
-1.21791e-16 -7.53424e-17        00000 
 2.61986e-17  8.15066e-17        00000 
-4.06278e-17 -4.85421e-17        00000 
-2.03767e-17 -7.56847e-17        00000 
-4.02314e-18  2.37731e-17        00000 
-1.74657e-17 -4.07533e-17        00000 
-1.19295e-18  7.19325e-17        00000 
 4.07533e-17 -7.56847e-17        00000 
 3.65740e-17  1.46296e-17        00000 
 1.16438e-16 -1.16438e-17        00000 
-6.77595e-17 -1.04360e-16        00000 
-4.65752e-17  1.16438e-16        00000 
-3.65740e-17 -6.36387e-17        00000 
-4.65752e-17 -3.26026e-16        00000 
 5.58679e-16  2.45495e-16        00000 
-3.95889e-16  6.98628e-17        00000 
 1.55363e-16 -6.30246e-16        00000 
 4.69747e-16  4.22772e-16        00000 
-1.10325e-15 -5.98599e-16        00000 
-5.69949e+00 -4.77442e+00        00000 
-4.20652e+00 -3.58910e+00        00000 
-3.49629e+00 -2.80069e+00        00000 
-3.00960e+00 -2.25069e+00        00000 
-2.62539e+00 -1.84767e+00        00000 
-2.29743e+00 -1.54214e+00        00000 
-2.00404e+00 -1.30521e+00        00000 
-1.73356e+00 -1.11899e+00        00000 
-1.47905e+00 -9.71825e-01        00000 
-1.23607e+00 -8.55826e-01        00000 
-1.00155e+00 -7.65532e-01        00000 
-7.73224e-01 -6.97102e-01        00000 
-5.49346e-01 -6.47847e-01        00000 
-3.28464e-01 -6.15945e-01        00000 
-1.09313e-01 -6.00265e-01        00000 
 1.09270e-01 -6.00264e-01        00000 
 3.28420e-01 -6.15941e-01        00000 
 5.49302e-01 -6.47839e-01        00000 
 7.73181e-01 -6.97091e-01        00000 
 1.00151e+00 -7.65518e-01        00000 
 1.23603e+00 -8.55809e-01        00000 
 1.47901e+00 -9.71804e-01        00000 
 1.73352e+00 -1.11897e+00        00000 
 2.00400e+00 -1.30519e+00        00000 
 2.29739e+00 -1.54211e+00        00000 
 2.62535e+00 -1.84764e+00        00000 
 3.00956e+00 -2.25065e+00        00000 
 3.49625e+00 -2.80065e+00        00000 
 4.20647e+00 -3.58905e+00        00000 
 5.69944e+00 -4.77436e+00        00000 
-1.00920e+01 -7.72866e+00        00000 
-8.66374e+00 -6.81020e+00        00000 
-7.41879e+00 -5.90202e+00        00000 
-6.43208e+00 -5.12716e+00        00000 
-5.61100e+00 -4.48872e+00        00000 
-4.89860e+00 -3.96726e+00        00000 
-4.26037e+00 -3.54227e+00        00000 
-3.67457e+00 -3.19656e+00        00000 
-3.12685e+00 -2.91657e+00        00000 
-2.60730e+00 -2.69193e+00        00000 
-2.10871e+00 -2.51478e+00        00000 
-1.62563e+00 -2.37923e+00        00000 
-1.15372e+00 -2.28100e+00        00000 
-6.89346e-01 -2.21709e+00        00000 
-2.29336e-01 -2.18559e+00        00000 
 2.29245e-01 -2.18559e+00        00000 
 6.89255e-01 -2.21708e+00        00000 
 1.15363e+00 -2.28099e+00        00000 
 1.62554e+00 -2.37921e+00        00000 
 2.10862e+00 -2.51475e+00        00000 
 2.60721e+00 -2.69190e+00        00000 
 3.12677e+00 -2.91653e+00        00000 
 3.67448e+00 -3.19652e+00        00000 
 4.26028e+00 -3.54223e+00        00000 
 4.89852e+00 -3.96721e+00        00000 
 5.61092e+00 -4.48866e+00        00000 
 6.43200e+00 -5.12710e+00        00000 
 7.41871e+00 -5.90195e+00        00000 
 8.66366e+00 -6.81012e+00        00000 
 1.00919e+01 -7.72859e+00        00000 
-1.42284e+01 -1.08128e+01        00000 
-1.26678e+01 -9.91009e+00        00000 
-1.12185e+01 -9.06274e+00        00000 
-9.89676e+00 -8.27621e+00        00000 
-8.71115e+00 -7.57481e+00        00000 
-7.63953e+00 -6.96502e+00        00000 
-6.65821e+00 -6.44356e+00        00000 
-5.74734e+00 -6.00334e+00        00000 
-4.89124e+00 -5.63650e+00        00000 
-4.07761e+00 -5.33563e+00        00000 
-3.29667e+00 -5.09432e+00        00000 
-2.54048e+00 -4.90732e+00        00000 
-1.80239e+00 -4.77054e+00        00000 
-1.07667e+00 -4.68097e+00        00000 
-3.58149e-01 -4.63667e+00        00000 
 3.58008e-01 -4.63667e+00        00000 
 1.07653e+00 -4.68096e+00        00000 
 1.80225e+00 -4.77052e+00        00000 
 2.54034e+00 -4.90730e+00        00000 
 3.29653e+00 -5.09429e+00        00000 
 4.07747e+00 -5.33559e+00        00000 
 4.89111e+00 -5.63646e+00        00000 
 5.74721e+00 -6.00329e+00        00000 
 6.65808e+00 -6.44350e+00        00000 
 7.63941e+00 -6.96496e+00        00000 
 8.71103e+00 -7.57474e+00        00000 
 9.89664e+00 -8.27614e+00        00000 
 1.12184e+01 -9.06267e+00        00000 
 1.26677e+01 -9.91001e+00        00000 
 1.42283e+01 -1.08127e+01        00000 
-1.82453e+01 -1.42036e+01        00000 
-1.64821e+01 -1.33369e+01        00000 
-1.48063e+01 -1.25202e+01        00000 
-1.32289e+01 -1.17615e+01        00000 
-1.17516e+01 -1.10663e+01        00000 
-1.03713e+01 -1.04413e+01        00000 
-9.07768e+00 -9.88953e+00        00000 
-7.85813e+00 -9.41061e+00        00000 
-6.70020e+00 -9.00205e+00        00000 
-5.59252e+00 -8.66044e+00        00000 
-4.52502e+00 -8.38218e+00        00000 
-3.48881e+00 -8.16392e+00        00000 
-2.47595e+00 -8.00282e+00        00000 
-1.47928e+00 -7.89666e+00        00000 
-4.92112e-01 -7.84396e+00        00000 
 4.91919e-01 -7.84395e+00        00000 
 1.47909e+00 -7.89665e+00        00000 
 2.47576e+00 -8.00280e+00        00000 
 3.48862e+00 -8.16390e+00        00000 
 4.52483e+00 -8.38215e+00        00000 
 5.59234e+00 -8.66041e+00        00000 
 6.70002e+00 -9.00201e+00        00000 
 7.85796e+00 -9.41057e+00        00000 
 9.07750e+00 -9.88947e+00        00000 
 1.03711e+01 -1.04412e+01        00000 
 1.17514e+01 -1.10662e+01        00000 
 1.32287e+01 -1.17614e+01        00000 
 1.48062e+01 -1.25202e+01        00000 
 1.64819e+01 -1.33368e+01        00000 
 1.82451e+01 -1.42035e+01        00000 
-2.21409e+01 -1.80329e+01        00000 
-2.01484e+01 -1.71946e+01        00000 
-1.82379e+01 -1.64097e+01        00000 
-1.64130e+01 -1.56793e+01        00000 
-1.46747e+01 -1.50066e+01        00000 
-1.30201e+01 -1.43946e+01        00000 
-1.14440e+01 -1.38458e+01        00000 
-9.93855e+00 -1.33616e+01        00000 
-8.49478e+00 -1.29421e+01        00000 
-7.10338e+00 -1.25865e+01        00000 
-5.75521e+00 -1.22935e+01        00000 
-4.44156e+00 -1.20615e+01        00000 
-3.15420e+00 -1.18889e+01        00000 
-1.88528e+00 -1.17746e+01        00000 
-6.27301e-01 -1.17177e+01        00000 
 6.27057e-01 -1.17177e+01        00000 
 1.88504e+00 -1.17746e+01        00000 
 3.15396e+00 -1.18889e+01        00000 
 4.44132e+00 -1.20614e+01        00000 
 5.75497e+00 -1.22935e+01        00000 
 7.10314e+00 -1.25865e+01        00000 
 8.49455e+00 -1.29421e+01        00000 
 9.93833e+00 -1.33616e+01        00000 
 1.14438e+01 -1.38457e+01        00000 
 1.30199e+01 -1.43946e+01        00000 
 1.46745e+01 -1.50066e+01        00000 
 1.64128e+01 -1.56793e+01        00000 
 1.82377e+01 -1.64097e+01        00000 
 2.01482e+01 -1.71946e+01        00000 
 2.21408e+01 -1.80329e+01        00000 
-2.59114e+01 -2.23372e+01        00000 
-2.36791e+01 -2.15289e+01        00000 
-2.15292e+01 -2.07742e+01        00000 
-1.94611e+01 -2.00733e+01        00000 
-1.74732e+01 -1.94271e+01        00000 
-1.55624e+01 -1.88371e+01        00000 
-1.37239e+01 -1.83049e+01        00000 
-1.19517e+01 -1.78318e+01        00000 
-1.02388e+01 -1.74185e+01        00000 
-8.57736e+00 -1.70652e+01        00000 
-6.95933e+00 -1.67720e+01        00000 
-5.37662e+00 -1.65383e+01        00000 
-3.82117e+00 -1.63636e+01        00000 
-2.28506e+00 -1.62475e+01        00000 
-7.60506e-01 -1.61896e+01        00000 
 7.60212e-01 -1.61896e+01        00000 
 2.28477e+00 -1.62475e+01        00000 
 3.82088e+00 -1.63636e+01        00000 
 5.37633e+00 -1.65383e+01        00000 
 6.95905e+00 -1.67720e+01        00000 
 8.57708e+00 -1.70652e+01        00000 
 1.02385e+01 -1.74184e+01        00000 
 1.19515e+01 -1.78318e+01        00000 
 1.37236e+01 -1.83049e+01        00000 
 1.55621e+01 -1.88371e+01        00000 
 1.74730e+01 -1.94271e+01        00000 
 1.94609e+01 -2.00733e+01        00000 
 2.15290e+01 -2.07742e+01        00000 
 2.36789e+01 -2.15288e+01        00000 
 2.59112e+01 -2.23371e+01        00000 
-2.95475e+01 -2.71274e+01        00000 
-2.70747e+01 -2.63501e+01        00000 
-2.46863e+01 -2.56260e+01        00000 
-2.23790e+01 -2.49546e+01        00000 
-2.01494e+01 -2.43361e+01        00000 
-1.79934e+01 -2.37712e+01        00000 
-1.59062e+01 -2.32607e+01        00000 
-1.38820e+01 -2.28057e+01        00000 
-1.19144e+01 -2.24067e+01        00000 
-9.99649e+00 -2.20644e+01        00000 
-8.12096e+00 -2.17790e+01        00000 
-6.28021e+00 -2.15508e+01        00000 
-4.46656e+00 -2.13798e+01        00000 
-2.67226e+00 -2.12658e+01        00000 
-8.89578e-01 -2.12088e+01        00000 
 8.89237e-01 -2.12088e+01        00000 
 2.67192e+00 -2.12658e+01        00000 
 4.46622e+00 -2.13798e+01        00000 
 6.27987e+00 -2.15508e+01        00000 
 8.12063e+00 -2.17790e+01        00000 
 9.99617e+00 -2.20644e+01        00000 
 1.19141e+01 -2.24067e+01        00000 
 1.38817e+01 -2.28057e+01        00000 
 1.59059e+01 -2.32608e+01        00000 
 1.79932e+01 -2.37712e+01        00000 
 2.01491e+01 -2.43361e+01        00000 
 2.23787e+01 -2.49546e+01        00000 
 2.46860e+01 -2.56260e+01        00000 
 2.70745e+01 -2.63502e+01        00000 
 2.95473e+01 -2.71275e+01        00000 
-3.30416e+01 -3.23988e+01        00000 
-3.03327e+01 -3.16536e+01        00000 
-2.77102e+01 -3.09604e+01        00000 
-2.51694e+01 -3.03185e+01        00000 
-2.27055e+01 -2.97280e+01        00000 
-2.03137e+01 -2.91891e+01        00000 
-1.79885e+01 -2.87022e+01        00000 
-1.57242e+01 -2.82678e+01        00000 
-1.35145e+01 -2.78865e+01        00000 
-1.13528e+01 -2.75590e+01        00000 
-9.23209e+00 -2.72855e+01        00000 
-7.14523e+00 -2.70664e+01        00000 
-5.08482e+00 -2.69019e+01        00000 
-3.04337e+00 -2.67922e+01        00000 
-1.01332e+00 -2.67374e+01        00000 
 1.01293e+00 -2.67374e+01        00000 
 3.04299e+00 -2.67922e+01        00000 
 5.08444e+00 -2.69019e+01        00000 
 7.14485e+00 -2.70664e+01        00000 
 9.23172e+00 -2.72855e+01        00000 
 1.13524e+01 -2.75590e+01        00000 
 1.35141e+01 -2.78866e+01        00000 
 1.57239e+01 -2.82678e+01        00000 
 1.79882e+01 -2.87022e+01        00000 
 2.03134e+01 -2.91891e+01        00000 
 2.27052e+01 -2.97281e+01        00000 
 2.51691e+01 -3.03186e+01        00000 
 2.77099e+01 -3.09604e+01        00000 
 3.03325e+01 -3.16537e+01        00000 
 3.30414e+01 -3.23988e+01        00000 
-3.63875e+01 -3.81382e+01        00000 
-3.34499e+01 -3.74261e+01        00000 
-3.06003e+01 -3.67642e+01        00000 
-2.78333e+01 -3.61521e+01        00000 
-2.51432e+01 -3.55895e+01        00000 
-2.25245e+01 -3.50766e+01        00000 
-1.99713e+01 -3.46136e+01        00000 
-1.74777e+01 -3.42007e+01        00000 
-1.50373e+01 -3.38383e+01        00000 
-1.26436e+01 -3.35269e+01        00000 
-1.02898e+01 -3.32668e+01        00000 
-7.96882e+00 -3.30584e+01        00000 
-5.67360e+00 -3.29019e+01        00000 
-3.39684e+00 -3.27974e+01        00000 
-1.13118e+00 -3.27451e+01        00000 
 1.13076e+00 -3.27451e+01        00000 
 3.39642e+00 -3.27974e+01        00000 
 5.67318e+00 -3.29019e+01        00000 
 7.96840e+00 -3.30584e+01        00000 
 1.02894e+01 -3.32669e+01        00000 
 1.26432e+01 -3.35270e+01        00000 
 1.50369e+01 -3.38384e+01        00000 
 1.74773e+01 -3.42007e+01        00000 
 1.99710e+01 -3.46136e+01        00000 
 2.25241e+01 -3.50767e+01        00000 
 2.51429e+01 -3.55896e+01        00000 
 2.78330e+01 -3.61522e+01        00000 
 3.06000e+01 -3.67643e+01        00000 
 3.34496e+01 -3.74262e+01        00000 
 3.63872e+01 -3.81383e+01        00000 
-3.95808e+01 -4.43283e+01        00000 
-3.64235e+01 -4.36500e+01        00000 
-3.33555e+01 -4.30198e+01        00000 
-3.03708e+01 -4.24375e+01        00000 
-2.74634e+01 -4.19029e+01        00000 
-2.46271e+01 -4.14159e+01        00000 
-2.18559e+01 -4.09765e+01        00000 
-1.91434e+01 -4.05851e+01        00000 
-1.64832e+01 -4.02418e+01        00000 
-1.38689e+01 -3.99468e+01        00000 
-1.12936e+01 -3.97006e+01        00000 
-8.75036e+00 -3.95032e+01        00000 
-6.23229e+00 -3.93550e+01        00000 
-3.73224e+00 -3.92561e+01        00000 
-1.24303e+00 -3.92066e+01        00000 
 1.24257e+00 -3.92066e+01        00000 
 3.73178e+00 -3.92561e+01        00000 
 6.23184e+00 -3.93550e+01        00000 
 8.74991e+00 -3.95032e+01        00000 
 1.12931e+01 -3.97006e+01        00000 
 1.38685e+01 -3.99469e+01        00000 
 1.64828e+01 -4.02418e+01        00000 
 1.91430e+01 -4.05852e+01        00000 
 2.18555e+01 -4.09766e+01        00000 
 2.46267e+01 -4.14160e+01        00000 
 2.74630e+01 -4.19030e+01        00000 
 3.03705e+01 -4.24377e+01        00000 
 3.33552e+01 -4.30200e+01        00000 
 3.64232e+01 -4.36502e+01        00000 
 3.95805e+01 -4.43285e+01        00000 
-4.26186e+01 -5.09496e+01        00000 
-3.92515e+01 -5.03054e+01        00000 
-3.59747e+01 -4.97073e+01        00000 
-3.27818e+01 -4.91549e+01        00000 
-2.96665e+01 -4.86480e+01        00000 
-2.66224e+01 -4.81867e+01        00000 
-2.36432e+01 -4.77709e+01        00000 
-2.07223e+01 -4.74006e+01        00000 
-1.78533e+01 -4.70761e+01        00000 
-1.50294e+01 -4.67974e+01        00000 
-1.22440e+01 -4.65649e+01        00000 
-9.49022e+00 -4.63786e+01        00000 
-6.76111e+00 -4.62387e+01        00000 
-4.04968e+00 -4.61454e+01        00000 
-1.34887e+00 -4.60987e+01        00000 
 1.34838e+00 -4.60987e+01        00000 
 4.04919e+00 -4.61454e+01        00000 
 6.76063e+00 -4.62387e+01        00000 
 9.48974e+00 -4.63786e+01        00000 
 1.22435e+01 -4.65649e+01        00000 
 1.50290e+01 -4.67975e+01        00000 
 1.78528e+01 -4.70762e+01        00000 
 2.07219e+01 -4.74007e+01        00000 
 2.36428e+01 -4.77710e+01        00000 
 2.66220e+01 -4.81869e+01        00000 
 2.96662e+01 -4.86482e+01        00000 
 3.27815e+01 -4.91551e+01        00000 
 3.59744e+01 -4.97075e+01        00000 
 3.92512e+01 -5.03057e+01        00000 
 4.26183e+01 -5.09498e+01        00000 
-4.54987e+01 -5.79810e+01        00000 
-4.19323e+01 -5.73714e+01        00000 
-3.84569e+01 -5.68055e+01        00000 
-3.50659e+01 -5.62830e+01        00000 
-3.17528e+01 -5.58040e+01        00000 
-2.85112e+01 -5.53681e+01        00000 
-2.53343e+01 -5.49755e+01        00000 
-2.22156e+01 -5.46261e+01        00000 
-1.91484e+01 -5.43200e+01        00000 
-1.61262e+01 -5.40574e+01        00000 
-1.31420e+01 -5.38382e+01        00000 
-1.01891e+01 -5.36628e+01        00000 
-7.26052e+00 -5.35310e+01        00000 
-4.34943e+00 -5.34432e+01        00000 
-1.44882e+00 -5.33992e+01        00000 
 1.44830e+00 -5.33992e+01        00000 
 4.34892e+00 -5.34432e+01        00000 
 7.26001e+00 -5.35311e+01        00000 
 1.01886e+01 -5.36628e+01        00000 
 1.31415e+01 -5.38383e+01        00000 
 1.61257e+01 -5.40575e+01        00000 
 1.91480e+01 -5.43202e+01        00000 
 2.22151e+01 -5.46263e+01        00000 
 2.53338e+01 -5.49757e+01        00000 
 2.85107e+01 -5.53683e+01        00000 
 3.17525e+01 -5.58042e+01        00000 
 3.50655e+01 -5.62833e+01        00000 
 3.84565e+01 -5.68057e+01        00000 
 4.19319e+01 -5.73717e+01        00000 
 4.54984e+01 -5.79813e+01        00000 
-4.82198e+01 -6.54010e+01        00000 
-4.44647e+01 -6.48262e+01        00000 
-4.08013e+01 -6.42927e+01        00000 
-3.72227e+01 -6.38003e+01        00000 
-3.37224e+01 -6.33490e+01        00000 
-3.02936e+01 -6.29385e+01        00000 
-2.69296e+01 -6.25688e+01        00000 
-2.36239e+01 -6.22401e+01        00000 
-2.03696e+01 -6.19521e+01        00000 
-1.71600e+01 -6.17051e+01        00000 
-1.39883e+01 -6.14991e+01        00000 
-1.08476e+01 -6.13341e+01        00000 
-7.73104e+00 -6.12103e+01        00000 
-4.63181e+00 -6.11278e+01        00000 
-1.54296e+00 -6.10865e+01        00000 
 1.54243e+00 -6.10865e+01        00000 
 4.63128e+00 -6.11278e+01        00000 
 7.73052e+00 -6.12104e+01        00000 
 1.08470e+01 -6.13342e+01        00000 
 1.39877e+01 -6.14992e+01        00000 
 1.71595e+01 -6.17052e+01        00000 
 2.03691e+01 -6.19523e+01        00000 
 2.36234e+01 -6.22402e+01        00000 
 2.69292e+01 -6.25691e+01        00000 
 3.02931e+01 -6.29387e+01        00000 
 3.37219e+01 -6.33492e+01        00000 
 3.72223e+01 -6.38006e+01        00000 
 4.08009e+01 -6.42930e+01        00000 
 4.44644e+01 -6.48266e+01        00000 
 4.82195e+01 -6.54014e+01        00000 
-5.07807e+01 -7.31880e+01        00000 
-4.68480e+01 -7.26481e+01        00000 
-4.30072e+01 -7.21472e+01        00000 
-3.92518e+01 -7.16849e+01        00000 
-3.55749e+01 -7.12612e+01        00000 
-3.19699e+01 -7.08760e+01        00000 
-2.84298e+01 -7.05292e+01        00000 
-2.49480e+01 -7.02207e+01        00000 
-2.15175e+01 -6.99506e+01        00000 
-1.81317e+01 -6.97189e+01        00000 
-1.47836e+01 -6.95256e+01        00000 
-1.14663e+01 -6.93709e+01        00000 
-8.17314e+00 -6.92548e+01        00000 
-4.89713e+00 -6.91774e+01        00000 
-1.63141e+00 -6.91387e+01        00000 
 1.63086e+00 -6.91387e+01        00000 
 4.89658e+00 -6.91774e+01        00000 
 8.17260e+00 -6.92549e+01        00000 
 1.14658e+01 -6.93710e+01        00000 
 1.47830e+01 -6.95258e+01        00000 
 1.81312e+01 -6.97190e+01        00000 
 2.15170e+01 -6.99508e+01        00000 
 2.49475e+01 -7.02209e+01        00000 
 2.84293e+01 -7.05294e+01        00000 
 3.19694e+01 -7.08763e+01        00000 
 3.55745e+01 -7.12616e+01        00000 
 3.92514e+01 -7.16853e+01        00000 
 4.30069e+01 -7.21476e+01        00000 
 4.68476e+01 -7.26486e+01        00000 
 5.07805e+01 -7.31884e+01        00000 
-5.31808e+01 -8.13200e+01        00000 
-4.90812e+01 -8.08153e+01        00000 
-4.50742e+01 -8.03470e+01        00000 
-4.11529e+01 -7.99150e+01        00000 
-3.73105e+01 -7.95189e+01        00000 
-3.35402e+01 -7.91589e+01        00000 
-2.98350e+01 -7.88346e+01        00000 
-2.61882e+01 -7.85462e+01        00000 
-2.25928e+01 -7.82936e+01        00000 
-1.90418e+01 -7.80768e+01        00000 
-1.55285e+01 -7.78960e+01        00000 
-1.20459e+01 -7.77512e+01        00000 
-8.58728e+00 -7.76426e+01        00000 
-5.14566e+00 -7.75701e+01        00000 
-1.71427e+00 -7.75338e+01        00000 
 1.71371e+00 -7.75338e+01        00000 
 5.14510e+00 -7.75701e+01        00000 
 8.58672e+00 -7.76426e+01        00000 
 1.20454e+01 -7.77513e+01        00000 
 1.55280e+01 -7.78962e+01        00000 
 1.90413e+01 -7.80770e+01        00000 
 2.25923e+01 -7.82938e+01        00000 
 2.61877e+01 -7.85464e+01        00000 
 2.98346e+01 -7.88349e+01        00000 
 3.35397e+01 -7.91592e+01        00000 
 3.73100e+01 -7.95193e+01        00000 
 4.11525e+01 -7.99154e+01        00000 
 4.50738e+01 -8.03475e+01        00000 
 4.90809e+01 -8.08158e+01        00000 
 5.31805e+01 -8.13205e+01        00000 
-5.54192e+01 -8.97753e+01        00000 
-5.11637e+01 -8.93059e+01        00000 
-4.70014e+01 -8.88705e+01        00000 
-4.29254e+01 -8.84687e+01        00000 
-3.89287e+01 -8.81003e+01        00000 
-3.50045e+01 -8.77652e+01        00000 
-3.11456e+01 -8.74633e+01        00000 
-2.73451e+01 -8.71946e+01        00000 
-2.35960e+01 -8.69590e+01        00000 
-1.98912e+01 -8.67568e+01        00000 
-1.62239e+01 -8.65880e+01        00000 
-1.25871e+01 -8.64528e+01        00000 
-8.97396e+00 -8.63512e+01        00000 
-5.37775e+00 -8.62834e+01        00000 
-1.79165e+00 -8.62495e+01        00000 
 1.79108e+00 -8.62495e+01        00000 
 5.37718e+00 -8.62835e+01        00000 