<?xml version="1.0" encoding="utf-8"?>
<VTKFile byte_order="LittleEndian" type="UnstructuredGrid" version="0.1">
   <UnstructuredGrid>
      <Piece NumberOfCells="3364" NumberOfPoints="1741">
         <Points>
            <DataArray Name="Points" NumberOfComponents="3" format="ascii" type="Float32">
0.0000 1.0000 0.0000
0.0000 1.0345 0.0000
0.0000 1.0690 0.0000
0.0000 1.1034 0.0000
0.0000 1.1379 0.0000
0.0000 1.1724 0.0000
0.0000 1.2069 0.0000
0.0000 1.2414 0.0000
0.0000 1.2759 0.0000
0.0000 1.3103 0.0000
0.0000 1.3448 0.0000
0.0000 1.3793 0.0000
0.0000 1.4138 0.0000
0.0000 1.4483 0.0000
0.0000 1.4828 0.0000
0.0000 1.5172 0.0000
0.0000 1.5517 0.0000
0.0000 1.5862 0.0000
0.0000 1.6207 0.0000
0.0000 1.6552 0.0000
0.0000 1.6897 0.0000
0.0000 1.7241 0.0000
0.0000 1.7586 0.0000
0.0000 1.7931 0.0000
0.0000 1.8276 0.0000
0.0000 1.8621 0.0000
0.0000 1.8966 0.0000
0.0000 1.9310 0.0000
0.0000 1.9655 0.0000
0.0000 2.0000 0.0000
0.0690 1.0000 0.0000
0.0690 1.0345 0.0000
0.0690 1.0690 0.0000
0.0690 1.1034 0.0000
0.0690 1.1379 0.0000
0.0690 1.1724 0.0000
0.0690 1.2069 0.0000
0.0690 1.2414 0.0000
0.0690 1.2759 0.0000
0.0690 1.3103 0.0000
0.0690 1.3448 0.0000
0.0690 1.3793 0.0000
0.0690 1.4138 0.0000
0.0690 1.4483 0.0000
0.0690 1.4828 0.0000
0.0690 1.5172 0.0000
0.0690 1.5517 0.0000
0.0690 1.5862 0.0000
0.0690 1.6207 0.0000
0.0690 1.6552 0.0000
0.0690 1.6897 0.0000
0.0690 1.7241 0.0000
0.0690 1.7586 0.0000
0.0690 1.7931 0.0000
0.0690 1.8276 0.0000
0.0690 1.8621 0.0000
0.0690 1.8966 0.0000
0.0690 1.9310 0.0000
0.0690 1.9655 0.0000
0.0690 2.0000 0.0000
0.1379 1.0000 0.0000
0.1379 1.0345 0.0000
0.1379 1.0690 0.0000
0.1379 1.1034 0.0000
0.1379 1.1379 0.0000
0.1379 1.1724 0.0000
0.1379 1.2069 0.0000
0.1379 1.2414 0.0000
0.1379 1.2759 0.0000
0.1379 1.3103 0.0000
0.1379 1.3448 0.0000
0.1379 1.3793 0.0000
0.1379 1.4138 0.0000
0.1379 1.4483 0.0000
0.1379 1.4828 0.0000
0.1379 1.5172 0.0000
0.1379 1.5517 0.0000
0.1379 1.5862 0.0000
0.1379 1.6207 0.0000
0.1379 1.6552 0.0000
0.1379 1.6897 0.0000
0.1379 1.7241 0.0000
0.1379 1.7586 0.0000
0.1379 1.7931 0.0000
0.1379 1.8276 0.0000
0.1379 1.8621 0.0000
0.1379 1.8966 0.0000
0.1379 1.9310 0.0000
0.1379 1.9655 0.0000
0.1379 2.0000 0.0000
0.2069 1.0000 0.0000
0.2069 1.0345 0.0000
0.2069 1.0690 0.0000
0.2069 1.1034 0.0000
0.2069 1.1379 0.0000
0.2069 1.1724 0.0000
0.2069 1.2069 0.0000
0.2069 1.2414 0.0000
0.2069 1.2759 0.0000
0.2069 1.3103 0.0000
0.2069 1.3448 0.0000
0.2069 1.3793 0.0000
0.2069 1.4138 0.0000
0.2069 1.4483 0.0000
0.2069 1.4828 0.0000
0.2069 1.5172 0.0000
0.2069 1.5517 0.0000
0.2069 1.5862 0.0000
0.2069 1.6207 0.0000
0.2069 1.6552 0.0000
0.2069 1.6897 0.0000
0.2069 1.7241 0.0000
0.2069 1.7586 0.0000
0.2069 1.7931 0.0000
0.2069 1.8276 0.0000
0.2069 1.8621 0.0000
0.2069 1.8966 0.0000
0.2069 1.9310 0.0000
0.2069 1.9655 0.0000
0.2069 2.0000 0.0000
0.2759 1.0000 0.0000
0.2759 1.0345 0.0000
0.2759 1.0690 0.0000
0.2759 1.1034 0.0000
0.2759 1.1379 0.0000
0.2759 1.1724 0.0000
0.2759 1.2069 0.0000
0.2759 1.2414 0.0000
0.2759 1.2759 0.0000
0.2759 1.3103 0.0000
0.2759 1.3448 0.0000
0.2759 1.3793 0.0000
0.2759 1.4138 0.0000
0.2759 1.4483 0.0000
0.2759 1.4828 0.0000
0.2759 1.5172 0.0000
0.2759 1.5517 0.0000
0.2759 1.5862 0.0000
0.2759 1.6207 0.0000
0.2759 1.6552 0.0000
0.2759 1.6897 0.0000
0.2759 1.7241 0.0000
0.2759 1.7586 0.0000
0.2759 1.7931 0.0000
0.2759 1.8276 0.0000
0.2759 1.8621 0.0000
0.2759 1.8966 0.0000
0.2759 1.9310 0.0000
0.2759 1.9655 0.0000
0.2759 2.0000 0.0000
0.3448 1.0000 0.0000
0.3448 1.0345 0.0000
0.3448 1.0690 0.0000
0.3448 1.1034 0.0000
0.3448 1.1379 0.0000
0.3448 1.1724 0.0000
0.3448 1.2069 0.0000
0.3448 1.2414 0.0000
0.3448 1.2759 0.0000
0.3448 1.3103 0.0000
0.3448 1.3448 0.0000
0.3448 1.3793 0.0000
0.3448 1.4138 0.0000
0.3448 1.4483 0.0000
0.3448 1.4828 0.0000
0.3448 1.5172 0.0000
0.3448 1.5517 0.0000
0.3448 1.5862 0.0000
0.3448 1.6207 0.0000
0.3448 1.6552 0.0000
0.3448 1.6897 0.0000
0.3448 1.7241 0.0000
0.3448 1.7586 0.0000
0.3448 1.7931 0.0000
0.3448 1.8276 0.0000
0.3448 1.8621 0.0000
0.3448 1.8966 0.0000
0.3448 1.9310 0.0000
0.3448 1.9655 0.0000
0.3448 2.0000 0.0000
0.4138 1.0000 0.0000
0.4138 1.0345 0.0000
0.4138 1.0690 0.0000
0.4138 1.1034 0.0000
0.4138 1.1379 0.0000
0.4138 1.1724 0.0000
0.4138 1.2069 0.0000
0.4138 1.2414 0.0000
0.4138 1.2759 0.0000
0.4138 1.3103 0.0000
0.4138 1.3448 0.0000
0.4138 1.3793 0.0000
0.4138 1.4138 0.0000
0.4138 1.4483 0.0000
0.4138 1.4828 0.0000
0.4138 1.5172 0.0000
0.4138 1.5517 0.0000
0.4138 1.5862 0.0000
0.4138 1.6207 0.0000
0.4138 1.6552 0.0000
0.4138 1.6897 0.0000
0.4138 1.7241 0.0000
0.4138 1.7586 0.0000
0.4138 1.7931 0.0000
0.4138 1.8276 0.0000
0.4138 1.8621 0.0000
0.4138 1.8966 0.0000
0.4138 1.9310 0.0000
0.4138 1.9655 0.0000
0.4138 2.0000 0.0000
0.4828 1.0000 0.0000
0.4828 1.0345 0.0000
0.4828 1.0690 0.0000
0.4828 1.1034 0.0000
0.4828 1.1379 0.0000
0.4828 1.1724 0.0000
0.4828 1.2069 0.0000
0.4828 1.2414 0.0000
0.4828 1.2759 0.0000
0.4828 1.3103 0.0000
0.4828 1.3448 0.0000
0.4828 1.3793 0.0000
0.4828 1.4138 0.0000
0.4828 1.4483 0.0000
0.4828 1.4828 0.0000
0.4828 1.5172 0.0000
0.4828 1.5517 0.0000
0.4828 1.5862 0.0000
0.4828 1.6207 0.0000
0.4828 1.6552 0.0000
0.4828 1.6897 0.0000
0.4828 1.7241 0.0000
0.4828 1.7586 0.0000
0.4828 1.7931 0.0000
0.4828 1.8276 0.0000
0.4828 1.8621 0.0000
0.4828 1.8966 0.0000
0.4828 1.9310 0.0000
0.4828 1.9655 0.0000
0.4828 2.0000 0.0000
0.5517 1.0000 0.0000
0.5517 1.0345 0.0000
0.5517 1.0690 0.0000
0.5517 1.1034 0.0000
0.5517 1.1379 0.0000
0.5517 1.1724 0.0000
0.5517 1.2069 0.0000
0.5517 1.2414 0.0000
0.5517 1.2759 0.0000
0.5517 1.3103 0.0000
0.5517 1.3448 0.0000
0.5517 1.3793 0.0000
0.5517 1.4138 0.0000
0.5517 1.4483 0.0000
0.5517 1.4828 0.0000
0.5517 1.5172 0.0000
0.5517 1.5517 0.0000
0.5517 1.5862 0.0000
0.5517 1.6207 0.0000
0.5517 1.6552 0.0000
0.5517 1.6897 0.0000
0.5517 1.7241 0.0000
0.5517 1.7586 0.0000
0.5517 1.7931 0.0000
0.5517 1.8276 0.0000
0.5517 1.8621 0.0000
0.5517 1.8966 0.0000
0.5517 1.9310 0.0000
0.5517 1.9655 0.0000
0.5517 2.0000 0.0000
0.6207 1.0000 0.0000
0.6207 1.0345 0.0000
0.6207 1.0690 0.0000
0.6207 1.1034 0.0000
0.6207 1.1379 0.0000
0.6207 1.1724 0.0000
0.6207 1.2069 0.0000
0.6207 1.2414 0.0000
0.6207 1.2759 0.0000
0.6207 1.3103 0.0000
0.6207 1.3448 0.0000
0.6207 1.3793 0.0000
0.6207 1.4138 0.0000
0.6207 1.4483 0.0000
0.6207 1.4828 0.0000
0.6207 1.5172 0.0000
0.6207 1.5517 0.0000
0.6207 1.5862 0.0000
0.6207 1.6207 0.0000
0.6207 1.6552 0.0000
0.6207 1.6897 0.0000
0.6207 1.7241 0.0000
0.6207 1.7586 0.0000
0.6207 1.7931 0.0000
0.6207 1.8276 0.0000
0.6207 1.8621 0.0000
0.6207 1.8966 0.0000
0.6207 1.9310 0.0000
0.6207 1.9655 0.0000
0.6207 2.0000 0.0000
0.6897 1.0000 0.0000
0.6897 1.0345 0.0000
0.6897 1.0690 0.0000
0.6897 1.1034 0.0000
0.6897 1.1379 0.0000
0.6897 1.1724 0.0000
0.6897 1.2069 0.0000
0.6897 1.2414 0.0000
0.6897 1.2759 0.0000
0.6897 1.3103 0.0000
0.6897 1.3448 0.0000
0.6897 1.3793 0.0000
0.6897 1.4138 0.0000
0.6897 1.4483 0.0000
0.6897 1.4828 0.0000
0.6897 1.5172 0.0000
0.6897 1.5517 0.0000
0.6897 1.5862 0.0000
0.6897 1.6207 0.0000
0.6897 1.6552 0.0000
0.6897 1.6897 0.0000
0.6897 1.7241 0.0000
0.6897 1.7586 0.0000
0.6897 1.7931 0.0000
0.6897 1.8276 0.0000
0.6897 1.8621 0.0000
0.6897 1.8966 0.0000
0.6897 1.9310 0.0000
0.6897 1.9655 0.0000
0.6897 2.0000 0.0000
0.7586 1.0000 0.0000
0.7586 1.0345 0.0000
0.7586 1.0690 0.0000
0.7586 1.1034 0.0000
0.7586 1.1379 0.0000
0.7586 1.1724 0.0000
0.7586 1.2069 0.0000
0.7586 1.2414 0.0000
0.7586 1.2759 0.0000
0.7586 1.3103 0.0000
0.7586 1.3448 0.0000
0.7586 1.3793 0.0000
0.7586 1.4138 0.0000
0.7586 1.4483 0.0000
0.7586 1.4828 0.0000
0.7586 1.5172 0.0000
0.7586 1.5517 0.0000
0.7586 1.5862 0.0000
0.7586 1.6207 0.0000
0.7586 1.6552 0.0000
0.7586 1.6897 0.0000
0.7586 1.7241 0.0000
0.7586 1.7586 0.0000
0.7586 1.7931 0.0000
0.7586 1.8276 0.0000
0.7586 1.8621 0.0000
0.7586 1.8966 0.0000
0.7586 1.9310 0.0000
0.7586 1.9655 0.0000
0.7586 2.0000 0.0000
0.8276 1.0000 0.0000
0.8276 1.0345 0.0000
0.8276 1.0690 0.0000
0.8276 1.1034 0.0000
0.8276 1.1379 0.0000
0.8276 1.1724 0.0000
0.8276 1.2069 0.0000
0.8276 1.2414 0.0000
0.8276 1.2759 0.0000
0.8276 1.3103 0.0000
0.8276 1.3448 0.0000
0.8276 1.3793 0.0000
0.8276 1.4138 0.0000
0.8276 1.4483 0.0000
0.8276 1.4828 0.0000
0.8276 1.5172 0.0000
0.8276 1.5517 0.0000
0.8276 1.5862 0.0000
0.8276 1.6207 0.0000
0.8276 1.6552 0.0000
0.8276 1.6897 0.0000
0.8276 1.7241 0.0000
0.8276 1.7586 0.0000
0.8276 1.7931 0.0000
0.8276 1.8276 0.0000
0.8276 1.8621 0.0000
0.8276 1.8966 0.0000
0.8276 1.9310 0.0000
0.8276 1.9655 0.0000
0.8276 2.0000 0.0000
0.8966 1.0000 0.0000
0.8966 1.0345 0.0000
0.8966 1.0690 0.0000
0.8966 1.1034 0.0000
0.8966 1.1379 0.0000
0.8966 1.1724 0.0000
0.8966 1.2069 0.0000
0.8966 1.2414 0.0000
0.8966 1.2759 0.0000
0.8966 1.3103 0.0000
0.8966 1.3448 0.0000
0.8966 1.3793 0.0000
0.8966 1.4138 0.0000
0.8966 1.4483 0.0000
0.8966 1.4828 0.0000
0.8966 1.5172 0.0000
0.8966 1.5517 0.0000
0.8966 1.5862 0.0000
0.8966 1.6207 0.0000
0.8966 1.6552 0.0000
0.8966 1.6897 0.0000
0.8966 1.7241 0.0000
0.8966 1.7586 0.0000
0.8966 1.7931 0.0000
0.8966 1.8276 0.0000
0.8966 1.8621 0.0000
0.8966 1.8966 0.0000
0.8966 1.9310 0.0000
0.8966 1.9655 0.0000
0.8966 2.0000 0.0000
0.9655 1.0000 0.0000
0.9655 1.0345 0.0000
0.9655 1.0690 0.0000
0.9655 1.1034 0.0000
0.9655 1.1379 0.0000
0.9655 1.1724 0.0000
0.9655 1.2069 0.0000
0.9655 1.2414 0.0000
0.9655 1.2759 0.0000
0.9655 1.3103 0.0000
0.9655 1.3448 0.0000
0.9655 1.3793 0.0000
0.9655 1.4138 0.0000
0.9655 1.4483 0.0000
0.9655 1.4828 0.0000
0.9655 1.5172 0.0000
0.9655 1.5517 0.0000
0.9655 1.5862 0.0000
0.9655 1.6207 0.0000
0.9655 1.6552 0.0000
0.9655 1.6897 0.0000
0.9655 1.7241 0.0000
0.9655 1.7586 0.0000
0.9655 1.7931 0.0000
0.9655 1.8276 0.0000
0.9655 1.8621 0.0000
0.9655 1.8966 0.0000
0.9655 1.9310 0.0000
0.9655 1.9655 0.0000
0.9655 2.0000 0.0000
1.0345 1.0000 0.0000
1.0345 1.0345 0.0000
1.0345 1.0690 0.0000
1.0345 1.1034 0.0000
1.0345 1.1379 0.0000
1.0345 1.1724 0.0000
1.0345 1.2069 0.0000
1.0345 1.2414 0.0000
1.0345 1.2759 0.0000
1.0345 1.3103 0.0000
1.0345 1.3448 0.0000
[...]
         <PointData>
            <DataArray Name="fValues" NumberOfComponents="3" format="ascii" type="Float64">
 3.75012e-22 -5.31443e-23        00000 
-8.98345e-23 -2.24586e-23        00000 
-2.22088e-22 -4.99698e-23        00000 
-1.11615e-23  8.76351e-24        00000 
 1.77670e-22 -7.98128e-24        00000 
-7.66421e-22  9.50540e-24        00000 
 3.10923e-22  1.70036e-23        00000 
 1.59051e-22 -2.56583e-23        00000 
 6.66264e-23        00000        00000 
-1.76429e-22  2.24474e-23        00000 
 1.99879e-22 -9.99396e-23        00000 
-1.15103e-22  1.08127e-22        00000 
-1.99879e-22 -3.33132e-23        00000 
 4.03178e-23  7.57233e-23        00000 
-2.22088e-23 -5.55220e-24        00000 
 3.06941e-23  5.02267e-23        00000 
 1.11044e-23  1.05492e-22        00000 
-6.98582e-23 -5.15130e-23        00000 
 1.11044e-22  6.66264e-23        00000 
 1.53470e-23 -3.94140e-23        00000 
 1.55462e-22  4.99698e-23        00000 
-1.15240e-22  1.02687e-25        00000 
 2.88714e-22  2.77610e-23        00000 
-2.37182e-23 -2.82525e-23        00000 
 1.77670e-22  8.84882e-24        00000 
-5.48058e-23 -5.40947e-24        00000 
 3.10923e-22  2.25558e-24        00000 
 1.21608e-22 -3.24440e-23        00000 
 1.84794e-22 -5.73982e-23        00000 
-4.61985e-23 -4.44094e-23        00000 
-2.65997e-06 -1.38409e-06        00000 
-2.32665e-06 -8.29304e-07        00000 
-2.25122e-06 -5.05329e-07        00000 
-2.23692e-06 -2.98279e-07        00000 
-2.22969e-06 -1.48375e-07        00000 
-2.20455e-06 -2.59888e-08        00000 
-2.14851e-06  8.30073e-08        00000 
-2.05496e-06  1.84573e-07        00000 
-1.92119e-06  2.80311e-07        00000 
-1.74729e-06  3.69519e-07        00000 
-1.53553e-06  4.50350e-07        00000 
-1.28994e-06  5.20505e-07        00000 
-1.01604e-06  5.77672e-07        00000 
-7.20555e-07  6.19834e-07        00000 
-4.11086e-07  6.45469e-07        00000 
-9.57898e-08  6.53689e-07        00000 
 2.16986e-07  6.44306e-07        00000 
 5.19053e-07  6.17841e-07        00000 
 8.02730e-07  5.75471e-07        00000 
 1.06114e-06  5.18920e-07        00000 
 1.28849e-06  4.50289e-07        00000 
 1.48030e-06  3.71819e-07        00000 
 1.63359e-06  2.85536e-07        00000 
 1.74726e-06  1.92689e-07        00000 
 1.82248e-06  9.27624e-08        00000 
 1.86379e-06 -1.83806e-08        00000 
 1.88125e-06 -1.52176e-07        00000 
 1.89575e-06 -3.34840e-07        00000 
 1.95464e-06 -6.23112e-07        00000 
 2.23079e-06 -1.13249e-06        00000 
-6.42001e-06 -2.29207e-06        00000 
-5.93681e-06 -1.48612e-06        00000 
-5.71728e-06 -9.48622e-07        00000 
-5.63882e-06 -5.76210e-07        00000 
-5.59174e-06 -2.95577e-07        00000 
-5.51206e-06 -6.35405e-08        00000 
-5.36312e-06  1.42890e-07        00000 
-5.12504e-06  3.34326e-07        00000 
-4.78886e-06  5.14046e-07        00000 
-4.35340e-06  6.81115e-07        00000 
-3.82346e-06  8.32354e-07        00000 
-3.20868e-06  9.63603e-07        00000 
-2.52270e-06  1.07059e-06        00000 
-1.78231e-06  1.14952e-06        00000 
-1.00669e-06  1.19753e-06        00000 
-2.16433e-07  1.21294e-06        00000 
 5.67327e-07  1.19539e-06        00000 
 1.32390e-06  1.14589e-06        00000 
 2.03392e-06  1.06667e-06        00000 
 2.68016e-06  9.60983e-07        00000 
 3.24826e-06  8.32753e-07        00000 
 3.72736e-06  6.86057e-07        00000 
 4.11076e-06  5.24416e-07        00000 
 4.39685e-06  3.49681e-07        00000 
 4.59065e-06  1.60253e-07        00000 
 4.70674e-06 -5.19480e-08        00000 
 4.77488e-06 -3.06657e-07        00000 
 4.85070e-06 -6.43720e-07        00000 
 5.03446e-06 -1.13462e-06        00000 
 5.44776e-06 -1.88559e-06        00000 
-1.32075e-05 -4.34540e-06        00000 
-1.22296e-05 -2.82391e-06        00000 
-1.18064e-05 -1.82375e-06        00000 
-1.16296e-05 -1.11796e-06        00000 
-1.15105e-05 -5.76638e-07        00000 
-1.13281e-05 -1.24499e-07        00000 
-1.10089e-05  2.79351e-07        00000 
-1.05110e-05  6.54233e-07        00000 
-9.81440e-06  1.00620e-06        00000 
-8.91535e-06  1.33343e-06        00000 
-7.82264e-06  1.62969e-06        00000 
-6.55547e-06  1.88683e-06        00000 
-5.14157e-06  2.09637e-06        00000 
-3.61549e-06  2.25081e-06        00000 
-2.01681e-06  2.34443e-06        00000 
-3.88208e-07  2.37390e-06        00000 
 1.22653e-06  2.33855e-06        00000 
 2.78457e-06  2.24042e-06        00000 
 4.24593e-06  2.08404e-06        00000 
 5.57522e-06  1.87591e-06        00000 
 6.74323e-06  1.62381e-06        00000 
 7.72825e-06  1.33575e-06        00000 
 8.51757e-06  1.01847e-06        00000 
 9.10934e-06  6.75380e-07        00000 
 9.51567e-06  3.03191e-07        00000 
 9.76812e-06 -1.13274e-07        00000 
 9.92741e-06 -6.09610e-07        00000 
 1.00996e-05 -1.25550e-06        00000 
 1.04589e-05 -2.17685e-06        00000 
 1.13011e-05 -3.60193e-06        00000 
-2.57901e-05 -8.30989e-06        00000 
-2.39136e-05 -5.45550e-06        00000 
-2.30661e-05 -3.54392e-06        00000 
-2.26881e-05 -2.18167e-06        00000 
-2.24202e-05 -1.12851e-06        00000 
-2.20354e-05 -2.44348e-07        00000 
-2.13924e-05  5.47533e-07        00000 
-2.04085e-05  1.28372e-06        00000 
-1.90425e-05  1.97571e-06        00000 
-1.72848e-05  2.61971e-06        00000 
-1.51508e-05  3.20332e-06        00000 
-1.26768e-05  3.71016e-06        00000 
-9.91627e-06  4.12323e-06        00000 
-6.93656e-06  4.42741e-06        00000 
-3.81518e-06  4.61118e-06        00000 
-6.35937e-07  4.66785e-06        00000 
 2.51518e-06  4.59617e-06        00000 
 5.55410e-06  4.40034e-06        00000 
 8.40261e-06  4.08959e-06        00000 
 1.09919e-05  3.67711e-06        00000 
 1.32656e-05  3.17858e-06        00000 
 1.51828e-05  2.60997e-06        00000 
 1.67205e-05  1.98462e-06        00000 
 1.78778e-05  1.30901e-06        00000 
 1.86808e-05  5.76515e-07        00000 
 1.91932e-05 -2.42265e-07        00000 
 1.95329e-05 -1.21499e-06        00000 
 1.99006e-05 -2.47237e-06        00000 
 2.06293e-05 -4.24858e-06        00000 
 2.22584e-05 -6.94113e-06        00000 
-4.90176e-05 -1.56935e-05        00000 
-4.55141e-05 -1.03975e-05        00000 
-4.38631e-05 -6.80016e-06        00000 
-4.30741e-05 -4.20637e-06        00000 
-4.24987e-05 -2.18541e-06        00000 
-4.17167e-05 -4.80646e-07        00000 
-4.04616e-05  1.05057e-06        00000 
-3.85731e-05  2.47698e-06        00000 
-3.59687e-05  3.82003e-06        00000 
-3.26257e-05  5.07190e-06        00000 
-2.85698e-05  6.20787e-06        00000 
-2.38677e-05  7.19533e-06        00000 
-1.86199e-05  8.00035e-06        00000 
-1.29543e-05  8.59270e-06        00000 
-7.01909e-06  8.94938e-06        00000 
-9.74694e-07  9.05710e-06        00000 
 5.01401e-06  8.91347e-06        00000 
 1.07861e-05  8.52711e-06        00000 
 1.61923e-05  7.91666e-06        00000 
 2.11022e-05  7.10869e-06        00000 
 2.54101e-05  6.13453e-06        00000 
 2.90408e-05  5.02589e-06        00000 
 3.19547e-05  3.80896e-06        00000 
 3.41547e-05  2.49621e-06        00000 
 3.56962e-05  1.07454e-06        00000 
 3.67047e-05 -5.12559e-07        00000 
 3.74051e-05 -2.39258e-06        00000 
 3.81721e-05 -4.80697e-06        00000 
 3.96095e-05 -8.17724e-06        00000 
 4.26749e-05 -1.32061e-05        00000 
-9.12292e-05 -2.91219e-05        00000 
-8.48250e-05 -1.94745e-05        00000 
-8.16827e-05 -1.28297e-05        00000 
-8.00914e-05 -7.98419e-06        00000 
-7.89056e-05 -4.17749e-06        00000 
-7.73653e-05 -9.48835e-07        00000 
-7.49768e-05  1.96167e-06        00000 
-7.14357e-05  4.68036e-06        00000 
-6.65790e-05  7.24616e-06        00000 
-6.03554e-05  9.64263e-06        00000 
-5.28061e-05  1.18209e-05        00000 
-4.40506e-05  1.37166e-05        00000 
-3.42741e-05  1.52629e-05        00000 
-2.37153e-05  1.63999e-05        00000 
-1.26521e-05  1.70824e-05        00000 
-1.38671e-06  1.72841e-05        00000 
 9.77049e-06  1.70006e-05        00000 
 2.05168e-05  1.62493e-05        00000 
 3.05727e-05  1.50675e-05        00000 
 3.96953e-05  1.35080e-05        00000 
 4.76904e-05  1.16328e-05        00000 
 5.44229e-05  9.50408e-06        00000 
 5.98272e-05  7.17294e-06        00000 
 6.39186e-05  4.66342e-06        00000 
 6.68112e-05  1.95054e-06        00000 
 6.87480e-05 -1.07179e-06        00000 
 7.01504e-05 -4.63874e-06        00000 
 7.17003e-05 -9.18691e-06        00000 
 7.44695e-05 -1.54630e-05        00000 
 8.01161e-05 -2.46838e-05        00000 
-1.66516e-04 -5.30586e-05        00000 
-1.55039e-04 -3.58237e-05        00000 
-1.49194e-04 -2.37911e-05        00000 
-1.46088e-04 -1.49166e-05        00000 
-1.43737e-04 -7.88391e-06        00000 
-1.40794e-04 -1.88161e-06        00000 
-1.36360e-04  3.55404e-06        00000 
-1.29865e-04  8.64984e-06        00000 
-1.20995e-04  1.34737e-05        00000 
-1.09636e-04  1.79909e-05        00000 
-9.58519e-05  2.21054e-05        00000 
-7.98513e-05  2.56915e-05        00000 
-6.19702e-05  2.86185e-05        00000 
-4.26465e-05  3.07699e-05        00000 
-2.23937e-05  3.20569e-05        00000 
-1.77195e-06  3.24289e-05        00000 
 1.86431e-05  3.18777e-05        00000 
 3.82911e-05  3.04380e-05        00000 
 5.66561e-05  2.81834e-05        00000 
 7.32938e-05  2.52177e-05        00000 
 8.78534e-05  2.16618e-05        00000 
 1.00098e-04  1.76370e-05        00000 
 1.09923e-04  1.32421e-05        00000 
 1.17377e-04  8.52361e-06        00000 
 1.22688e-04  3.43606e-06        00000 
 1.26320e-04 -2.21478e-06        00000 
 1.29047e-04 -8.85332e-06        00000 
 1.32085e-04 -1.72532e-05        00000 
 1.37299e-04 -2.87101e-05        00000 
 1.47494e-04 -4.52903e-05        00000 
-2.98219e-04 -9.49221e-05        00000 
-2.78047e-04 -6.47343e-05        00000 
-2.67417e-04 -4.33774e-05        00000 
-2.61542e-04 -2.74455e-05        00000 
-2.57052e-04 -1.47030e-05        00000 
-2.51597e-04 -3.74879e-06        00000 
-2.43568e-04  6.22764e-06        00000 
-2.31919e-04  1.56237e-05        00000 
-2.16046e-04  2.45529e-05        00000 
-1.95714e-04  3.29412e-05        00000 
-1.71009e-04  4.06012e-05        00000 
-1.42291e-04  4.72896e-05        00000 
-1.10158e-04  5.27538e-05        00000 
-7.54027e-05  5.67685e-05        00000 
-3.89592e-05  5.91627e-05        00000 
-1.85146e-06  5.98389e-05        00000 
 3.48675e-05  5.87823e-05        00000 
 7.01744e-05  5.60614e-05        00000 
 1.03132e-04  5.18198e-05        00000 
 1.32938e-04  4.62589e-05        00000 
 1.58971e-04  3.96131e-05        00000 
 1.80825e-04  3.21158e-05        00000 
 1.98340e-04  2.39570e-05        00000 
 2.11641e-04  1.52279e-05        00000 
 2.21183e-04  5.84965e-06        00000 
 2.27829e-04 -4.52441e-06        00000 
 2.32979e-04 -1.66438e-05        00000 
 2.38765e-04 -3.18514e-05        00000 
 2.48358e-04 -5.23518e-05        00000 
 2.66413e-04 -8.15834e-05        00000 
-5.24190e-04 -1.66803e-04        00000 
-4.89396e-04 -1.14961e-04        00000 
-4.70499e-04 -7.78075e-05        00000 
-4.59723e-04 -4.97722e-05        00000 
-4.51451e-04 -2.71270e-05        00000 
-4.41650e-04 -7.49784e-06        00000 
-4.27486e-04  1.05035e-05        00000 
-4.07060e-04  2.75560e-05        00000 
-3.79237e-04  4.38396e-05        00000 
-3.43538e-04  5.91972e-05        00000 
-3.00061e-04  7.32641e-05        00000 
-2.49415e-04  8.55736e-05        00000 
-1.92648e-04  9.56419e-05        00000 
-1.31174e-04  1.03038e-04        00000 
-6.66720e-05  1.07435e-04        00000 
-9.89750e-07  1.08647e-04        00000 
 6.39719e-05  1.06648e-04        00000 
 1.26368e-04  1.01573e-04        00000 
 1.84518e-04  9.36963e-05        00000 
 2.36997e-04  8.34071e-05        00000 
 2.82719e-04  7.11542e-05        00000 
 3.21000e-04  5.73840e-05        00000 
 3.51617e-04  4.24600e-05        00000 
 3.74862e-04  2.65626e-05        00000 
 3.91620e-04  9.56283e-06        00000 
 4.03479e-04 -9.14181e-06        00000 
 4.12925e-04 -3.08469e-05        00000 
 4.23628e-04 -5.78383e-05        00000 
 4.40888e-04 -9.37950e-05        00000 
 4.72261e-04 -1.44329e-04        00000 
-9.04481e-04 -2.88045e-04        00000 
-8.45566e-04 -2.00753e-04        00000 
-8.12717e-04 -1.37407e-04        00000 
-7.93554e-04 -8.90518e-05        00000 
-7.78857e-04 -4.95770e-05        00000 
-7.61819e-04 -1.50312e-05        00000 
-7.37511e-04  1.69164e-05        00000 
-7.02531e-04  4.73969e-05        00000 
-6.54774e-04  7.66752e-05        00000 
-5.93283e-04  1.04420e-04        00000 
-5.18132e-04  1.29925e-04        00000 
-4.30326e-04  1.52301e-04        00000 
-3.31682e-04  1.70630e-04        00000 
-2.24686e-04  1.84092e-04        00000 
-1.12322e-04  1.92072e-04        00000 
 2.11707e-06  1.94218e-04        00000 
 1.15237e-04  1.90484e-04        00000 
 2.23754e-04  1.81128e-04        00000 
 3.24687e-04  1.66678e-04        00000 
 4.15538e-04  1.47873e-04        00000 
 4.94437e-04  1.25566e-04        00000 
 5.60261e-04  1.00607e-04        00000 
 6.12729e-04  7.36870e-05        00000 
 6.52489e-04  4.51661e-05        00000 
 6.81226e-04  1.48501e-05        00000 
 7.01827e-04 -1.82811e-05        00000 
 7.18640e-04 -5.64206e-05        00000 
 7.37882e-04 -1.03386e-04        00000 
 7.68249e-04 -1.65206e-04        00000 
 8.21763e-04 -2.50874e-04        00000 
-1.53227e-03 -4.89060e-04        00000 
-1.43429e-03 -3.44952e-04        00000 
-1.37847e-03 -2.39115e-04        00000 
-1.34544e-03 -1.57374e-04        00000 
-1.32032e-03 -8.98733e-05        00000 
-1.29174e-03 -3.01440e-05        00000 
-1.25125e-03  2.56528e-05        00000 
-1.19282e-03  7.93512e-05        00000 
-1.11259e-03  1.31300e-04        00000 
-1.00869e-03  1.80805e-04        00000 
-8.81061e-04  2.26509e-04        00000 
-7.31340e-04  2.66727e-04        00000 
-5.62625e-04  2.99726e-04        00000 
-3.79243e-04  3.23969e-04        00000 
-1.86442e-04  3.38296e-04        00000 
 9.97020e-06  3.42051e-04        00000 
 2.03999e-04  3.35152e-04        00000 
 3.89853e-04  3.18090e-04        00000 
 5.62308e-04  2.91869e-04        00000 
 7.17033e-04  2.57884e-04        00000 
 8.50852e-04  2.17744e-04        00000 
 9.61961e-04  1.73052e-04        00000 
 1.05008e-03  1.25125e-04        00000 
 1.11657e-03  7.46825e-05        00000 
 1.16461e-03  2.14655e-05        00000 
 1.19938e-03 -3.62041e-05        00000 
 1.22837e-03 -1.01965e-04        00000 
 1.26198e-03 -1.82080e-04        00000 
 1.31422e-03 -2.86261e-04        00000 
 1.40387e-03 -4.28683e-04        00000 
-2.54884e-03 -8.16903e-04        00000 
-2.38872e-03 -5.83688e-04        00000 
-2.29603e-03 -4.10448e-04        00000 
-2.24096e-03 -2.75057e-04        00000 
-2.19978e-03 -1.61831e-04        00000 
-2.15378e-03 -6.03430e-05        00000 
-2.08855e-03  3.56153e-05        00000 
-1.99354e-03  1.28933e-04        00000 
-1.86173e-03  2.19980e-04        00000 
-1.68953e-03  3.07317e-04        00000 
-1.47653e-03  3.88350e-04        00000 
-1.22530e-03  4.59901e-04        00000 
-9.41084e-04  5.18730e-04        00000 
-6.31346e-04  5.61963e-04        00000 
-3.05217e-04  5.87439e-04        00000 
 2.71422e-05  5.93940e-04        00000 
 3.55239e-04  5.81322e-04        00000 
 6.68956e-04  5.50511e-04        00000 
 9.59220e-04  5.03393e-04        00000 
 1.21859e-03  4.42585e-04        00000 
 1.44175e-03  3.71106e-04        00000 
 1.62584e-03  2.91964e-04        00000 
 1.77078e-03  2.07661e-04        00000 
 1.87935e-03  1.19635e-04        00000 
 1.95745e-03  2.76220e-05        00000 
 2.01424e-03 -7.10590e-05        00000 
 2.06255e-03 -1.82327e-04        00000 
 2.11951e-03 -3.16291e-04        00000 
 2.20740e-03 -4.88366e-04        00000 
 2.35500e-03 -7.20556e-04        00000 
-4.16342e-03 -1.34337e-03        00000 
-3.90611e-03 -9.73495e-04        00000 
-3.75580e-03 -6.95810e-04        00000 
-3.66726e-03 -4.76153e-04        00000 
-3.60305e-03 -2.89858e-04        00000 
-3.53259e-03 -1.20335e-04        00000 
-3.43157e-03  4.22811e-05        00000 
-3.28161e-03  2.02400e-04        00000 
-3.07012e-03  3.60188e-04        00000 
-2.79028e-03  5.12710e-04        00000 
-2.44080e-03  6.55022e-04        00000 
-2.02571e-03  7.81178e-04        00000 
-1.55376e-03  8.85148e-04        00000 
-1.03771e-03  9.61598e-04        00000 
-4.93349e-04  1.00652e-03        00000 
 6.16944e-05  1.01767e-03        00000 
 6.09186e-04  9.94797e-04        00000 
 1.13158e-03  9.39626e-04        00000 
 1.61324e-03  8.55679e-04        00000 
 2.04149e-03  7.47829e-04        00000 
 2.40749e-03  6.21706e-04        00000 
 2.70687e-03  4.82936e-04        00000 
 2.94013e-03  3.36258e-04        00000 
 3.11285e-03  1.84543e-04        00000 
 3.23580e-03  2.77267e-05        00000 
 3.32512e-03 -1.38334e-04        00000 
 3.40256e-03 -3.23090e-04        00000 
 3.49605e-03 -5.42629e-04        00000 
 3.64060e-03 -8.21106e-04        00000 
 3.87957e-03 -1.19227e-03        00000 
-6.67800e-03 -2.17672e-03        00000 
-6.27115e-03 -1.60213e-03        00000 
-6.03340e-03 -1.16658e-03        00000 
-5.89685e-03 -8.17722e-04        00000 
-5.80294e-03 -5.17107e-04        00000 
-5.70195e-03 -2.38628e-04        00000 
-5.55303e-03  3.31377e-05        00000 
-5.32437e-03  3.04686e-04        00000 
-4.99358e-03  5.75396e-04        00000 
-4.54785e-03  8.39370e-04        00000 
-3.98403e-03  1.08725e-03        00000 
-3.30824e-03  1.30796e-03        00000 
-2.53501e-03  1.49034e-03        00000 
-1.68604e-03  1.62456e-03        00000 
-7.88407e-04  1.70322e-03        00000 
 1.27451e-04  1.72220e-03        00000 
 1.03004e-03  1.68103e-03        00000 
 1.88911e-03  1.58295e-03        00000 
 2.67784e-03  1.43446e-03        00000 
 3.37479e-03  1.24460e-03        00000 
 3.96541e-03  1.02380e-03        00000 
 4.44311e-03  7.82556e-04        00000 
 4.80991e-03  5.29805e-04        00000 
 5.07666e-03  2.71259e-04        00000 
 5.26297e-03  7.59853e-06        00000 
 5.39700e-03 -2.67341e-04        00000 
 5.51543e-03 -5.68392e-04        00000 
 5.66354e-03 -9.20850e-04        00000 
 5.89578e-03 -1.36221e-03        00000 
 6.27664e-03 -1.94378e-03        00000 
-1.05165e-02 -3.47872e-03        00000 
-9.88304e-03 -2.60515e-03        00000 
-9.51692e-03 -1.93739e-03        00000 
-9.31699e-03 -1.39553e-03        00000 
-9.19188e-03 -9.19936e-04        00000 
-9.06098e-03 -4.69884e-04        00000 
-8.85582e-03 -2.16117e-05        00000 
-8.52163e-03  4.34045e-04        00000 
-8.01869e-03  8.94367e-04        00000 
-7.32341e-03  1.34768e-03        00000 
-6.42873e-03  1.77638e-03        00000 
-5.34378e-03  2.15998e-03        00000 
-4.09255e-03  2.47793e-03        00000 
-2.71170e-03  2.71214e-03        00000 
-1.24755e-03  2.84908e-03        00000 
 2.47638e-04  2.88115e-03        00000 
 1.71966e-03  2.80754e-03        00000 
 3.11658e-03  2.63419e-03        00000 
 4.39261e-03  2.37310e-03        00000 
 5.51158e-03  2.04090e-03        00000 
 6.44965e-03  1.65688e-03        00000 
 7.19712e-03  1.24049e-03        00000 
 7.75945e-03  8.08575e-04        00000 
 8.15731e-03  3.72404e-04        00000 
 8.42605e-03 -6.53295e-05        00000 
 8.61474e-03 -5.13392e-04        00000 
 8.78502e-03 -9.94695e-04        00000 
 9.01014e-03 -1.54866e-03        00000 
 9.37432e-03 -2.23316e-03        00000 
 9.97245e-03 -3.12587e-03        00000 
-1.62547e-02 -5.48958e-03        00000 
-1.52831e-02 -4.19162e-03        00000 
-1.47360e-02 -3.19268e-03        00000 
-1.44634e-02 -2.37073e-03        00000 
-1.43224e-02 -1.63348e-03        00000 
-1.41823e-02 -9.17762e-04        00000 
-1.39283e-02 -1.87424e-04        00000 
-1.34664e-02  5.69800e-04        00000 
-1.27266e-02  1.34635e-03        00000 
-1.16657e-02  2.11950e-03        00000 
-1.02690e-02  2.85644e-03        00000 
-8.54983e-03  3.51944e-03        00000 
-6.54755e-03  4.07083e-03        00000 
-4.32397e-03  4.47753e-03        00000 
-1.95801e-03  4.71474e-03        00000 
 4.60758e-04  4.76860e-03        00000 
 2.83935e-03  4.63760e-03        00000 