<?xml version="1.0" encoding="utf-8"?>
<VTKFile byte_order="LittleEndian" type="UnstructuredGrid" version="0.1">
   <UnstructuredGrid>
      <Piece NumberOfCells="3364" NumberOfPoints="1741">
         <Points>
            <DataArray Name="Points" NumberOfComponents="3" format="ascii" type="Float32">
0.0000 1.0000 0.0000
0.0000 1.0345 0.0000
0.0000 1.0690 0.0000
0.0000 1.1034 0.0000
0.0000 1.1379 0.0000
0.0000 1.1724 0.0000
0.0000 1.2069 0.0000
0.0000 1.2414 0.0000
0.0000 1.2759 0.0000
0.0000 1.3103 0.0000
0.0000 1.3448 0.0000
0.0000 1.3793 0.0000
0.0000 1.4138 0.0000
0.0000 1.4483 0.0000
0.0000 1.4828 0.0000
0.0000 1.5172 0.0000
0.0000 1.5517 0.0000
0.0000 1.5862 0.0000
0.0000 1.6207 0.0000
0.0000 1.6552 0.0000
0.0000 1.6897 0.0000
0.0000 1.7241 0.0000
0.0000 1.7586 0.0000
0.0000 1.7931 0.0000
0.0000 1.8276 0.0000
0.0000 1.8621 0.0000
0.0000 1.8966 0.0000
0.0000 1.9310 0.0000
0.0000 1.9655 0.0000
0.0000 2.0000 0.0000
0.0690 1.0000 0.0000
0.0690 1.0345 0.0000
0.0690 1.0690 0.0000
0.0690 1.1034 0.0000
0.0690 1.1379 0.0000
0.0690 1.1724 0.0000
0.0690 1.2069 0.0000
0.0690 1.2414 0.0000
0.0690 1.2759 0.0000
0.0690 1.3103 0.0000
0.0690 1.3448 0.0000
0.0690 1.3793 0.0000
0.0690 1.4138 0.0000
0.0690 1.4483 0.0000
0.0690 1.4828 0.0000
0.0690 1.5172 0.0000
0.0690 1.5517 0.0000
0.0690 1.5862 0.0000
0.0690 1.6207 0.0000
0.0690 1.6552 0.0000
0.0690 1.6897 0.0000
0.0690 1.7241 0.0000
0.0690 1.7586 0.0000
0.0690 1.7931 0.0000
0.0690 1.8276 0.0000
0.0690 1.8621 0.0000
0.0690 1.8966 0.0000
0.0690 1.9310 0.0000
0.0690 1.9655 0.0000
0.0690 2.0000 0.0000
0.1379 1.0000 0.0000
0.1379 1.0345 0.0000
0.1379 1.0690 0.0000
0.1379 1.1034 0.0000
0.1379 1.1379 0.0000
0.1379 1.1724 0.0000
0.1379 1.2069 0.0000
0.1379 1.2414 0.0000
0.1379 1.2759 0.0000
0.1379 1.3103 0.0000
0.1379 1.3448 0.0000
0.1379 1.3793 0.0000
0.1379 1.4138 0.0000
0.1379 1.4483 0.0000
0.1379 1.4828 0.0000
0.1379 1.5172 0.0000
0.1379 1.5517 0.0000
0.1379 1.5862 0.0000
0.1379 1.6207 0.0000
0.1379 1.6552 0.0000
0.1379 1.6897 0.0000
0.1379 1.7241 0.0000
0.1379 1.7586 0.0000
0.1379 1.7931 0.0000
0.1379 1.8276 0.0000
0.1379 1.8621 0.0000
0.1379 1.8966 0.0000
0.1379 1.9310 0.0000
0.1379 1.9655 0.0000
0.1379 2.0000 0.0000
0.2069 1.0000 0.0000
0.2069 1.0345 0.0000
0.2069 1.0690 0.0000
0.2069 1.1034 0.0000
0.2069 1.1379 0.0000
0.2069 1.1724 0.0000
0.2069 1.2069 0.0000
0.2069 1.2414 0.0000
0.2069 1.2759 0.0000
0.2069 1.3103 0.0000
0.2069 1.3448 0.0000
0.2069 1.3793 0.0000
0.2069 1.4138 0.0000
0.2069 1.4483 0.0000
0.2069 1.4828 0.0000
0.2069 1.5172 0.0000
0.2069 1.5517 0.0000
0.2069 1.5862 0.0000
0.2069 1.6207 0.0000
0.2069 1.6552 0.0000
0.2069 1.6897 0.0000
0.2069 1.7241 0.0000
0.2069 1.7586 0.0000
0.2069 1.7931 0.0000
0.2069 1.8276 0.0000
0.2069 1.8621 0.0000
0.2069 1.8966 0.0000
0.2069 1.9310 0.0000
0.2069 1.9655 0.0000
0.2069 2.0000 0.0000
0.2759 1.0000 0.0000
0.2759 1.0345 0.0000
0.2759 1.0690 0.0000
0.2759 1.1034 0.0000
0.2759 1.1379 0.0000
0.2759 1.1724 0.0000
0.2759 1.2069 0.0000
0.2759 1.2414 0.0000
0.2759 1.2759 0.0000
0.2759 1.3103 0.0000
0.2759 1.3448 0.0000
0.2759 1.3793 0.0000
0.2759 1.4138 0.0000
0.2759 1.4483 0.0000
0.2759 1.4828 0.0000
0.2759 1.5172 0.0000
0.2759 1.5517 0.0000
0.2759 1.5862 0.0000
0.2759 1.6207 0.0000
0.2759 1.6552 0.0000
0.2759 1.6897 0.0000
0.2759 1.7241 0.0000
0.2759 1.7586 0.0000
0.2759 1.7931 0.0000
0.2759 1.8276 0.0000
0.2759 1.8621 0.0000
0.2759 1.8966 0.0000
0.2759 1.9310 0.0000
0.2759 1.9655 0.0000
0.2759 2.0000 0.0000
0.3448 1.0000 0.0000
0.3448 1.0345 0.0000
0.3448 1.0690 0.0000
0.3448 1.1034 0.0000
0.3448 1.1379 0.0000
0.3448 1.1724 0.0000
0.3448 1.2069 0.0000
0.3448 1.2414 0.0000
0.3448 1.2759 0.0000
0.3448 1.3103 0.0000
0.3448 1.3448 0.0000
0.3448 1.3793 0.0000
0.3448 1.4138 0.0000
0.3448 1.4483 0.0000
0.3448 1.4828 0.0000
0.3448 1.5172 0.0000
0.3448 1.5517 0.0000
0.3448 1.5862 0.0000
0.3448 1.6207 0.0000
0.3448 1.6552 0.0000
0.3448 1.6897 0.0000
0.3448 1.7241 0.0000
0.3448 1.7586 0.0000
0.3448 1.7931 0.0000
0.3448 1.8276 0.0000
0.3448 1.8621 0.0000
0.3448 1.8966 0.0000
0.3448 1.9310 0.0000
0.3448 1.9655 0.0000
0.3448 2.0000 0.0000
0.4138 1.0000 0.0000
0.4138 1.0345 0.0000
0.4138 1.0690 0.0000
0.4138 1.1034 0.0000
0.4138 1.1379 0.0000
0.4138 1.1724 0.0000
0.4138 1.2069 0.0000
0.4138 1.2414 0.0000
0.4138 1.2759 0.0000
0.4138 1.3103 0.0000
0.4138 1.3448 0.0000
0.4138 1.3793 0.0000
0.4138 1.4138 0.0000
0.4138 1.4483 0.0000
0.4138 1.4828 0.0000
0.4138 1.5172 0.0000
0.4138 1.5517 0.0000
0.4138 1.5862 0.0000
0.4138 1.6207 0.0000
0.4138 1.6552 0.0000
0.4138 1.6897 0.0000
0.4138 1.7241 0.0000
0.4138 1.7586 0.0000
0.4138 1.7931 0.0000
0.4138 1.8276 0.0000
0.4138 1.8621 0.0000
0.4138 1.8966 0.0000
0.4138 1.9310 0.0000
0.4138 1.9655 0.0000
0.4138 2.0000 0.0000
0.4828 1.0000 0.0000
0.4828 1.0345 0.0000
0.4828 1.0690 0.0000
0.4828 1.1034 0.0000
0.4828 1.1379 0.0000
0.4828 1.1724 0.0000
0.4828 1.2069 0.0000
0.4828 1.2414 0.0000
0.4828 1.2759 0.0000
0.4828 1.3103 0.0000
0.4828 1.3448 0.0000
0.4828 1.3793 0.0000
0.4828 1.4138 0.0000
0.4828 1.4483 0.0000
0.4828 1.4828 0.0000
0.4828 1.5172 0.0000
0.4828 1.5517 0.0000
0.4828 1.5862 0.0000
0.4828 1.6207 0.0000
0.4828 1.6552 0.0000
0.4828 1.6897 0.0000
0.4828 1.7241 0.0000
0.4828 1.7586 0.0000
0.4828 1.7931 0.0000
0.4828 1.8276 0.0000
0.4828 1.8621 0.0000
0.4828 1.8966 0.0000
0.4828 1.9310 0.0000
0.4828 1.9655 0.0000
0.4828 2.0000 0.0000
0.5517 1.0000 0.0000
0.5517 1.0345 0.0000
0.5517 1.0690 0.0000
0.5517 1.1034 0.0000
0.5517 1.1379 0.0000
0.5517 1.1724 0.0000
0.5517 1.2069 0.0000
0.5517 1.2414 0.0000
0.5517 1.2759 0.0000
0.5517 1.3103 0.0000
0.5517 1.3448 0.0000
0.5517 1.3793 0.0000
0.5517 1.4138 0.0000
0.5517 1.4483 0.0000
0.5517 1.4828 0.0000
0.5517 1.5172 0.0000
0.5517 1.5517 0.0000
0.5517 1.5862 0.0000
0.5517 1.6207 0.0000
0.5517 1.6552 0.0000
0.5517 1.6897 0.0000
0.5517 1.7241 0.0000
0.5517 1.7586 0.0000
0.5517 1.7931 0.0000
0.5517 1.8276 0.0000
0.5517 1.8621 0.0000
0.5517 1.8966 0.0000
0.5517 1.9310 0.0000
0.5517 1.9655 0.0000
0.5517 2.0000 0.0000
0.6207 1.0000 0.0000
0.6207 1.0345 0.0000
0.6207 1.0690 0.0000
0.6207 1.1034 0.0000
0.6207 1.1379 0.0000
0.6207 1.1724 0.0000
0.6207 1.2069 0.0000
0.6207 1.2414 0.0000
0.6207 1.2759 0.0000
0.6207 1.3103 0.0000
0.6207 1.3448 0.0000
0.6207 1.3793 0.0000
0.6207 1.4138 0.0000
0.6207 1.4483 0.0000
0.6207 1.4828 0.0000
0.6207 1.5172 0.0000
0.6207 1.5517 0.0000
0.6207 1.5862 0.0000
0.6207 1.6207 0.0000
0.6207 1.6552 0.0000
0.6207 1.6897 0.0000
0.6207 1.7241 0.0000
0.6207 1.7586 0.0000
0.6207 1.7931 0.0000
0.6207 1.8276 0.0000
0.6207 1.8621 0.0000
0.6207 1.8966 0.0000
0.6207 1.9310 0.0000
0.6207 1.9655 0.0000
0.6207 2.0000 0.0000
0.6897 1.0000 0.0000
0.6897 1.0345 0.0000
0.6897 1.0690 0.0000
0.6897 1.1034 0.0000
0.6897 1.1379 0.0000
0.6897 1.1724 0.0000
0.6897 1.2069 0.0000
0.6897 1.2414 0.0000
0.6897 1.2759 0.0000
0.6897 1.3103 0.0000
0.6897 1.3448 0.0000
0.6897 1.3793 0.0000
0.6897 1.4138 0.0000
0.6897 1.4483 0.0000
0.6897 1.4828 0.0000
0.6897 1.5172 0.0000
0.6897 1.5517 0.0000
0.6897 1.5862 0.0000
0.6897 1.6207 0.0000
0.6897 1.6552 0.0000
0.6897 1.6897 0.0000
0.6897 1.7241 0.0000
0.6897 1.7586 0.0000
0.6897 1.7931 0.0000
0.6897 1.8276 0.0000
0.6897 1.8621 0.0000
0.6897 1.8966 0.0000
0.6897 1.9310 0.0000
0.6897 1.9655 0.0000
0.6897 2.0000 0.0000
0.7586 1.0000 0.0000
0.7586 1.0345 0.0000
0.7586 1.0690 0.0000
0.7586 1.1034 0.0000
0.7586 1.1379 0.0000
0.7586 1.1724 0.0000
0.7586 1.2069 0.0000
0.7586 1.2414 0.0000
0.7586 1.2759 0.0000
0.7586 1.3103 0.0000
0.7586 1.3448 0.0000
0.7586 1.3793 0.0000
0.7586 1.4138 0.0000
0.7586 1.4483 0.0000
0.7586 1.4828 0.0000
0.7586 1.5172 0.0000
0.7586 1.5517 0.0000
0.7586 1.5862 0.0000
0.7586 1.6207 0.0000
0.7586 1.6552 0.0000
0.7586 1.6897 0.0000
0.7586 1.7241 0.0000
0.7586 1.7586 0.0000
0.7586 1.7931 0.0000
0.7586 1.8276 0.0000
0.7586 1.8621 0.0000
0.7586 1.8966 0.0000
0.7586 1.9310 0.0000
0.7586 1.9655 0.0000
0.7586 2.0000 0.0000
0.8276 1.0000 0.0000
0.8276 1.0345 0.0000
0.8276 1.0690 0.0000
0.8276 1.1034 0.0000
0.8276 1.1379 0.0000
0.8276 1.1724 0.0000
0.8276 1.2069 0.0000
0.8276 1.2414 0.0000
0.8276 1.2759 0.0000
0.8276 1.3103 0.0000
0.8276 1.3448 0.0000
0.8276 1.3793 0.0000
0.8276 1.4138 0.0000
0.8276 1.4483 0.0000
0.8276 1.4828 0.0000
0.8276 1.5172 0.0000
0.8276 1.5517 0.0000
0.8276 1.5862 0.0000
0.8276 1.6207 0.0000
0.8276 1.6552 0.0000
0.8276 1.6897 0.0000
0.8276 1.7241 0.0000
0.8276 1.7586 0.0000
0.8276 1.7931 0.0000
0.8276 1.8276 0.0000
0.8276 1.8621 0.0000
0.8276 1.8966 0.0000
0.8276 1.9310 0.0000
0.8276 1.9655 0.0000
0.8276 2.0000 0.0000
0.8966 1.0000 0.0000
0.8966 1.0345 0.0000
0.8966 1.0690 0.0000
0.8966 1.1034 0.0000
0.8966 1.1379 0.0000
0.8966 1.1724 0.0000
0.8966 1.2069 0.0000
0.8966 1.2414 0.0000
0.8966 1.2759 0.0000
0.8966 1.3103 0.0000
0.8966 1.3448 0.0000
0.8966 1.3793 0.0000
0.8966 1.4138 0.0000
0.8966 1.4483 0.0000
0.8966 1.4828 0.0000
0.8966 1.5172 0.0000
0.8966 1.5517 0.0000
0.8966 1.5862 0.0000
0.8966 1.6207 0.0000
0.8966 1.6552 0.0000
0.8966 1.6897 0.0000
0.8966 1.7241 0.0000
0.8966 1.7586 0.0000
0.8966 1.7931 0.0000
0.8966 1.8276 0.0000
0.8966 1.8621 0.0000
0.8966 1.8966 0.0000
0.8966 1.9310 0.0000
0.8966 1.9655 0.0000
0.8966 2.0000 0.0000
0.9655 1.0000 0.0000
0.9655 1.0345 0.0000
0.9655 1.0690 0.0000
0.9655 1.1034 0.0000
0.9655 1.1379 0.0000
0.9655 1.1724 0.0000
0.9655 1.2069 0.0000
0.9655 1.2414 0.0000
0.9655 1.2759 0.0000
0.9655 1.3103 0.0000
0.9655 1.3448 0.0000
0.9655 1.3793 0.0000
0.9655 1.4138 0.0000
0.9655 1.4483 0.0000
0.9655 1.4828 0.0000
0.9655 1.5172 0.0000
0.9655 1.5517 0.0000
0.9655 1.5862 0.0000
0.9655 1.6207 0.0000
0.9655 1.6552 0.0000
0.9655 1.6897 0.0000
0.9655 1.7241 0.0000
0.9655 1.7586 0.0000
0.9655 1.7931 0.0000
0.9655 1.8276 0.0000
0.9655 1.8621 0.0000
0.9655 1.8966 0.0000
0.9655 1.9310 0.0000
0.9655 1.9655 0.0000
0.9655 2.0000 0.0000
1.0345 1.0000 0.0000
1.0345 1.0345 0.0000
1.0345 1.0690 0.0000
1.0345 1.1034 0.0000
1.0345 1.1379 0.0000
1.0345 1.1724 0.0000
1.0345 1.2069 0.0000
1.0345 1.2414 0.0000
1.0345 1.2759 0.0000
1.0345 1.3103 0.0000
1.0345 1.3448 0.0000
[...]
         <PointData>
            <DataArray Name="fValues" NumberOfComponents="3" format="ascii" type="Float64">
-8.94124e-38 -2.89474e-37        00000 
 1.04606e-37  3.64517e-37        00000 
-1.51993e-37 -6.05188e-37        00000 
 2.36414e-37  1.05550e-36        00000 
-3.63931e-37 -1.78194e-36        00000 
 5.38699e-37  2.87004e-36        00000 
-7.58653e-37 -4.43200e-36        00000 
 1.01072e-36  6.63147e-36        00000 
-1.26714e-36 -9.71877e-36        00000 
 1.48524e-36  1.40496e-35        00000 
-1.61287e-36 -2.00434e-35        00000 
 1.59996e-36  2.80457e-35        00000 
-1.41383e-36 -3.81008e-35        00000 
 1.05300e-36  4.97123e-35        00000 
-5.53355e-37 -6.17203e-35        00000 
-1.71249e-38  7.24165e-35        00000 
 5.74103e-37 -7.99250e-35        00000 
-1.03787e-36  8.27403e-35        00000 
 1.35213e-36 -8.02105e-35        00000 
-1.49453e-36  7.27556e-35        00000 
 1.47675e-36 -6.17285e-35        00000 
-1.33573e-36  4.89875e-35        00000 
 1.12037e-36 -3.63704e-35        00000 
-8.78563e-37  2.52712e-35        00000 
 6.48091e-37 -1.64433e-35        00000 
-4.52746e-37  1.00344e-35        00000 
 3.03169e-37 -5.77307e-36        00000 
-2.00621e-37  3.20036e-36        00000 
 1.41724e-37 -1.86634e-36        00000 
-1.22623e-37  1.45848e-36        00000 
 2.38825e-37  7.26489e-37        00000 
-2.82456e-37 -9.35310e-37        00000 
 4.19336e-37  1.61146e-36        00000 
-6.65756e-37 -2.89439e-36        00000 
 1.04303e-36  4.98956e-36        00000 
-1.56810e-36 -8.14806e-36        00000 
 2.23996e-36  1.26809e-35        00000 
-3.02370e-36 -1.90367e-35        00000 
 3.83692e-36  2.79355e-35        00000 
-4.54642e-36 -4.04740e-35        00000 
 4.98358e-36  5.80486e-35        00000 
-4.98140e-36 -8.19418e-35        00000 
 4.42632e-36  1.12564e-34        00000 
-3.30661e-36 -1.48584e-34        00000 
 1.73534e-36  1.86419e-34        00000 
 6.61976e-38 -2.20533e-34        00000 
-1.82195e-36  2.44700e-34        00000 
 3.27235e-36 -2.53860e-34        00000 
-4.23733e-36  2.45810e-34        00000 
 4.65035e-36 -2.21972e-34        00000 
-4.55646e-36  1.86886e-34        00000 
 4.08102e-36 -1.46712e-34        00000 
-3.38466e-36  1.07417e-34        00000 
 2.62054e-36 -7.33811e-35        00000 
-1.90567e-36  4.68039e-35        00000 
 1.31007e-36 -2.79119e-35        00000 
-8.61364e-37  1.56377e-35        00000 
 5.58194e-37 -8.40087e-36        00000 
-3.86053e-37  4.72610e-36        00000 
 3.30586e-37 -3.61690e-36        00000 
-1.17540e-36 -3.28651e-36        00000 
 1.40922e-36  4.35973e-36        00000 
-2.14798e-36 -7.88312e-36        00000 
 3.49479e-36  1.47051e-35        00000 
-5.59010e-36 -2.60496e-35        00000 
 8.55918e-36  4.33290e-35        00000 
-1.24324e-35 -6.81433e-35        00000 
 1.70447e-35  1.02714e-34        00000 
-2.19409e-35 -1.50811e-34        00000 
 2.63366e-35  2.18718e-34        00000 
-2.91943e-35 -3.15196e-34        00000 
 2.94486e-35  4.49235e-34        00000 
-2.63413e-35 -6.25245e-34        00000 
 1.97491e-35  8.37047e-34        00000 
-1.03491e-35 -1.06380e-33        00000 
-4.81140e-37  1.27128e-33        00000 
 1.10121e-35 -1.41985e-33        00000 
-1.96288e-35  1.47683e-33        00000 
 2.52355e-35 -1.42793e-33        00000 
-2.74634e-35  1.28242e-33        00000 
 2.66422e-35 -1.06961e-33        00000 
-2.35865e-35  8.28610e-34        00000 
 1.93025e-35 -5.96417e-34        00000 
-1.47207e-35  3.99049e-34        00000 
 1.05250e-35 -2.48356e-34        00000 
-7.09924e-36  1.43971e-34        00000 
 4.56774e-36 -7.80663e-35        00000 
-2.88722e-36  4.03464e-35        00000 
 1.94628e-36 -2.16977e-35        00000 
-1.64547e-36  1.61619e-35        00000 
 5.91771e-36  1.50195e-35        00000 
-7.19820e-36 -2.06103e-35        00000 
 1.12742e-35  3.92844e-35        00000 
-1.88021e-35 -7.63659e-35        00000 
 3.07058e-35  1.39472e-34        00000 
-4.78813e-35 -2.36988e-34        00000 
 7.07245e-35  3.77412e-34        00000 
-9.84967e-35 -5.71567e-34        00000 
 1.28662e-34  8.38843e-34        00000 
-1.56518e-34 -1.21520e-33        00000 
 1.75542e-34  1.75593e-33        00000 
-1.78772e-34 -2.52401e-33        00000 
 1.61029e-34  3.55925e-33        00000 
-1.21190e-34 -4.83613e-33        00000 
 6.34116e-35  6.23157e-33        00000 
 3.48570e-36 -7.52856e-33        00000 
-6.83670e-35  8.46772e-33        00000 
 1.20917e-34 -8.83187e-33        00000 
-1.54307e-34  8.52590e-33        00000 
 1.66481e-34 -7.61230e-33        00000 
-1.59857e-34  6.28558e-33        00000 
 1.39843e-34 -4.80105e-33        00000 
-1.12887e-34  3.39364e-33        00000 
 8.47689e-35 -2.22111e-33        00000 
-5.95689e-35  1.34699e-33        00000 
 3.94124e-35 -7.57929e-34        00000 
-2.48121e-35  3.97218e-34        00000 
 1.52962e-35 -1.97267e-34        00000 
-1.00459e-35  1.01253e-34        00000 
 8.38147e-36 -7.32751e-35        00000 
-2.94542e-35 -6.64578e-35        00000 
 3.64126e-35  9.49484e-35        00000 
-5.87446e-35 -1.92238e-34        00000 
 1.00575e-34  3.91755e-34        00000 
-1.67876e-34 -7.41641e-34        00000 
 2.66836e-34  1.29333e-33        00000 
-4.01128e-34 -2.09275e-33        00000 
 5.67970e-34  3.18927e-33        00000 
-7.53602e-34 -4.67570e-33        00000 
 9.30084e-34  6.75035e-33        00000 
-1.05652e-33 -9.75613e-33        00000 
 1.08731e-33  1.41268e-32        00000 
-9.86922e-34 -2.01933e-32        00000 
 7.45849e-34  2.78886e-32        00000 
-3.89625e-34 -3.64962e-32        00000 
-2.49479e-35  4.46374e-32        00000 
 4.25792e-34 -5.06039e-32        00000 
-7.46804e-34  5.29422e-32        00000 
 9.45431e-34 -5.10152e-32        00000 
-1.01057e-33  4.52491e-32        00000 
 9.59762e-34 -3.69455e-32        00000 
-8.28923e-34  2.77790e-32        00000 
 6.59385e-34 -1.92440e-32        00000 
-4.87002e-34  1.22903e-32        00000 
 3.35961e-34 -7.24230e-33        00000 
-2.17774e-34  3.94311e-33        00000 
 1.33986e-34 -1.99071e-33        00000 
-8.04550e-35  9.46740e-34        00000 
 5.13927e-35 -4.61882e-34        00000 
-4.22643e-35  3.23603e-34        00000 
 1.44487e-34  2.81985e-34        00000 
-1.81931e-34 -4.22898e-34        00000 
 3.03218e-34  9.17857e-34        00000 
-5.33957e-34 -1.97511e-33        00000 
 9.12141e-34  3.90182e-33        00000 
-1.47936e-33 -7.02472e-33        00000 
 2.26534e-33  1.16024e-32        00000 
-3.26411e-33 -1.78388e-32        00000 
 4.40378e-33  2.61233e-32        00000 
-5.52074e-33 -3.74904e-32        00000 
 6.35961e-33  5.40168e-32        00000 
-6.62137e-33 -7.86424e-32        00000 
 6.06125e-33  1.13986e-31        00000 
-4.60160e-33 -1.60289e-31        00000 
 2.39939e-33  2.13475e-31        00000 
 1.77224e-34 -2.64775e-31        00000 
-2.65922e-33  3.02866e-31        00000 
 4.62187e-33 -3.17947e-31        00000 
-5.80060e-33  3.05726e-31        00000 
 6.13827e-33 -2.69149e-31        00000 
-5.76119e-33  2.16994e-31        00000 
 4.90767e-33 -1.60297e-31        00000 
-3.84258e-33  1.08564e-31        00000 
 2.78773e-33 -6.74579e-32        00000 
-1.88533e-33  3.84926e-32        00000 
 1.19565e-33 -2.02015e-32        00000 
-7.17939e-34  9.78533e-33        00000 
 4.19294e-34 -4.43840e-33        00000 
-2.60005e-34  2.04841e-33        00000 
 2.10483e-34 -1.38374e-33        00000 
-6.96921e-34 -1.13500e-33        00000 
 8.96165e-34  1.80558e-33        00000 
-1.54839e-33 -4.24668e-33        00000 
 2.81091e-33  9.73387e-33        00000 
-4.92210e-33 -2.02318e-32        00000 
 8.15504e-33  3.78855e-32        00000 
-1.27323e-32 -6.42597e-32        00000 
 1.86860e-32  1.00068e-31        00000 
-2.56619e-32 -1.46493e-31        00000 
 3.27210e-32  2.08450e-31        00000 
-3.82796e-32 -2.98126e-31        00000 
 4.03743e-32  4.35113e-31        00000 
-3.73103e-32 -6.39427e-31        00000 
 2.84672e-32  9.17367e-31        00000 
-1.48107e-32 -1.24655e-30        00000 
-1.25449e-33  1.57119e-30        00000 
 1.66583e-32 -1.81571e-30        00000 
-2.86657e-32  1.91342e-30        00000 
 3.56382e-32 -1.83527e-30        00000 
-3.73061e-32  1.60194e-30        00000 
 3.45711e-32 -1.27312e-30        00000 
-2.90140e-32  9.21864e-31        00000 
 2.23311e-32 -6.08613e-31        00000 
-1.58905e-32  3.66635e-31        00000 
 1.05192e-32 -2.01758e-31        00000 
-6.51679e-33  1.01605e-31        00000 
 3.81335e-33 -4.69980e-32        00000 
-2.16273e-33  2.02367e-32        00000 
 1.29926e-33 -8.79040e-33        00000 
-1.03383e-33  5.69962e-33        00000 
 3.29587e-33  4.26840e-33        00000 
-4.34227e-33 -7.30558e-33        00000 
 7.81002e-33  1.88678e-32        00000 
-1.46562e-32 -4.65535e-32        00000 
 2.63588e-32  1.02847e-31        00000 
-4.46757e-32 -2.02202e-31        00000 
 7.11860e-32  3.55008e-31        00000 
-1.06500e-31 -5.63079e-31        00000 
 1.49036e-31  8.25818e-31        00000 
-1.93557e-31 -1.16248e-30        00000 
 2.30350e-31  1.64147e-30        00000 
-2.46519e-31 -2.39083e-30        00000 
 2.30249e-31  3.55963e-30        00000 
-1.76641e-31 -5.22200e-30        00000 
 9.16443e-32  7.26266e-30        00000 
 8.87928e-33 -9.32697e-30        00000 
-1.04702e-31  1.09063e-29        00000 
 1.78190e-31 -1.15426e-29        00000 
-2.19261e-31  1.10379e-29        00000 
 2.26852e-31 -9.53997e-30        00000 
-2.07350e-31  7.45850e-30        00000 
 1.71232e-31 -5.27924e-30        00000 
-1.29357e-31  3.38558e-30        00000 
 9.01351e-32 -1.96887e-30        00000 
-5.83040e-32  1.03974e-30        00000 
 3.52256e-32 -4.99745e-31        00000 
-2.00554e-32  2.19522e-31        00000 
 1.10276e-32 -8.92597e-32        00000 
-6.40411e-33  3.62984e-32        00000 
 5.00053e-33 -2.24833e-32        00000 
-1.52270e-32 -1.46436e-32        00000 
 2.06376e-32  2.75623e-32        00000 
-3.88318e-32 -7.95230e-32        00000 
 7.55788e-32  2.13938e-31        00000 
-1.39953e-31 -5.08723e-31        00000 
 2.43087e-31  1.06273e-30        00000 
-3.95736e-31 -1.95150e-30        00000 
 6.03992e-31  3.17745e-30        00000 
-8.62063e-31 -4.68728e-30        00000 
 1.14203e-30  6.51829e-30        00000 
-1.38532e-30 -9.02937e-30        00000 
 1.50733e-30  1.30377e-29        00000 
-1.42502e-30 -1.96284e-29        00000 
 1.09981e-30  2.95181e-29        00000 
-5.68464e-31 -4.21860e-29        00000 
-6.30572e-32  5.53846e-29        00000 
 6.60498e-31 -6.56574e-29        00000 
-1.11022e-30  6.98218e-29        00000 
 1.35083e-30 -6.65247e-29        00000 
-1.38008e-30  5.68403e-29        00000 
 1.24282e-30 -4.36087e-29        00000 
-1.00844e-30  3.00719e-29        00000 
 7.46452e-31 -1.86527e-29        00000 
-5.08342e-31  1.04170e-29        00000 
 3.20694e-31 -5.24755e-30        00000 
-1.88614e-31  2.39176e-30        00000 
 1.04308e-31 -9.91308e-31        00000 
-5.55087e-32  3.78387e-31        00000 
 3.10890e-32 -1.43287e-31        00000 
-2.37772e-32  8.43914e-32        00000 
 6.84032e-32  4.37433e-32        00000 
-9.58610e-32 -9.45685e-32        00000 
 1.89821e-31  3.12782e-31        00000 
-3.84736e-31 -9.31917e-31        00000 
 7.35863e-31  2.42233e-30        00000 
-1.31285e-30 -5.45987e-30        00000 
 2.18661e-30  1.06317e-29        00000 
-3.40685e-30 -1.79632e-29        00000 
 4.96264e-30  2.68259e-29        00000 
-6.71547e-30 -3.68600e-29        00000 
 8.32203e-30  4.97405e-29        00000 
-9.22986e-30 -7.05330e-29        00000 
 8.84921e-30  1.06951e-28        00000 
-6.87446e-30 -1.65316e-28        00000 
 3.53445e-30  2.44030e-28        00000 
 4.50913e-31 -3.28954e-28        00000 
-4.18334e-30  3.96322e-28        00000 
 6.93333e-30 -4.23716e-28        00000 
-8.33329e-30  4.01863e-28        00000 
 8.39922e-30 -3.38765e-28        00000 
-7.44294e-30  2.54290e-28        00000 
 5.92397e-30 -1.70137e-28        00000 
-4.28770e-30  1.01523e-28        00000 
 2.84763e-30 -5.40932e-29        00000 
-1.74840e-30  2.58027e-29        00000 
 9.99123e-31 -1.10671e-29        00000 
-5.35743e-31  4.29591e-30        00000 
 2.75407e-31 -1.52936e-30        00000 
-1.48378e-31  5.36669e-31        00000 
 1.10920e-31 -2.99455e-31        00000 
-2.96936e-31 -9.94025e-32        00000 
 4.33122e-31  2.81660e-31        00000 
-9.09147e-31 -1.12285e-30        00000 
 1.92849e-30  3.77703e-30        00000 
-3.82516e-30 -1.09304e-29        00000 
 7.03162e-30  2.71098e-29        00000 
-1.20046e-29 -5.70326e-29        00000 
 1.91062e-29  1.01522e-28        00000 
-2.84104e-29 -1.54984e-28        00000 
 3.93122e-29  2.10919e-28        00000 
-4.98977e-29 -2.75372e-28        00000 
 5.65987e-29  3.78668e-28        00000 
-5.51736e-29 -5.74100e-28        00000 
 4.31661e-29  9.14262e-28        00000 
-2.20188e-29 -1.40340e-27        00000 
-3.25993e-30  1.95396e-27        00000 
 2.66086e-29 -2.40005e-27        00000 
-4.33936e-29  2.58107e-27        00000 
 5.14725e-29 -2.43367e-27        00000 
-5.11363e-29  2.01909e-27        00000 
 4.45268e-29 -1.47747e-27        00000 
-3.46919e-29  9.54177e-28        00000 
 2.44931e-29 -5.43991e-28        00000 
-1.58247e-29  2.74239e-28        00000 
 9.43510e-30 -1.22754e-28        00000 
-5.22835e-30  4.91023e-29        00000 
 2.71311e-30 -1.77005e-29        00000 
-1.34443e-30  5.83658e-30        00000 
 6.94779e-31 -1.89181e-30        00000 
-5.06478e-31  9.99544e-31        00000 
 1.23502e-30  4.92243e-32        00000 
-1.89158e-30 -6.40778e-31        00000 
 4.24714e-30  3.56554e-30        00000 
-9.48679e-30 -1.38985e-29        00000 
 1.96132e-29  4.56888e-29        00000 
-3.73018e-29 -1.27765e-28        00000 
 6.54609e-29  2.97956e-28        00000 
-1.06536e-28 -5.71286e-28        00000 
 1.61649e-28  9.04672e-28        00000 
-2.28773e-28 -1.22557e-27        00000 
 2.98215e-28  1.53894e-27        00000 
-3.47522e-28 -2.02092e-27        00000 
 3.45730e-28  3.02522e-27        00000 
-2.72548e-28 -4.96784e-27        00000 
 1.37307e-28  8.00182e-27        00000 
 2.39405e-29 -1.16050e-26        00000 
-1.69974e-28  1.45940e-26        00000 
 2.72094e-28 -1.57930e-26        00000 
-3.18313e-28  1.47769e-26        00000 
 3.11452e-28 -1.20293e-26        00000 
-2.66027e-28  8.54291e-27        00000 
 2.02379e-28 -5.28994e-27        00000 
-1.38970e-28  2.85517e-27        00000 
 8.71077e-29 -1.34736e-27        00000 
-5.03196e-29  5.59814e-28        00000 
 2.69861e-29 -2.06686e-28        00000 
-1.35231e-29  6.85361e-29        00000 
 6.44309e-30 -2.07896e-29        00000 
-3.18398e-30  6.23279e-30        00000 
 2.25786e-30 -3.14108e-30        00000 
-4.86155e-30  1.37077e-30        00000 
 7.91552e-30  3.97296e-31        00000 
-1.92349e-29 -9.50285e-30        00000 
 4.55981e-29  4.50492e-29        00000 
-9.88872e-29 -1.71441e-28        00000 
 1.95609e-28  5.55279e-28        00000 
-3.54304e-28 -1.48595e-27        00000 
 5.90864e-28  3.17478e-27        00000 
-9.14132e-28 -5.34018e-27        00000 
 1.32118e-27  7.25957e-27        00000 
-1.77248e-27 -8.71709e-27        00000 
 2.13557e-27  1.07634e-26        00000 
-2.18084e-27 -1.56068e-26        00000 
 1.73293e-27  2.63105e-26        00000 
-8.55046e-28 -4.50116e-26        00000 
-1.79577e-28  6.88966e-26        00000 
 1.08978e-27 -8.92319e-26        00000 
-1.70819e-27  9.71418e-26        00000 
 1.97101e-27 -8.99502e-26        00000 
-1.89799e-27  7.16002e-26        00000 
 1.58672e-27 -4.90812e-26        00000 
-1.17480e-27  2.88720e-26        00000 
 7.81892e-28 -1.45669e-26        00000 
-4.74088e-28  6.34800e-27        00000 
 2.64793e-28 -2.41784e-27        00000 
-1.37165e-28  8.14188e-28        00000 
 6.61983e-29 -2.45644e-28        00000 
-3.02287e-29  6.82439e-29        00000 
 1.42397e-29 -1.91749e-29        00000 
-9.80102e-30  9.44327e-30        00000 
 1.77673e-29 -1.29320e-29        00000 
-3.13368e-29  7.74344e-30        00000 
 8.37355e-29  1.83827e-29        00000 
-2.12869e-28 -1.24494e-28        00000 
 4.88195e-28  5.55066e-28        00000 
-1.01115e-27 -2.13204e-27        00000 
 1.90050e-27  6.81470e-27        00000 
-3.26066e-27 -1.70901e-26        00000 
 5.14533e-27  3.19016e-26        00000 
-7.56169e-27 -4.41568e-26        00000 
 1.04337e-26  5.00434e-26        00000 
-1.31142e-26 -5.74647e-26        00000 
 1.38884e-26  7.91478e-26        00000 
-1.11241e-26 -1.34043e-25        00000 
 5.28547e-27  2.47259e-25        00000 
 1.38366e-27 -4.08772e-25        00000 
-6.99627e-27  5.50010e-25        00000 
 1.07262e-26 -6.01039e-25        00000 
-1.22268e-26  5.48562e-25        00000 
 1.15759e-26 -4.25583e-25        00000 
-9.44233e-27  2.79636e-25        00000 
 6.77611e-27 -1.54068e-25        00000 
-4.35286e-27  7.13697e-26        00000 
 2.54594e-27 -2.82779e-26        00000 
-1.37285e-27  9.73930e-27        00000 
 6.85334e-28 -2.94484e-27        00000 
-3.17312e-28  7.99582e-28        00000 
 1.38332e-28 -2.04616e-28        00000 
-6.19588e-29  5.60293e-29        00000 
 4.13342e-29 -2.84528e-29        00000 
-5.82754e-29  8.73152e-29        00000 
 1.15016e-28 -7.72725e-29        00000 
-3.46191e-28 -5.21576e-30        00000 
 9.56804e-28  2.83602e-28        00000 
-2.34734e-27 -1.49548e-27        00000 
 5.13096e-27  6.81101e-27        00000 
-1.00812e-26 -2.70720e-26        00000 
 1.78819e-26  8.47103e-26        00000 
-2.89117e-26 -1.91422e-25        00000 
 4.29788e-26  2.82082e-25        00000 
-6.03710e-26 -2.88337e-25        00000 
 8.00696e-26  3.03758e-25        00000 
-8.98177e-26 -4.08924e-25        00000 
 7.24629e-26  6.43229e-25        00000 
-3.18817e-26 -1.29177e-24        00000 
-1.09774e-26  2.42563e-24        00000 
 4.46538e-26 -3.43599e-24        00000 
-6.73236e-26  3.73853e-24        00000 
 7.61084e-26 -3.34542e-24        00000 
-7.06570e-26  2.52848e-24        00000 
 5.60114e-26 -1.57531e-24        00000 
-3.87549e-26  7.92784e-25        00000 
 2.39012e-26 -3.29638e-25        00000 
-1.34661e-26  1.17245e-25        00000 
 7.00651e-27 -3.57535e-26        00000 
-3.35717e-27  9.50460e-27        00000 
 1.48287e-27 -2.32333e-27        00000 
-6.14711e-28  5.64386e-28        00000 
 2.61574e-28 -1.64598e-28        00000 
-1.69146e-28  9.30636e-29        00000 
 1.59344e-28 -5.08663e-28        00000 
-3.77374e-28  5.38529e-28        00000 
 1.33325e-27 -4.03673e-28        00000 
-4.09416e-27 -9.25740e-28        00000 
 1.08842e-26  2.66922e-27        00000 
-2.54871e-26 -1.80535e-26        00000 
 5.25404e-26  8.31634e-26        00000 
-9.76074e-26 -3.57743e-25        00000 
 1.61385e-25  1.06335e-24        00000 
-2.46318e-25 -2.01673e-24        00000 
 3.40118e-25  1.67171e-24        00000 
-4.76194e-25 -1.33991e-24        00000 
 5.98514e-25  2.51506e-24        00000 
-4.84594e-25 -2.83607e-24        00000 
 1.76438e-25  5.82734e-24        00000 
 8.80658e-26 -1.45038e-23        00000 
-2.77652e-25  2.20123e-23        00000 
 4.24231e-25 -2.32413e-23        00000 
-4.76749e-25  2.03205e-23        00000 
 4.30590e-25 -1.51317e-23        00000 
-3.31408e-25  8.69288e-24        00000 
 2.18854e-25 -3.80972e-24        00000 
-1.28850e-25  1.41660e-24        00000 
 7.02089e-26 -4.41815e-25        00000 
-3.51511e-26  1.14198e-25        00000 
 1.60477e-26 -2.66848e-26        00000 
-6.71458e-27  5.97932e-27        00000 
 2.64136e-27 -1.52327e-27        00000 
-1.06981e-27  5.36244e-28        00000 
 6.71793e-28 -3.52968e-28        00000 
-2.81505e-28  2.68975e-27        00000 
 1.02128e-27 -3.18988e-27        00000 
-4.62275e-27  3.94798e-27        00000 
 1.63568e-26 -1.20818e-27        00000 
-4.82581e-26 -2.56861e-26        00000 
 1.21940e-25 -2.34698e-26        00000 
-2.71961e-25 -3.12896e-25        00000 
 5.15904e-25  8.28994e-25        00000 
-9.26630e-25 -5.36497e-24        00000 
 1.34307e-24  1.27164e-23        00000 
-2.10588e-24 -1.91565e-23        00000 
 2.27966e-24 -1.20973e-23        00000 
-4.48064e-24 -3.28773e-23        00000 
 3.26372e-24  6.64759e-24        00000 
-7.44036e-25 -1.35654e-23        00000 
-7.29832e-25  8.90550e-23        00000 
 1.51306e-24 -1.49174e-22        00000 