<?xml version="1.0" encoding="utf-8"?>
<VTKFile byte_order="LittleEndian" type="UnstructuredGrid" version="0.1">
   <UnstructuredGrid>
      <Piece NumberOfCells="3364" NumberOfPoints="1741">
         <Points>
            <DataArray Name="Points" NumberOfComponents="3" format="ascii" type="Float32">
0.0000 1.0000 0.0000
0.0000 1.0345 0.0000
0.0000 1.0690 0.0000
0.0000 1.1034 0.0000
0.0000 1.1379 0.0000
0.0000 1.1724 0.0000
0.0000 1.2069 0.0000
0.0000 1.2414 0.0000
0.0000 1.2759 0.0000
0.0000 1.3103 0.0000
0.0000 1.3448 0.0000
0.0000 1.3793 0.0000
0.0000 1.4138 0.0000
0.0000 1.4483 0.0000
0.0000 1.4828 0.0000
0.0000 1.5172 0.0000
0.0000 1.5517 0.0000
0.0000 1.5862 0.0000
0.0000 1.6207 0.0000
0.0000 1.6552 0.0000
0.0000 1.6897 0.0000
0.0000 1.7241 0.0000
0.0000 1.7586 0.0000
0.0000 1.7931 0.0000
0.0000 1.8276 0.0000
0.0000 1.8621 0.0000
0.0000 1.8966 0.0000
0.0000 1.9310 0.0000
0.0000 1.9655 0.0000
0.0000 2.0000 0.0000
0.0690 1.0000 0.0000
0.0690 1.0345 0.0000
0.0690 1.0690 0.0000
0.0690 1.1034 0.0000
0.0690 1.1379 0.0000
0.0690 1.1724 0.0000
0.0690 1.2069 0.0000
0.0690 1.2414 0.0000
0.0690 1.2759 0.0000
0.0690 1.3103 0.0000
0.0690 1.3448 0.0000
0.0690 1.3793 0.0000
0.0690 1.4138 0.0000
0.0690 1.4483 0.0000
0.0690 1.4828 0.0000
0.0690 1.5172 0.0000
0.0690 1.5517 0.0000
0.0690 1.5862 0.0000
0.0690 1.6207 0.0000
0.0690 1.6552 0.0000
0.0690 1.6897 0.0000
0.0690 1.7241 0.0000
0.0690 1.7586 0.0000
0.0690 1.7931 0.0000
0.0690 1.8276 0.0000
0.0690 1.8621 0.0000
0.0690 1.8966 0.0000
0.0690 1.9310 0.0000
0.0690 1.9655 0.0000
0.0690 2.0000 0.0000
0.1379 1.0000 0.0000
0.1379 1.0345 0.0000
0.1379 1.0690 0.0000
0.1379 1.1034 0.0000
0.1379 1.1379 0.0000
0.1379 1.1724 0.0000
0.1379 1.2069 0.0000
0.1379 1.2414 0.0000
0.1379 1.2759 0.0000
0.1379 1.3103 0.0000
0.1379 1.3448 0.0000
0.1379 1.3793 0.0000
0.1379 1.4138 0.0000
0.1379 1.4483 0.0000
0.1379 1.4828 0.0000
0.1379 1.5172 0.0000
0.1379 1.5517 0.0000
0.1379 1.5862 0.0000
0.1379 1.6207 0.0000
0.1379 1.6552 0.0000
0.1379 1.6897 0.0000
0.1379 1.7241 0.0000
0.1379 1.7586 0.0000
0.1379 1.7931 0.0000
0.1379 1.8276 0.0000
0.1379 1.8621 0.0000
0.1379 1.8966 0.0000
0.1379 1.9310 0.0000
0.1379 1.9655 0.0000
0.1379 2.0000 0.0000
0.2069 1.0000 0.0000
0.2069 1.0345 0.0000
0.2069 1.0690 0.0000
0.2069 1.1034 0.0000
0.2069 1.1379 0.0000
0.2069 1.1724 0.0000
0.2069 1.2069 0.0000
0.2069 1.2414 0.0000
0.2069 1.2759 0.0000
0.2069 1.3103 0.0000
0.2069 1.3448 0.0000
0.2069 1.3793 0.0000
0.2069 1.4138 0.0000
0.2069 1.4483 0.0000
0.2069 1.4828 0.0000
0.2069 1.5172 0.0000
0.2069 1.5517 0.0000
0.2069 1.5862 0.0000
0.2069 1.6207 0.0000
0.2069 1.6552 0.0000
0.2069 1.6897 0.0000
0.2069 1.7241 0.0000
0.2069 1.7586 0.0000
0.2069 1.7931 0.0000
0.2069 1.8276 0.0000
0.2069 1.8621 0.0000
0.2069 1.8966 0.0000
0.2069 1.9310 0.0000
0.2069 1.9655 0.0000
0.2069 2.0000 0.0000
0.2759 1.0000 0.0000
0.2759 1.0345 0.0000
0.2759 1.0690 0.0000
0.2759 1.1034 0.0000
0.2759 1.1379 0.0000
0.2759 1.1724 0.0000
0.2759 1.2069 0.0000
0.2759 1.2414 0.0000
0.2759 1.2759 0.0000
0.2759 1.3103 0.0000
0.2759 1.3448 0.0000
0.2759 1.3793 0.0000
0.2759 1.4138 0.0000
0.2759 1.4483 0.0000
0.2759 1.4828 0.0000
0.2759 1.5172 0.0000
0.2759 1.5517 0.0000
0.2759 1.5862 0.0000
0.2759 1.6207 0.0000
0.2759 1.6552 0.0000
0.2759 1.6897 0.0000
0.2759 1.7241 0.0000
0.2759 1.7586 0.0000
0.2759 1.7931 0.0000
0.2759 1.8276 0.0000
0.2759 1.8621 0.0000
0.2759 1.8966 0.0000
0.2759 1.9310 0.0000
0.2759 1.9655 0.0000
0.2759 2.0000 0.0000
0.3448 1.0000 0.0000
0.3448 1.0345 0.0000
0.3448 1.0690 0.0000
0.3448 1.1034 0.0000
0.3448 1.1379 0.0000
0.3448 1.1724 0.0000
0.3448 1.2069 0.0000
0.3448 1.2414 0.0000
0.3448 1.2759 0.0000
0.3448 1.3103 0.0000
0.3448 1.3448 0.0000
0.3448 1.3793 0.0000
0.3448 1.4138 0.0000
0.3448 1.4483 0.0000
0.3448 1.4828 0.0000
0.3448 1.5172 0.0000
0.3448 1.5517 0.0000
0.3448 1.5862 0.0000
0.3448 1.6207 0.0000
0.3448 1.6552 0.0000
0.3448 1.6897 0.0000
0.3448 1.7241 0.0000
0.3448 1.7586 0.0000
0.3448 1.7931 0.0000
0.3448 1.8276 0.0000
0.3448 1.8621 0.0000
0.3448 1.8966 0.0000
0.3448 1.9310 0.0000
0.3448 1.9655 0.0000
0.3448 2.0000 0.0000
0.4138 1.0000 0.0000
0.4138 1.0345 0.0000
0.4138 1.0690 0.0000
0.4138 1.1034 0.0000
0.4138 1.1379 0.0000
0.4138 1.1724 0.0000
0.4138 1.2069 0.0000
0.4138 1.2414 0.0000
0.4138 1.2759 0.0000
0.4138 1.3103 0.0000
0.4138 1.3448 0.0000
0.4138 1.3793 0.0000
0.4138 1.4138 0.0000
0.4138 1.4483 0.0000
0.4138 1.4828 0.0000
0.4138 1.5172 0.0000
0.4138 1.5517 0.0000
0.4138 1.5862 0.0000
0.4138 1.6207 0.0000
0.4138 1.6552 0.0000
0.4138 1.6897 0.0000
0.4138 1.7241 0.0000
0.4138 1.7586 0.0000
0.4138 1.7931 0.0000
0.4138 1.8276 0.0000
0.4138 1.8621 0.0000
0.4138 1.8966 0.0000
0.4138 1.9310 0.0000
0.4138 1.9655 0.0000
0.4138 2.0000 0.0000
0.4828 1.0000 0.0000
0.4828 1.0345 0.0000
0.4828 1.0690 0.0000
0.4828 1.1034 0.0000
0.4828 1.1379 0.0000
0.4828 1.1724 0.0000
0.4828 1.2069 0.0000
0.4828 1.2414 0.0000
0.4828 1.2759 0.0000
0.4828 1.3103 0.0000
0.4828 1.3448 0.0000
0.4828 1.3793 0.0000
0.4828 1.4138 0.0000
0.4828 1.4483 0.0000
0.4828 1.4828 0.0000
0.4828 1.5172 0.0000
0.4828 1.5517 0.0000
0.4828 1.5862 0.0000
0.4828 1.6207 0.0000
0.4828 1.6552 0.0000
0.4828 1.6897 0.0000
0.4828 1.7241 0.0000
0.4828 1.7586 0.0000
0.4828 1.7931 0.0000
0.4828 1.8276 0.0000
0.4828 1.8621 0.0000
0.4828 1.8966 0.0000
0.4828 1.9310 0.0000
0.4828 1.9655 0.0000
0.4828 2.0000 0.0000
0.5517 1.0000 0.0000
0.5517 1.0345 0.0000
0.5517 1.0690 0.0000
0.5517 1.1034 0.0000
0.5517 1.1379 0.0000
0.5517 1.1724 0.0000
0.5517 1.2069 0.0000
0.5517 1.2414 0.0000
0.5517 1.2759 0.0000
0.5517 1.3103 0.0000
0.5517 1.3448 0.0000
0.5517 1.3793 0.0000
0.5517 1.4138 0.0000
0.5517 1.4483 0.0000
0.5517 1.4828 0.0000
0.5517 1.5172 0.0000
0.5517 1.5517 0.0000
0.5517 1.5862 0.0000
0.5517 1.6207 0.0000
0.5517 1.6552 0.0000
0.5517 1.6897 0.0000
0.5517 1.7241 0.0000
0.5517 1.7586 0.0000
0.5517 1.7931 0.0000
0.5517 1.8276 0.0000
0.5517 1.8621 0.0000
0.5517 1.8966 0.0000
0.5517 1.9310 0.0000
0.5517 1.9655 0.0000
0.5517 2.0000 0.0000
0.6207 1.0000 0.0000
0.6207 1.0345 0.0000
0.6207 1.0690 0.0000
0.6207 1.1034 0.0000
0.6207 1.1379 0.0000
0.6207 1.1724 0.0000
0.6207 1.2069 0.0000
0.6207 1.2414 0.0000
0.6207 1.2759 0.0000
0.6207 1.3103 0.0000
0.6207 1.3448 0.0000
0.6207 1.3793 0.0000
0.6207 1.4138 0.0000
0.6207 1.4483 0.0000
0.6207 1.4828 0.0000
0.6207 1.5172 0.0000
0.6207 1.5517 0.0000
0.6207 1.5862 0.0000
0.6207 1.6207 0.0000
0.6207 1.6552 0.0000
0.6207 1.6897 0.0000
0.6207 1.7241 0.0000
0.6207 1.7586 0.0000
0.6207 1.7931 0.0000
0.6207 1.8276 0.0000
0.6207 1.8621 0.0000
0.6207 1.8966 0.0000
0.6207 1.9310 0.0000
0.6207 1.9655 0.0000
0.6207 2.0000 0.0000
0.6897 1.0000 0.0000
0.6897 1.0345 0.0000
0.6897 1.0690 0.0000
0.6897 1.1034 0.0000
0.6897 1.1379 0.0000
0.6897 1.1724 0.0000
0.6897 1.2069 0.0000
0.6897 1.2414 0.0000
0.6897 1.2759 0.0000
0.6897 1.3103 0.0000
0.6897 1.3448 0.0000
0.6897 1.3793 0.0000
0.6897 1.4138 0.0000
0.6897 1.4483 0.0000
0.6897 1.4828 0.0000
0.6897 1.5172 0.0000
0.6897 1.5517 0.0000
0.6897 1.5862 0.0000
0.6897 1.6207 0.0000
0.6897 1.6552 0.0000
0.6897 1.6897 0.0000
0.6897 1.7241 0.0000
0.6897 1.7586 0.0000
0.6897 1.7931 0.0000
0.6897 1.8276 0.0000
0.6897 1.8621 0.0000
0.6897 1.8966 0.0000
0.6897 1.9310 0.0000
0.6897 1.9655 0.0000
0.6897 2.0000 0.0000
0.7586 1.0000 0.0000
0.7586 1.0345 0.0000
0.7586 1.0690 0.0000
0.7586 1.1034 0.0000
0.7586 1.1379 0.0000
0.7586 1.1724 0.0000
0.7586 1.2069 0.0000
0.7586 1.2414 0.0000
0.7586 1.2759 0.0000
0.7586 1.3103 0.0000
0.7586 1.3448 0.0000
0.7586 1.3793 0.0000
0.7586 1.4138 0.0000
0.7586 1.4483 0.0000
0.7586 1.4828 0.0000
0.7586 1.5172 0.0000
0.7586 1.5517 0.0000
0.7586 1.5862 0.0000
0.7586 1.6207 0.0000
0.7586 1.6552 0.0000
0.7586 1.6897 0.0000
0.7586 1.7241 0.0000
0.7586 1.7586 0.0000
0.7586 1.7931 0.0000
0.7586 1.8276 0.0000
0.7586 1.8621 0.0000
0.7586 1.8966 0.0000
0.7586 1.9310 0.0000
0.7586 1.9655 0.0000
0.7586 2.0000 0.0000
0.8276 1.0000 0.0000
0.8276 1.0345 0.0000
0.8276 1.0690 0.0000
0.8276 1.1034 0.0000
0.8276 1.1379 0.0000
0.8276 1.1724 0.0000
0.8276 1.2069 0.0000
0.8276 1.2414 0.0000
0.8276 1.2759 0.0000
0.8276 1.3103 0.0000
0.8276 1.3448 0.0000
0.8276 1.3793 0.0000
0.8276 1.4138 0.0000
0.8276 1.4483 0.0000
0.8276 1.4828 0.0000
0.8276 1.5172 0.0000
0.8276 1.5517 0.0000
0.8276 1.5862 0.0000
0.8276 1.6207 0.0000
0.8276 1.6552 0.0000
0.8276 1.6897 0.0000
0.8276 1.7241 0.0000
0.8276 1.7586 0.0000
0.8276 1.7931 0.0000
0.8276 1.8276 0.0000
0.8276 1.8621 0.0000
0.8276 1.8966 0.0000
0.8276 1.9310 0.0000
0.8276 1.9655 0.0000
0.8276 2.0000 0.0000
0.8966 1.0000 0.0000
0.8966 1.0345 0.0000
0.8966 1.0690 0.0000
0.8966 1.1034 0.0000
0.8966 1.1379 0.0000
0.8966 1.1724 0.0000
0.8966 1.2069 0.0000
0.8966 1.2414 0.0000
0.8966 1.2759 0.0000
0.8966 1.3103 0.0000
0.8966 1.3448 0.0000
0.8966 1.3793 0.0000
0.8966 1.4138 0.0000
0.8966 1.4483 0.0000
0.8966 1.4828 0.0000
0.8966 1.5172 0.0000
0.8966 1.5517 0.0000
0.8966 1.5862 0.0000
0.8966 1.6207 0.0000
0.8966 1.6552 0.0000
0.8966 1.6897 0.0000
0.8966 1.7241 0.0000
0.8966 1.7586 0.0000
0.8966 1.7931 0.0000
0.8966 1.8276 0.0000
0.8966 1.8621 0.0000
0.8966 1.8966 0.0000
0.8966 1.9310 0.0000
0.8966 1.9655 0.0000
0.8966 2.0000 0.0000
0.9655 1.0000 0.0000
0.9655 1.0345 0.0000
0.9655 1.0690 0.0000
0.9655 1.1034 0.0000
0.9655 1.1379 0.0000
0.9655 1.1724 0.0000
0.9655 1.2069 0.0000
0.9655 1.2414 0.0000
0.9655 1.2759 0.0000
0.9655 1.3103 0.0000
0.9655 1.3448 0.0000
0.9655 1.3793 0.0000
0.9655 1.4138 0.0000
0.9655 1.4483 0.0000
0.9655 1.4828 0.0000
0.9655 1.5172 0.0000
0.9655 1.5517 0.0000
0.9655 1.5862 0.0000
0.9655 1.6207 0.0000
0.9655 1.6552 0.0000
0.9655 1.6897 0.0000
0.9655 1.7241 0.0000
0.9655 1.7586 0.0000
0.9655 1.7931 0.0000
0.9655 1.8276 0.0000
0.9655 1.8621 0.0000
0.9655 1.8966 0.0000
0.9655 1.9310 0.0000
0.9655 1.9655 0.0000
0.9655 2.0000 0.0000
1.0345 1.0000 0.0000
1.0345 1.0345 0.0000
1.0345 1.0690 0.0000
1.0345 1.1034 0.0000
1.0345 1.1379 0.0000
1.0345 1.1724 0.0000
1.0345 1.2069 0.0000
1.0345 1.2414 0.0000
1.0345 1.2759 0.0000
1.0345 1.3103 0.0000
1.0345 1.3448 0.0000
[...]
         <PointData>
            <DataArray Name="fValues" NumberOfComponents="3" format="ascii" type="Float64">
-2.95270e-30  2.40442e-29        00000 
 4.62069e-30 -4.03564e-29        00000 
-1.05434e-29  9.84559e-29        00000 
 2.26108e-29 -2.18230e-28        00000 
-3.84486e-29  4.14474e-28        00000 
 4.94083e-29 -6.40973e-28        00000 
 6.86949e-29  1.68543e-27        00000 
-5.05081e-28 -5.66351e-27        00000 
 1.68165e-27  1.80483e-26        00000 
-3.99651e-27 -4.53580e-26        00000 
 7.35187e-27  8.84556e-26        00000 
-1.08542e-26 -1.37297e-25        00000 
 1.31893e-26  1.73755e-25        00000 
-1.34881e-26 -1.81896e-25        00000 
 1.18556e-26  1.52182e-25        00000 
-9.16436e-27 -8.92044e-26        00000 
 6.44951e-27  6.67225e-27        00000 
-4.33218e-27  6.95214e-26        00000 
 2.85760e-27 -1.13518e-25        00000 
-1.81214e-27  1.16991e-25        00000 
 1.05575e-27 -9.44984e-26        00000 
-6.48348e-28  6.70400e-26        00000 
 1.26548e-28 -3.45689e-26        00000 
 7.22608e-29  1.48612e-26        00000 
-1.04782e-28 -5.58353e-27        00000 
 7.55860e-29  1.78770e-27        00000 
-4.09382e-29 -4.76818e-28        00000 
 1.84040e-29  1.00344e-28        00000 
-7.67003e-30 -1.29955e-29        00000 
 4.69293e-30 -6.74291e-31        00000 
 6.01370e-30 -4.49524e-29        00000 
-1.00345e-29  8.30007e-29        00000 
 2.51109e-29 -2.31535e-28        00000 
-6.01192e-29  5.73726e-28        00000 
 1.22209e-28 -1.16330e-27        00000 
-1.61724e-28  2.04311e-27        00000 
 6.74881e-29 -2.96524e-27        00000 
 8.02756e-28  9.31802e-27        00000 
-3.78276e-27 -3.79541e-26        00000 
 1.06732e-26  1.16428e-25        00000 
-2.17646e-26 -2.57018e-25        00000 
 3.38730e-26  4.25257e-25        00000 
-4.19073e-26 -5.52416e-25        00000 
 4.26206e-26  5.83294e-25        00000 
-3.66670e-26 -4.92270e-25        00000 
 2.73711e-26  2.91607e-25        00000 
-1.85869e-26 -1.45242e-26        00000 
 1.22518e-26 -2.46927e-25        00000 
-8.20545e-27  3.88148e-25        00000 
 5.19947e-27 -3.79519e-25        00000 
-2.85227e-27  2.82666e-25        00000 
 1.41595e-27 -1.94096e-25        00000 
-7.72330e-29  8.65879e-26        00000 
-3.74832e-28 -3.47913e-26        00000 
 3.60986e-28  1.17342e-26        00000 
-2.22297e-28 -3.26083e-27        00000 
 1.06904e-28  7.11566e-28        00000 
-4.30407e-29 -1.03452e-28        00000 
 1.60623e-29 -3.47009e-30        00000 
-9.11816e-30  1.42454e-29        00000 
-2.00658e-29  1.28600e-28        00000 
 3.64836e-29 -2.70331e-28        00000 
-1.02946e-28  8.98569e-28        00000 
 2.72104e-28 -2.64657e-27        00000 
-6.47331e-28  6.13356e-27        00000 
 1.26250e-27 -1.07369e-26        00000 
-1.58547e-27  1.18147e-26        00000 
-6.68648e-28 -1.62628e-26        00000 
 1.25343e-26  1.03665e-25        00000 
-4.93632e-26 -5.00511e-25        00000 
 1.19689e-25  1.36946e-24        00000 
-2.02019e-25 -2.51415e-24        00000 
 2.55124e-25  3.35378e-24        00000 
-2.57430e-25 -3.56212e-24        00000 
 2.15059e-25  3.00868e-24        00000 
-1.52781e-25 -1.87882e-24        00000 
 9.86264e-26  4.78177e-26        00000 
-6.47566e-26  1.69017e-24        00000 
 4.48604e-26 -2.58755e-24        00000 
-2.85133e-26  2.33642e-24        00000 
 1.40451e-26 -1.58251e-24        00000 
-5.45706e-27  8.92950e-25        00000 
-1.60202e-27 -3.92289e-25        00000 
 3.00193e-27  1.38121e-25        00000 
-2.19917e-27 -3.91065e-26        00000 
 1.15567e-27  8.30242e-27        00000 
-4.81121e-28 -1.06477e-27        00000 
 1.68847e-28 -7.83785e-29        00000 
-5.49762e-29  1.18042e-28        00000 
 2.81904e-29 -8.67750e-29        00000 
 6.43214e-29 -3.34353e-28        00000 
-1.27585e-28  7.97439e-28        00000 
 4.04832e-28 -3.14321e-27        00000 
-1.20770e-27  1.11225e-26        00000 
 3.03055e-27 -3.21092e-26        00000 
-7.32100e-27  6.46884e-26        00000 
 1.36781e-26 -7.82863e-26        00000 
-9.03434e-27  3.82606e-26        00000 
-2.32505e-26 -1.00372e-26        00000 
 1.94388e-25  1.60908e-24        00000 
-6.58425e-25 -7.30088e-24        00000 
 1.25029e-24  1.50063e-23        00000 
-1.61065e-24 -1.96631e-10        00000 
 1.60128e-24 -1.96631e-10        00000 
-1.29664e-24 -1.96631e-10        00000 
 8.58531e-25 -1.96631e-10        00000 
-5.11837e-25 -1.96631e-10        00000 
 3.45222e-25 -1.96631e-10        00000 
-2.60205e-25  1.79501e-23        00000 
 1.64394e-25 -1.45054e-23        00000 
-6.96573e-26  8.80427e-24        00000 
 1.19195e-26 -4.59457e-24        00000 
 2.10187e-26  1.70757e-24        00000 
-2.08444e-26 -5.10182e-25        00000 
 1.27106e-26  1.08759e-25        00000 
-5.67693e-27 -1.29135e-26        00000 
 2.02125e-27 -1.42837e-27        00000 
-6.23799e-28  1.47862e-27        00000 
 1.77643e-28 -6.17462e-28        00000 
-8.18892e-29  3.43589e-28        00000 
-1.85239e-28  7.22609e-28        00000 
 4.03543e-28 -1.96452e-27        00000 
-1.44576e-27  9.15368e-27        00000 
 4.85518e-27 -3.91841e-26        00000 
-1.44943e-26  1.41078e-25        00000 
 3.11250e-26 -4.00445e-25        00000 
-8.95814e-26  5.88153e-25        00000 
 1.36224e-25 -3.58739e-25        00000 
 7.76370e-26 -5.58986e-25        00000 
-1.86156e-25  2.97850e-24        00000 
 3.39767e-24  3.44989e-23        00000 
-1.34538e-10 -2.20301e-09        00000 
-1.34538e-10 -1.26986e-08        00000 
 1.41062e-23 -1.49016e-08        00000 
-1.66017e-23 -1.49016e-08        00000 
 2.03866e-23 -1.49016e-08        00000 
 2.99873e-24 -1.49016e-08        00000 
 1.34538e-10 -1.26986e-08        00000 
 1.34538e-10 -2.20301e-09        00000 
-5.76277e-25  7.40565e-23        00000 
 5.27103e-25 -5.36065e-23        00000 
 9.47645e-26  2.06557e-23        00000 
-1.70642e-25 -6.82567e-24        00000 
 1.33878e-25  1.47982e-24        00000 
-6.79815e-26 -1.59483e-25        00000 
 2.44576e-26 -2.43525e-26        00000 
-7.60191e-27  2.06384e-26        00000 
 2.04524e-27 -7.58838e-27        00000 
-5.02405e-28  2.28441e-27        00000 
 2.05590e-28 -1.08609e-27        00000 
 4.65373e-28 -1.21858e-27        00000 
-1.12898e-27  3.83713e-27        00000 
 4.58954e-27 -2.12887e-26        00000 
-1.75109e-26  1.09385e-25        00000 
 5.86029e-26 -4.99137e-25        00000 
-1.75067e-25  1.84827e-24        00000 
 4.64030e-25 -4.63355e-24        00000 
-1.18193e-24  2.93411e-24        00000 
 7.89145e-25  1.16907e-24        00000 
 9.75804e-25 -2.17602e-23        00000 
-1.44081e-09 -1.06944e-08        00000 
-7.60609e-09 -1.12089e-07        00000 
-7.60609e-09 -3.79668e-07        00000 
-1.44081e-09 -4.81062e-07        00000 
-1.27990e-21 -4.91757e-07        00000 
 1.37461e-21 -4.91757e-07        00000 
 1.44081e-09 -4.81062e-07        00000 
 7.60609e-09 -3.79668e-07        00000 
 7.60609e-09 -1.12089e-07        00000 
 1.44081e-09 -1.06944e-08        00000 
 5.36615e-25  2.17618e-22        00000 
-1.22687e-24 -8.98072e-23        00000 
 1.43550e-24  2.11799e-23        00000 
-7.55000e-25 -2.34685e-24        00000 
 2.95011e-25 -4.03700e-25        00000 
-9.37649e-26  2.94191e-25        00000 
 2.50188e-26 -1.00637e-25        00000 
-5.70211e-27  2.71072e-26        00000 
 1.18868e-27 -6.77479e-27        00000 
-4.25242e-28  2.90060e-27        00000 
-9.64692e-28  1.37619e-27        00000 
 2.70380e-27 -5.32250e-27        00000 
-1.26911e-26  3.65984e-26        00000 
 5.49912e-26 -2.31665e-25        00000 
-2.15596e-25  1.29340e-24        00000 
 7.43849e-25 -6.38470e-24        00000 
-1.98699e-24  2.58933e-23        00000 
 5.21451e-24 -6.00679e-23        00000 
-1.78874e-23 -7.15496e-23        00000 
-6.63595e-09 -2.94421e-08        00000 
-6.22537e-08 -4.39918e-07        00000 
-1.88812e-07 -2.54968e-06        00000 
-1.88812e-07 -6.72396e-06        00000 
-6.22537e-08 -8.83372e-06        00000 
-6.63595e-09 -9.24420e-06        00000 
 6.63595e-09 -9.24420e-06        00000 
 6.22537e-08 -8.83372e-06        00000 
 1.88812e-07 -6.72396e-06        00000 
 1.88812e-07 -2.54968e-06        00000 
 6.22537e-08 -4.39918e-07        00000 
 6.63595e-09 -2.94421e-08        00000 
 1.48770e-23  3.13408e-22        00000 
-8.49930e-24 -3.36899e-23        00000 
 3.75224e-24 -7.59817e-24        00000 
-1.16882e-24  4.27894e-24        00000 
 3.12300e-25 -1.35118e-24        00000 
-6.74412e-26  3.37504e-25        00000 
 1.27034e-26 -7.58288e-26        00000 
-2.20119e-27  1.69182e-26        00000 
 6.66855e-28 -6.77009e-27        00000 
 1.39302e-27 -3.83798e-28        00000 
-5.11072e-27  3.18216e-27        00000 
 2.94673e-26 -3.61512e-26        00000 
-1.48098e-25  3.19498e-25        00000 
 6.59303e-25 -2.41227e-24        00000 
-2.69382e-24  1.52605e-23        00000 
 9.24886e-24 -8.23766e-23        00000 
-2.35560e-23  3.92600e-22        00000 
-1.71670e-08 -5.05194e-08        00000 
-2.23633e-07 -9.48118e-07        00000 
-1.14696e-06 -7.81613e-06        00000 
-2.64763e-06 -3.35575e-05        00000 
-2.64763e-06 -7.66698e-05        00000 
-1.14696e-06 -1.02411e-04        00000 
-2.06466e-07 -1.09229e-04        00000 
 2.06466e-07 -1.09229e-04        00000 
 1.14696e-06 -1.02411e-04        00000 
 2.64763e-06 -7.66698e-05        00000 
 2.64763e-06 -3.35575e-05        00000 
 1.14696e-06 -7.81613e-06        00000 
 2.23633e-07 -9.48118e-07        00000 
 1.71670e-08 -5.05194e-08        00000 
 4.34080e-23 -1.42063e-22        00000 
-1.47136e-23  6.14326e-23        00000 
 4.03346e-24 -1.83009e-23        00000 
-7.97738e-25  4.17207e-24        00000 
 1.35375e-25 -8.62390e-25        00000 
-2.03559e-26  1.76664e-25        00000 
 2.71234e-27 -3.70194e-26        00000 
-6.07338e-28  1.42502e-26        00000 
-4.70054e-28 -1.75191e-27        00000 
 5.14224e-27  5.93792e-27        00000 
-5.15616e-26 -1.89613e-26        00000 
 3.27326e-25 -1.00550e-25        00000 
-1.72471e-24  2.07362e-24        00000 
 7.77124e-24 -2.31910e-23        00000 
-3.46532e-23  1.69306e-22        00000 
-2.73287e-08 -5.59109e-08        00000 
-4.29304e-07 -1.18966e-06        00000 
-3.05850e-06 -1.25545e-05        00000 
-1.15131e-05 -7.74622e-05        00000 
-2.25716e-05 -2.78117e-04        00000 
-2.25716e-05 -5.80358e-04        00000 
-1.14858e-05 -7.80957e-04        00000 
-2.62920e-06 -8.44731e-04        00000 
 2.62920e-06 -8.44731e-04        00000 
 1.14858e-05 -7.80957e-04        00000 
 2.25716e-05 -5.80358e-04        00000 
 2.25716e-05 -2.78117e-04        00000 
 1.15131e-05 -7.74622e-05        00000 
 3.05850e-06 -1.25545e-05        00000 
 4.29304e-07 -1.18966e-06        00000 
 2.73287e-08 -5.59109e-08        00000 
 5.53513e-23 -2.54135e-22        00000 
-9.28175e-24  5.07303e-23        00000 
 1.34466e-24 -9.29987e-24        00000 
-1.67056e-25  1.84236e-24        00000 
 1.56498e-26 -3.62839e-25        00000 
-3.86539e-28  7.36643e-26        00000 
-1.76532e-28 -2.81113e-26        00000 
-4.25624e-27  1.50267e-27        00000 
 6.04921e-27 -1.61708e-26        00000 
 2.71226e-26  1.33676e-25        00000 
-5.08076e-25 -8.16802e-25        00000 
 3.56110e-24  2.60540e-24        00000 
-2.16840e-23  4.32857e-24        00000 
-2.75747e-08 -3.99180e-08        00000 
-4.55140e-07 -8.48508e-07        00000 
-3.97356e-06 -1.04504e-05        00000 
-2.12635e-05 -8.70446e-05        00000 
-6.65272e-05 -4.63354e-04        00000 
-1.16841e-04 -1.48690e-03        00000 
-1.16813e-04 -2.91690e-03        00000 
-6.60721e-05 -3.93963e-03        00000 
-1.72900e-05 -4.30634e-03        00000 
 1.72900e-05 -4.30634e-03        00000 
 6.60721e-05 -3.93963e-03        00000 
 1.16813e-04 -2.91690e-03        00000 
 1.16841e-04 -1.48690e-03        00000 
 6.65272e-05 -4.63354e-04        00000 
 2.12635e-05 -8.70446e-05        00000 
 3.97356e-06 -1.04504e-05        00000 
 4.55140e-07 -8.48508e-07        00000 
 2.75747e-08 -3.99180e-08        00000 
 1.11797e-23 -8.74503e-23        00000 
-9.05225e-25  1.83600e-23        00000 
-1.56877e-27 -3.57332e-24        00000 
 3.39752e-26  6.80601e-25        00000 
-5.97192e-27 -1.40184e-25        00000 
 5.92289e-28  5.47766e-26        00000 
 1.16603e-26  1.43436e-26        00000 
-4.14409e-26 -4.65044e-27        00000 
 1.82885e-25 -1.73481e-25        00000 
-2.69759e-25  1.84977e-24        00000 
-5.34116e-24 -1.57751e-23        00000 
-1.75071e-08 -1.78585e-08        00000 
-2.40330e-07 -2.94899e-07        00000 
-2.18224e-06 -3.61194e-06        00000 
-1.58302e-05 -4.06359e-05        00000 
-7.59351e-05 -3.35219e-04        00000 
-2.10359e-04 -1.69901e-03        00000 
-3.36183e-04 -5.05182e-03        00000 
-3.35960e-04 -9.43633e-03        00000 
-2.08177e-04 -1.27858e-02        00000 
-6.01049e-05 -1.41126e-02        00000 
 6.01049e-05 -1.41126e-02        00000 
 2.08177e-04 -1.27858e-02        00000 
 3.35960e-04 -9.43633e-03        00000 
 3.36183e-04 -5.05182e-03        00000 
 2.10359e-04 -1.69901e-03        00000 
 7.59351e-05 -3.35219e-04        00000 
 1.58302e-05 -4.06359e-05        00000 
 2.18224e-06 -3.61194e-06        00000 
 2.40330e-07 -2.94899e-07        00000 
 1.75071e-08 -1.78585e-08        00000 
-1.47225e-24 -3.43525e-23        00000 
 9.07137e-25  6.12702e-24        00000 
-1.11336e-25 -1.26169e-24        00000 
 6.43037e-27  2.69699e-25        00000 
 9.87215e-27 -1.15030e-25        00000 
 6.79331e-27 -7.98829e-26        00000 
 7.68499e-26  1.29300e-25        00000 
-6.35117e-25 -2.77524e-25        00000 
 3.31256e-24 -4.90750e-25        00000 
-6.70611e-09 -4.68196e-09        00000 
-2.82245e-08 -1.38382e-08        00000 
 3.09866e-08  1.81202e-07        00000 
-1.19704e-06 -9.86897e-07        00000 
-2.15302e-05 -6.22123e-05        00000 
-1.15266e-04 -7.24728e-04        00000 
-2.68376e-04 -3.75034e-03        00000 
-3.44630e-04 -1.02330e-02        00000 
-3.44689e-04 -1.79542e-02        00000 
-2.67185e-04 -2.44357e-02        00000 
-9.37359e-05 -2.74001e-02        00000 
 9.37359e-05 -2.74001e-02        00000 
 2.67185e-04 -2.44357e-02        00000 
 3.44689e-04 -1.79542e-02        00000 
 3.44630e-04 -1.02330e-02        00000 
 2.68376e-04 -3.75034e-03        00000 
 1.15266e-04 -7.24728e-04        00000 
 2.15302e-05 -6.22123e-05        00000 
 1.19704e-06 -9.86897e-07        00000 
-3.09866e-08  1.81202e-07        00000 
 2.82245e-08 -1.38382e-08        00000 
 6.70611e-09 -4.68196e-09        00000 
-1.98340e-24 -1.09087e-23        00000 
 1.41044e-25  2.43640e-24        00000 
 6.61252e-26 -5.47031e-25        00000 
-1.02356e-25  2.43841e-25        00000 
-2.12139e-25  3.26553e-25        00000 
 8.97678e-26 -5.14213e-25        00000 
 1.00940e-24  1.70045e-24        00000 
-1.41106e-09 -6.24720e-10        00000 
 2.60683e-08  1.78572e-08        00000 
 3.50573e-07  2.60755e-07        00000 
 1.87914e-06  1.75900e-06        00000 
 5.88561e-06  1.13757e-05        00000 
-5.73758e-07 -3.43431e-05        00000 
-3.95408e-06 -1.04234e-03        00000 
 2.20748e-04 -4.97683e-03        00000 
 6.29787e-04 -1.02792e-02        00000 
 6.28258e-04 -1.46303e-02        00000 
 2.14889e-04 -1.99420e-02        00000 
-3.38173e-06 -2.38308e-02        00000 
 3.38173e-06 -2.38308e-02        00000 
-2.14889e-04 -1.99420e-02        00000 
-6.28258e-04 -1.46303e-02        00000 
-6.29787e-04 -1.02792e-02        00000 
-2.20748e-04 -4.97683e-03        00000 
 3.95408e-06 -1.04234e-03        00000 
 5.73758e-07 -3.43431e-05        00000 
-5.88561e-06  1.13757e-05        00000 
-1.87914e-06  1.75900e-06        00000 
-3.50573e-07  2.60755e-07        00000 
-2.60683e-08  1.78572e-08        00000 
 1.41106e-09 -6.24720e-10        00000 
 1.35400e-25 -4.83740e-24        00000 
-6.10511e-25  1.26789e-24        00000 
 6.86782e-25 -6.67089e-25        00000 
 1.14597e-24 -1.70848e-24        00000 
-1.52279e-24  1.79853e-24        00000 
-1.31106e-10 -2.88527e-11        00000 
 9.50413e-09  3.31056e-09        00000 
 1.95559e-09 -6.08778e-09        00000 
-8.83274e-07 -7.40572e-07        00000 
-4.41002e-06 -5.29587e-06        00000 
-1.44154e-05 -4.81398e-06        00000 
-5.80400e-05 -1.55865e-04        00000 
 3.80183e-05 -1.96145e-03        00000 
 7.36895e-04 -5.15960e-03        00000 
 1.52644e-03 -1.71797e-03        00000 
 1.52997e-03  6.51301e-03        00000 
 7.51313e-04  9.95343e-03        00000 
 9.60679e-05  6.90631e-03        00000 
-9.60679e-05  6.90631e-03        00000 
-7.51313e-04  9.95343e-03        00000 
-1.52997e-03  6.51301e-03        00000 
-1.52644e-03 -1.71797e-03        00000 
-7.36895e-04 -5.15960e-03        00000 
-3.80183e-05 -1.96145e-03        00000 
 5.80400e-05 -1.55865e-04        00000 
 1.44154e-05 -4.81398e-06        00000 
 4.41002e-06 -5.29587e-06        00000 
 8.83274e-07 -7.40572e-07        00000 
-1.95559e-09 -6.08778e-09        00000 
-9.50413e-09  3.31056e-09        00000 
 1.31106e-10 -2.88527e-11        00000 
 4.01172e-24 -3.72462e-24        00000 
-4.21371e-24  2.28796e-24        00000 
-5.06047e-24  1.00098e-23        00000 
-2.11182e-12  3.36493e-13        00000 
 6.93050e-10  1.02013e-11        00000 
-2.17713e-08 -4.68743e-09        00000 
-2.71914e-07 -5.22795e-08        00000 
 2.70347e-07  1.00498e-06        00000 
 7.04156e-06  4.61272e-06        00000 
-7.25480e-06  4.28664e-05        00000 
-1.45341e-04 -4.37047e-04        00000 
-1.74945e-04 -4.07583e-03        00000 
-1.45493e-04 -6.41488e-03        00000 
-6.75955e-04  2.04018e-03        00000 
-6.82726e-04  1.23903e-02        00000 
-1.38510e-04  2.08082e-02        00000 
-2.96268e-05  1.89490e-02        00000 
 2.96268e-05  1.89490e-02        00000 
 1.38510e-04  2.08082e-02        00000 
 6.82726e-04  1.23903e-02        00000 
 6.75955e-04  2.04018e-03        00000 
 1.45493e-04 -6.41488e-03        00000 
 1.74945e-04 -4.07583e-03        00000 
 1.45341e-04 -4.37047e-04        00000 
 7.25480e-06  4.28664e-05        00000 
-7.04156e-06  4.61272e-06        00000 
-2.70347e-07  1.00498e-06        00000 
 2.71914e-07 -5.22795e-08        00000 
 2.17713e-08 -4.68743e-09        00000 
-6.93050e-10  1.02013e-11        00000 
 2.11182e-12  3.36493e-13        00000 
 2.44267e-23 -8.94654e-24        00000 
 1.21560e-13 -3.84843e-16        00000 
-2.61475e-11  8.30592e-12        00000 
-8.20269e-10  1.67056e-09        00000 
-1.39166e-08 -5.19457e-08        00000 
 1.00767e-06  2.41784e-08        00000 
 3.47291e-06 -3.48259e-07        00000 
 4.94297e-06 -1.54216e-05        00000 
-1.81730e-05  1.24757e-04        00000 
 3.86600e-05 -6.84720e-04        00000 
 3.97381e-04 -4.66622e-03        00000 
-4.12773e-04 -3.32657e-03        00000 
-2.25867e-03 -2.58340e-03        00000 
-2.26014e-03 -1.09034e-02        00000 
-3.93592e-04 -1.03007e-02        00000 
 3.58708e-04 -8.15153e-03        00000 
-3.58708e-04 -8.15153e-03        00000 
 3.93592e-04 -1.03007e-02        00000 
 2.26014e-03 -1.09034e-02        00000 
 2.25867e-03 -2.58340e-03        00000 
 4.12773e-04 -3.32657e-03        00000 
-3.97381e-04 -4.66622e-03        00000 
-3.86600e-05 -6.84720e-04        00000 
 1.81730e-05  1.24757e-04        00000 
-4.94297e-06 -1.54216e-05        00000 
-3.47291e-06 -3.48259e-07        00000 
-1.00767e-06  2.41784e-08        00000 
 1.39166e-08 -5.19457e-08        00000 
 8.20269e-10  1.67056e-09        00000 
 2.61475e-11  8.30592e-12        00000 
-1.21560e-13 -3.84843e-16        00000 
-6.99509e-13 -2.09542e-11        00000 
 1.24736e-09 -9.17340e-10        00000 
 9.25851e-10  2.02518e-08        00000 
 2.23804e-07  2.41272e-07        00000 
-1.42463e-06  2.18399e-06        00000 
-1.68877e-05 -1.52934e-06        00000 
-1.64238e-05 -1.44940e-07        00000 
-3.40782e-05  2.55298e-04        00000 
 1.49959e-04 -1.78189e-03        00000 
 5.82455e-04 -3.80306e-03        00000 
 7.26522e-04  4.10020e-03        00000 
 1.91410e-03  6.28946e-04        00000 
 1.91364e-03 -7.29694e-03        00000 
 7.59175e-04 -1.10274e-02        00000 
 4.32719e-04 -1.08499e-03        00000 
-4.32719e-04 -1.08499e-03        00000 
-7.59175e-04 -1.10274e-02        00000 