<?xml version="1.0" encoding="utf-8"?>
<VTKFile byte_order="LittleEndian" type="UnstructuredGrid" version="0.1">
   <UnstructuredGrid>
      <Piece NumberOfCells="720" NumberOfPoints="768">
         <Points>
            <DataArray Name="Points" NumberOfComponents="3" format="ascii" type="Float32">
0.2121 0.2121 0.0000
0.2647 0.2647 0.0000
0.3172 0.3172 0.0000
0.3697 0.3697 0.0000
0.4222 0.4222 0.0000
0.4748 0.4748 0.0000
0.5273 0.5273 0.0000
0.5798 0.5798 0.0000
0.6323 0.6323 0.0000
0.6849 0.6849 0.0000
0.7374 0.7374 0.0000
0.7899 0.7899 0.0000
0.8424 0.8424 0.0000
0.8950 0.8950 0.0000
0.9475 0.9475 0.0000
1.0000 1.0000 0.0000
0.1921 0.2305 0.0000
0.2348 0.2818 0.0000
0.2776 0.3331 0.0000
0.3203 0.3844 0.0000
0.3631 0.4357 0.0000
0.4058 0.4870 0.0000
0.4486 0.5383 0.0000
0.4913 0.5896 0.0000
0.5341 0.6409 0.0000
0.5768 0.6922 0.0000
0.6196 0.7435 0.0000
0.6623 0.7948 0.0000
0.7051 0.8461 0.0000
0.7478 0.8974 0.0000
0.7906 0.9487 0.0000
0.8333 1.0000 0.0000
0.1664 0.2496 0.0000
0.1998 0.2996 0.0000
0.2331 0.3497 0.0000
0.2665 0.3997 0.0000
0.2998 0.4497 0.0000
0.3332 0.4997 0.0000
0.3665 0.5498 0.0000
0.3999 0.5998 0.0000
0.4332 0.6498 0.0000
0.4666 0.6998 0.0000
0.4999 0.7499 0.0000
0.5333 0.7999 0.0000
0.5666 0.8499 0.0000
0.6000 0.8999 0.0000
0.6333 0.9500 0.0000
0.6667 1.0000 0.0000
0.1342 0.2683 0.0000
0.1586 0.3171 0.0000
0.1829 0.3659 0.0000
0.2073 0.4147 0.0000
0.2317 0.4634 0.0000
0.2561 0.5122 0.0000
0.2805 0.5610 0.0000
0.3049 0.6098 0.0000
0.3293 0.6586 0.0000
0.3537 0.7073 0.0000
0.3781 0.7561 0.0000
0.4024 0.8049 0.0000
0.4268 0.8537 0.0000
0.4512 0.9024 0.0000
0.4756 0.9512 0.0000
0.5000 1.0000 0.0000
0.0949 0.2846 0.0000
0.1108 0.3323 0.0000
0.1267 0.3800 0.0000
0.1426 0.4277 0.0000
0.1585 0.4754 0.0000
0.1744 0.5231 0.0000
0.1903 0.5708 0.0000
0.2062 0.6185 0.0000
0.2220 0.6661 0.0000
0.2379 0.7138 0.0000
0.2538 0.7615 0.0000
0.2697 0.8092 0.0000
0.2856 0.8569 0.0000
0.3015 0.9046 0.0000
0.3174 0.9523 0.0000
0.3333 1.0000 0.0000
0.0493 0.2959 0.0000
0.0571 0.3429 0.0000
0.0650 0.3898 0.0000
0.0728 0.4367 0.0000
0.0806 0.4837 0.0000
0.0884 0.5306 0.0000
0.0963 0.5776 0.0000
0.1041 0.6245 0.0000
0.1119 0.6714 0.0000
0.1197 0.7184 0.0000
0.1276 0.7653 0.0000
0.1354 0.8122 0.0000
0.1432 0.8592 0.0000
0.1510 0.9061 0.0000
0.1588 0.9531 0.0000
0.1667 1.0000 0.0000
0.0000 0.3000 0.0000
0.0000 0.3467 0.0000
0.0000 0.3933 0.0000
0.0000 0.4400 0.0000
0.0000 0.4867 0.0000
0.0000 0.5333 0.0000
0.0000 0.5800 0.0000
0.0000 0.6267 0.0000
0.0000 0.6733 0.0000
0.0000 0.7200 0.0000
0.0000 0.7667 0.0000
0.0000 0.8133 0.0000
0.0000 0.8600 0.0000
0.0000 0.9067 0.0000
0.0000 0.9533 0.0000
0.0000 1.0000 0.0000
-0.0493 0.2959 0.0000
-0.0571 0.3429 0.0000
-0.0650 0.3898 0.0000
-0.0728 0.4367 0.0000
-0.0806 0.4837 0.0000
-0.0884 0.5306 0.0000
-0.0963 0.5776 0.0000
-0.1041 0.6245 0.0000
-0.1119 0.6714 0.0000
-0.1197 0.7184 0.0000
-0.1276 0.7653 0.0000
-0.1354 0.8122 0.0000
-0.1432 0.8592 0.0000
-0.1510 0.9061 0.0000
-0.1588 0.9531 0.0000
-0.1667 1.0000 0.0000
-0.0949 0.2846 0.0000
-0.1108 0.3323 0.0000
-0.1267 0.3800 0.0000
-0.1426 0.4277 0.0000
-0.1585 0.4754 0.0000
-0.1744 0.5231 0.0000
-0.1903 0.5708 0.0000
-0.2062 0.6185 0.0000
-0.2220 0.6661 0.0000
-0.2379 0.7138 0.0000
-0.2538 0.7615 0.0000
-0.2697 0.8092 0.0000
-0.2856 0.8569 0.0000
-0.3015 0.9046 0.0000
-0.3174 0.9523 0.0000
-0.3333 1.0000 0.0000
-0.1342 0.2683 0.0000
-0.1586 0.3171 0.0000
-0.1829 0.3659 0.0000
-0.2073 0.4147 0.0000
-0.2317 0.4634 0.0000
-0.2561 0.5122 0.0000
-0.2805 0.5610 0.0000
-0.3049 0.6098 0.0000
-0.3293 0.6586 0.0000
-0.3537 0.7073 0.0000
-0.3781 0.7561 0.0000
-0.4024 0.8049 0.0000
-0.4268 0.8537 0.0000
-0.4512 0.9024 0.0000
-0.4756 0.9512 0.0000
-0.5000 1.0000 0.0000
-0.1664 0.2496 0.0000
-0.1998 0.2996 0.0000
-0.2331 0.3497 0.0000
-0.2665 0.3997 0.0000
-0.2998 0.4497 0.0000
-0.3332 0.4997 0.0000
-0.3665 0.5498 0.0000
-0.3999 0.5998 0.0000
-0.4332 0.6498 0.0000
-0.4666 0.6998 0.0000
-0.4999 0.7499 0.0000
-0.5333 0.7999 0.0000
-0.5666 0.8499 0.0000
-0.6000 0.8999 0.0000
-0.6333 0.9500 0.0000
-0.6667 1.0000 0.0000
-0.1921 0.2305 0.0000
-0.2348 0.2818 0.0000
-0.2776 0.3331 0.0000
-0.3203 0.3844 0.0000
-0.3631 0.4357 0.0000
-0.4058 0.4870 0.0000
-0.4486 0.5383 0.0000
-0.4913 0.5896 0.0000
-0.5341 0.6409 0.0000
-0.5768 0.6922 0.0000
-0.6196 0.7435 0.0000
-0.6623 0.7948 0.0000
-0.7051 0.8461 0.0000
-0.7478 0.8974 0.0000
-0.7906 0.9487 0.0000
-0.8333 1.0000 0.0000
-0.2121 0.2121 0.0000
-0.2647 0.2647 0.0000
-0.3172 0.3172 0.0000
-0.3697 0.3697 0.0000
-0.4222 0.4222 0.0000
-0.4748 0.4748 0.0000
-0.5273 0.5273 0.0000
-0.5798 0.5798 0.0000
-0.6323 0.6323 0.0000
-0.6849 0.6849 0.0000
-0.7374 0.7374 0.0000
-0.7899 0.7899 0.0000
-0.8424 0.8424 0.0000
-0.8950 0.8950 0.0000
-0.9475 0.9475 0.0000
-1.0000 1.0000 0.0000
-0.2305 0.1921 0.0000
-0.2818 0.2348 0.0000
-0.3331 0.2776 0.0000
-0.3844 0.3203 0.0000
-0.4357 0.3631 0.0000
-0.4870 0.4058 0.0000
-0.5383 0.4486 0.0000
-0.5896 0.4913 0.0000
-0.6409 0.5341 0.0000
-0.6922 0.5768 0.0000
-0.7435 0.6196 0.0000
-0.7948 0.6623 0.0000
-0.8461 0.7051 0.0000
-0.8974 0.7478 0.0000
-0.9487 0.7906 0.0000
-1.0000 0.8333 0.0000
-0.2496 0.1664 0.0000
-0.2996 0.1998 0.0000
-0.3497 0.2331 0.0000
-0.3997 0.2665 0.0000
-0.4497 0.2998 0.0000
-0.4997 0.3332 0.0000
-0.5498 0.3665 0.0000
-0.5998 0.3999 0.0000
-0.6498 0.4332 0.0000
-0.6998 0.4666 0.0000
-0.7499 0.4999 0.0000
-0.7999 0.5333 0.0000
-0.8499 0.5666 0.0000
-0.8999 0.6000 0.0000
-0.9500 0.6333 0.0000
-1.0000 0.6667 0.0000
-0.2683 0.1342 0.0000
-0.3171 0.1586 0.0000
-0.3659 0.1829 0.0000
-0.4147 0.2073 0.0000
-0.4634 0.2317 0.0000
-0.5122 0.2561 0.0000
-0.5610 0.2805 0.0000
-0.6098 0.3049 0.0000
-0.6586 0.3293 0.0000
-0.7073 0.3537 0.0000
-0.7561 0.3781 0.0000
-0.8049 0.4024 0.0000
-0.8537 0.4268 0.0000
-0.9024 0.4512 0.0000
-0.9512 0.4756 0.0000
-1.0000 0.5000 0.0000
-0.2846 0.0949 0.0000
-0.3323 0.1108 0.0000
-0.3800 0.1267 0.0000
-0.4277 0.1426 0.0000
-0.4754 0.1585 0.0000
-0.5231 0.1744 0.0000
-0.5708 0.1903 0.0000
-0.6185 0.2062 0.0000
-0.6661 0.2220 0.0000
-0.7138 0.2379 0.0000
-0.7615 0.2538 0.0000
-0.8092 0.2697 0.0000
-0.8569 0.2856 0.0000
-0.9046 0.3015 0.0000
-0.9523 0.3174 0.0000
-1.0000 0.3333 0.0000
-0.2959 0.0493 0.0000
-0.3429 0.0571 0.0000
-0.3898 0.0650 0.0000
-0.4367 0.0728 0.0000
-0.4837 0.0806 0.0000
-0.5306 0.0884 0.0000
-0.5776 0.0963 0.0000
-0.6245 0.1041 0.0000
-0.6714 0.1119 0.0000
-0.7184 0.1197 0.0000
-0.7653 0.1276 0.0000
-0.8122 0.1354 0.0000
-0.8592 0.1432 0.0000
-0.9061 0.1510 0.0000
-0.9531 0.1588 0.0000
-1.0000 0.1667 0.0000
-0.3000 0.0000 0.0000
-0.3467 0.0000 0.0000
-0.3933 0.0000 0.0000
-0.4400 0.0000 0.0000
-0.4867 0.0000 0.0000
-0.5333 0.0000 0.0000
-0.5800 0.0000 0.0000
-0.6267 0.0000 0.0000
-0.6733 0.0000 0.0000
-0.7200 0.0000 0.0000
-0.7667 0.0000 0.0000
-0.8133 0.0000 0.0000
-0.8600 0.0000 0.0000
-0.9067 0.0000 0.0000
-0.9533 0.0000 0.0000
-1.0000 0.0000 0.0000
-0.2959 -0.0493 0.0000
-0.3429 -0.0571 0.0000
-0.3898 -0.0650 0.0000
-0.4367 -0.0728 0.0000
-0.4837 -0.0806 0.0000
-0.5306 -0.0884 0.0000
-0.5776 -0.0963 0.0000
-0.6245 -0.1041 0.0000
-0.6714 -0.1119 0.0000
-0.7184 -0.1197 0.0000
-0.7653 -0.1276 0.0000
-0.8122 -0.1354 0.0000
-0.8592 -0.1432 0.0000
-0.9061 -0.1510 0.0000
-0.9531 -0.1588 0.0000
-1.0000 -0.1667 0.0000
-0.2846 -0.0949 0.0000
-0.3323 -0.1108 0.0000
-0.3800 -0.1267 0.0000
-0.4277 -0.1426 0.0000
-0.4754 -0.1585 0.0000
-0.5231 -0.1744 0.0000
-0.5708 -0.1903 0.0000
-0.6185 -0.2062 0.0000
-0.6661 -0.2220 0.0000
-0.7138 -0.2379 0.0000
-0.7615 -0.2538 0.0000
-0.8092 -0.2697 0.0000
-0.8569 -0.2856 0.0000
-0.9046 -0.3015 0.0000
-0.9523 -0.3174 0.0000
-1.0000 -0.3333 0.0000
-0.2683 -0.1342 0.0000
-0.3171 -0.1586 0.0000
-0.3659 -0.1829 0.0000
-0.4147 -0.2073 0.0000
-0.4634 -0.2317 0.0000
-0.5122 -0.2561 0.0000
-0.5610 -0.2805 0.0000
-0.6098 -0.3049 0.0000
-0.6586 -0.3293 0.0000
-0.7073 -0.3537 0.0000
-0.7561 -0.3781 0.0000
-0.8049 -0.4024 0.0000
-0.8537 -0.4268 0.0000
-0.9024 -0.4512 0.0000
-0.9512 -0.4756 0.0000
-1.0000 -0.5000 0.0000
-0.2496 -0.1664 0.0000
-0.2996 -0.1998 0.0000
-0.3497 -0.2331 0.0000
-0.3997 -0.2665 0.0000
-0.4497 -0.2998 0.0000
-0.4997 -0.3332 0.0000
-0.5498 -0.3665 0.0000
-0.5998 -0.3999 0.0000
-0.6498 -0.4332 0.0000
-0.6998 -0.4666 0.0000
-0.7499 -0.4999 0.0000
-0.7999 -0.5333 0.0000
-0.8499 -0.5666 0.0000
-0.8999 -0.6000 0.0000
-0.9500 -0.6333 0.0000
-1.0000 -0.6667 0.0000
-0.2305 -0.1921 0.0000
-0.2818 -0.2348 0.0000
-0.3331 -0.2776 0.0000
-0.3844 -0.3203 0.0000
-0.4357 -0.3631 0.0000
-0.4870 -0.4058 0.0000
-0.5383 -0.4486 0.0000
-0.5896 -0.4913 0.0000
-0.6409 -0.5341 0.0000
-0.6922 -0.5768 0.0000
-0.7435 -0.6196 0.0000
-0.7948 -0.6623 0.0000
-0.8461 -0.7051 0.0000
-0.8974 -0.7478 0.0000
-0.9487 -0.7906 0.0000
-1.0000 -0.8333 0.0000
-0.2121 -0.2121 0.0000
-0.2647 -0.2647 0.0000
-0.3172 -0.3172 0.0000
-0.3697 -0.3697 0.0000
-0.4222 -0.4222 0.0000
-0.4748 -0.4748 0.0000
-0.5273 -0.5273 0.0000
-0.5798 -0.5798 0.0000
-0.6323 -0.6323 0.0000
-0.6849 -0.6849 0.0000
-0.7374 -0.7374 0.0000
-0.7899 -0.7899 0.0000
-0.8424 -0.8424 0.0000
-0.8950 -0.8950 0.0000
-0.9475 -0.9475 0.0000
-1.0000 -1.0000 0.0000
-0.1921 -0.2305 0.0000
-0.2348 -0.2818 0.0000
-0.2776 -0.3331 0.0000
-0.3203 -0.3844 0.0000
-0.3631 -0.4357 0.0000
-0.4058 -0.4870 0.0000
-0.4486 -0.5383 0.0000
-0.4913 -0.5896 0.0000
-0.5341 -0.6409 0.0000
-0.5768 -0.6922 0.0000
-0.6196 -0.7435 0.0000
-0.6623 -0.7948 0.0000
-0.7051 -0.8461 0.0000
-0.7478 -0.8974 0.0000
-0.7906 -0.9487 0.0000
-0.8333 -1.0000 0.0000
-0.1664 -0.2496 0.0000
-0.1998 -0.2996 0.0000
-0.2331 -0.3497 0.0000
-0.2665 -0.3997 0.0000
-0.2998 -0.4497 0.0000
-0.3332 -0.4997 0.0000
-0.3665 -0.5498 0.0000
-0.3999 -0.5998 0.0000
-0.4332 -0.6498 0.0000
-0.4666 -0.6998 0.0000
-0.4999 -0.7499 0.0000
-0.5333 -0.7999 0.0000
-0.5666 -0.8499 0.0000
-0.6000 -0.8999 0.0000
-0.6333 -0.9500 0.0000
-0.6667 -1.0000 0.0000
-0.1342 -0.2683 0.0000
-0.1586 -0.3171 0.0000
-0.1829 -0.3659 0.0000
-0.2073 -0.4147 0.0000
-0.2317 -0.4634 0.0000
-0.2561 -0.5122 0.0000
-0.2805 -0.5610 0.0000
[...]
         <PointData>
            <DataArray Name="fValues" NumberOfComponents="3" format="ascii" type="Float64">
 8.50041e-03  3.70242e-02        00000 
 5.26612e-03  4.03935e-02        00000 
 5.20037e-03  3.85793e-02        00000 
 5.18040e-03  3.39600e-02        00000 
 4.30133e-03  2.78216e-02        00000 
 2.34678e-03  2.09769e-02        00000 
-6.72340e-04  1.39519e-02        00000 
-4.65901e-03  7.10365e-03        00000 
-9.46846e-03  6.86914e-04        00000 
-1.49057e-02 -5.10666e-03        00000 
-2.06963e-02 -1.01262e-02        00000 
-2.64238e-02 -1.42486e-02        00000 
-3.14130e-02 -1.73685e-02        00000 
-3.45207e-02 -1.93759e-02        00000 
-3.37675e-02 -2.00681e-02        00000 
-2.57256e-02 -1.88053e-02        00000 
 6.08069e-03  3.46506e-02        00000 
 3.80040e-03  3.61013e-02        00000 
 4.10167e-03  3.46303e-02        00000 
 4.57517e-03  3.11429e-02        00000 
 4.41404e-03  2.63915e-02        00000 
 3.40194e-03  2.09206e-02        00000 
 1.52863e-03  1.51267e-02        00000 
-1.13328e-03  9.29251e-03        00000 
-4.47072e-03  3.62036e-03        00000 
-8.34123e-03 -1.74515e-03        00000 
-1.25731e-02 -6.70644e-03        00000 
-1.69657e-02 -1.12133e-02        00000 
-2.13096e-02 -1.52777e-02        00000 
-2.54799e-02 -1.90082e-02        00000 
-2.97804e-02 -2.26632e-02        00000 
-3.61409e-02 -2.66834e-02        00000 
 3.70134e-03  3.34524e-02        00000 
 3.16140e-03  3.31764e-02        00000 
 4.18762e-03  3.16232e-02        00000 
 5.23068e-03  2.88608e-02        00000 
 5.71214e-03  2.51405e-02        00000 
 5.46717e-03  2.07597e-02        00000 
 4.48793e-03  1.59776e-02        00000 
 2.82651e-03  1.09981e-02        00000 
 5.59313e-04  5.97143e-03        00000 
-2.22822e-03  1.00159e-03        00000 
-5.45092e-03 -3.84701e-03        00000 
-9.03558e-03 -8.54539e-03        00000 
-1.29402e-02 -1.30952e-02        00000 
-1.71791e-02 -1.75164e-02        00000 
-2.18122e-02 -2.18069e-02        00000 
-2.66686e-02 -2.58263e-02        00000 
 1.66834e-03  3.43838e-02        00000 
 3.62040e-03  3.27313e-02        00000 
 5.85374e-03  3.09662e-02        00000 
 7.66723e-03  2.86010e-02        00000 
 8.79900e-03  2.55600e-02        00000 
 9.20625e-03  2.19418e-02        00000 
 8.92165e-03  1.78917e-02        00000 
 8.00138e-03  1.35475e-02        00000 
 6.50532e-03  9.02194e-03        00000 
 4.48909e-03  4.39947e-03        00000 
 2.00010e-03 -2.61135e-04        00000 
-9.24699e-04 -4.92216e-03        00000 
-4.25822e-03 -9.56082e-03        00000 
-7.97661e-03 -1.41622e-02        00000 
-1.20519e-02 -1.87169e-02        00000 
-1.65204e-02 -2.32465e-02        00000 
 2.73288e-04  3.85853e-02        00000 
 5.39719e-03  3.63156e-02        00000 
 9.31029e-03  3.45030e-02        00000 
 1.21350e-02  3.24140e-02        00000 
 1.39799e-02  2.97919e-02        00000 
 1.49776e-02  2.66254e-02        00000 
 1.52432e-02  2.29924e-02        00000 
 1.48683e-02  1.89920e-02        00000 
 1.39232e-02  1.47175e-02        00000 
 1.24610e-02  1.02477e-02        00000 
 1.05215e-02  5.64536e-03        00000 
 8.13422e-03  9.58405e-04        00000 
 5.32177e-03 -3.77785e-03        00000 
 2.10090e-03 -8.53948e-03        00000 
-1.51744e-03 -1.33130e-02        00000 
-5.50558e-03 -1.80841e-02        00000 
-2.32812e-04  4.72573e-02        00000 
 8.46332e-03  4.55609e-02        00000 
 1.43394e-02  4.42110e-02        00000 
 1.82997e-02  4.25072e-02        00000 
 2.08619e-02  4.01828e-02        00000 
 2.23694e-02  3.72170e-02        00000 
 2.30484e-02  3.36822e-02        00000 
 2.30492e-02  2.96759e-02        00000 
 2.24725e-02  2.52948e-02        00000 
 2.13863e-02  2.06251e-02        00000 
 1.98372e-02  1.57408e-02        00000 
 1.78567e-02  1.07038e-02        00000 
 1.54664e-02  5.56589e-03        00000 
 1.26812e-02  3.69937e-04        00000 
 9.51078e-03 -4.84723e-03        00000 
 5.95768e-03 -1.00598e-02        00000 
 2.67833e-04  6.12443e-02        00000 
 1.24381e-02  6.15754e-02        00000 
 2.01341e-02  6.14076e-02        00000 
 2.50540e-02  6.03313e-02        00000 
 2.81382e-02  5.82582e-02        00000 
 2.99499e-02  5.52705e-02        00000 
 3.08327e-02  5.15011e-02        00000 
 3.10013e-02  4.70850e-02        00000 
 3.05924e-02  4.21438e-02        00000 
 2.96944e-02  3.67827e-02        00000 
 2.83645e-02  3.10909e-02        00000 
 2.66402e-02  2.51440e-02        00000 
 2.45462e-02  1.90068e-02        00000 
 2.20992e-02  1.27354e-02        00000 
 1.93143e-02  6.37810e-03        00000 
 1.61968e-02 -1.31112e-05        00000 
 1.74340e-03  8.04444e-02        00000 
 1.66285e-02  8.41804e-02        00000 
 2.54615e-02  8.57846e-02        00000 
 3.07948e-02  8.54698e-02        00000 
 3.39624e-02  8.35232e-02        00000 
 3.57143e-02  8.02347e-02        00000 
 3.64889e-02  7.58512e-02        00000 
 3.65518e-02  7.05730e-02        00000 
 3.60676e-02  6.45605e-02        00000 
 3.51384e-02  5.79425e-02        00000 
 3.38260e-02  5.08223e-02        00000 
 3.21671e-02  4.32822e-02        00000 
 3.01835e-02  3.53875e-02        00000 
 2.78869e-02  2.71906e-02        00000 
 2.52767e-02  1.87350e-02        00000 
 2.23849e-02  1.00361e-02        00000 
 4.03488e-03  1.03537e-01        00000 
 2.02398e-02  1.11541e-01        00000 
 2.91642e-02  1.15043e-01        00000 
 3.41769e-02  1.15325e-01        00000 
 3.68931e-02  1.13218e-01        00000 
 3.81708e-02  1.09281e-01        00000 
 3.84965e-02  1.03895e-01        00000 
 3.81612e-02  9.73313e-02        00000 
 3.73446e-02  8.97835e-02        00000 
 3.61555e-02  8.13992e-02        00000 
 3.46532e-02  7.22917e-02        00000 
 3.28583e-02  6.25474e-02        00000 
 3.07637e-02  5.22268e-02        00000 
 2.83534e-02  4.13621e-02        00000 
 2.56211e-02  2.99612e-02        00000 
 2.24422e-02  1.80674e-02        00000 
 6.90686e-03  1.28503e-01        00000 
 2.27403e-02  1.40829e-01        00000 
 3.07549e-02  1.45851e-01        00000 
 3.48347e-02  1.46335e-01        00000 
 3.66809e-02  1.43728e-01        00000 
 3.71555e-02  1.38856e-01        00000 
 3.67370e-02  1.32215e-01        00000 
 3.57157e-02  1.24114e-01        00000 
 3.42827e-02  1.14758e-01        00000 
 3.25681e-02  1.04290e-01        00000 
 3.06531e-02  9.28256e-02        00000 
 2.85658e-02  8.04630e-02        00000 
 2.62608e-02  6.72952e-02        00000 
 2.35931e-02  5.33997e-02        00000 
 2.03482e-02  3.87894e-02        00000 
 1.67207e-02  2.32393e-02        00000 
 1.01037e-02  1.53372e-01        00000 
 2.40879e-02  1.69365e-01        00000 
 3.05478e-02  1.75300e-01        00000 
 3.33613e-02  1.75593e-01        00000 
 3.41176e-02  1.72274e-01        00000 
 3.35743e-02  1.66395e-01        00000 
 3.21438e-02  1.58509e-01        00000 
 3.00958e-02  1.48914e-01        00000 
 2.76387e-02  1.37776e-01        00000 
 2.49581e-02  1.25189e-01        00000 
 2.22336e-02  1.11218e-01        00000 
 1.96369e-02  9.59277e-02        00000 
 1.73035e-02  7.94227e-02        00000 
 1.52315e-02  6.18998e-02        00000 
 1.29064e-02  4.37578e-02        00000 
 7.78203e-03  2.58300e-02        00000 
 1.33841e-02  1.76680e-01        00000 
 2.45930e-02  1.95414e-01        00000 
 2.92143e-02  2.01712e-01        00000 
 3.07016e-02  2.01535e-01        00000 
 3.03114e-02  1.97528e-01        00000 
 2.85908e-02  1.90846e-01        00000 
 2.58525e-02  1.82034e-01        00000 
 2.23187e-02  1.71347e-01        00000 
 1.81969e-02  1.58892e-01        00000 
 1.37304e-02  1.44691e-01        00000 
 9.24870e-03  1.28718e-01        00000 
 5.23298e-03  1.10943e-01        00000 
 2.42792e-03  9.13852e-02        00000 
 2.09916e-03  7.02387e-02        00000 
 6.81960e-03  4.81215e-02        00000 
 2.32773e-02  2.66988e-02        00000 
 1.66810e-02  1.97498e-01        00000 
 2.45281e-02  2.18434e-01        00000 
 2.73889e-02  2.24432e-01        00000 
 2.76860e-02  2.23793e-01        00000 
 2.61414e-02  2.19363e-01        00000 
 2.30869e-02  2.12317e-01        00000 
 1.87025e-02  2.03202e-01        00000 
 1.31151e-02  1.92331e-01        00000 
 6.45821e-03  1.79971e-01        00000 
-1.06334e-03  1.66494e-01        00000 
-9.06971e-03  1.52573e-01        00000 
-1.68220e-02  1.39494e-01        00000 
-2.28980e-02  1.29695e-01        00000 
-2.46596e-02  1.27682e-01        00000 
-1.75203e-02  1.41499e-01        00000 
 5.52355e-03  1.84694e-01        00000 
 2.00193e-02  2.18730e-01        00000 
 2.33462e-02  2.38567e-01        00000 
 2.49347e-02  2.45683e-01        00000 
 2.50441e-02  2.47155e-01        00000 
 2.38428e-02  2.45518e-01        00000 
 2.13917e-02  2.41844e-01        00000 
 1.77231e-02  2.36666e-01        00000 
 1.28431e-02  2.30304e-01        00000 
 6.74193e-03  2.23020e-01        00000 
-5.91680e-04  2.15116e-01        00000 
-9.14383e-03  2.07006e-01        00000 
-1.88246e-02  1.99284e-01        00000 
-2.93698e-02  1.92779e-01        00000 
-4.01592e-02  1.88509e-01        00000 
-4.99043e-02  1.87335e-01        00000 
-5.61645e-02  1.88696e-01        00000 
 2.44000e-02  2.45099e-01        00000 
 2.32526e-02  2.62241e-01        00000 
 2.31284e-02  2.69726e-01        00000 
 2.28025e-02  2.72844e-01        00000 
 2.18139e-02  2.73619e-01        00000 
 1.99816e-02  2.72931e-01        00000 
 1.72253e-02  2.71219e-01        00000 
 1.35065e-02  2.68736e-01        00000 
 8.80833e-03  2.65654e-01        00000 
 3.13703e-03  2.62116e-01        00000 
-3.46424e-03  2.58247e-01        00000 
-1.08937e-02  2.54138e-01        00000 
-1.89642e-02  2.49790e-01        00000 
-2.73818e-02  2.45006e-01        00000 
-3.57582e-02  2.39209e-01        00000 
-4.37344e-02  2.31273e-01        00000 
 3.03371e-02  2.76831e-01        00000 
 2.49966e-02  2.89662e-01        00000 
 2.30483e-02  2.96520e-01        00000 
 2.20645e-02  3.00646e-01        00000 
 2.11090e-02  3.03349e-01        00000 
 1.97755e-02  3.05200e-01        00000 
 1.78841e-02  3.06475e-01        00000 
 1.53535e-02  3.07317e-01        00000 
 1.21498e-02  3.07801e-01        00000 
 8.26651e-03  3.07954e-01        00000 
 3.71721e-03  3.07756e-01        00000 
-1.46863e-03  3.07133e-01        00000 
-7.25255e-03  3.05941e-01        00000 
-1.36024e-02  3.03956e-01        00000 
-2.05180e-02  3.00904e-01        00000 
-2.80561e-02  2.96540e-01        00000 
 3.81274e-02  3.13410e-01        00000 
 2.96661e-02  3.20451e-01        00000 
 2.61157e-02  3.25658e-01        00000 
 2.44175e-02  3.30094e-01        00000 
 2.33182e-02  3.34199e-01        00000 
 2.22627e-02  3.38135e-01        00000 
 2.09978e-02  3.41959e-01        00000 
 1.94066e-02  3.45684e-01        00000 
 1.74358e-02  3.49295e-01        00000 
 1.50609e-02  3.52759e-01        00000 
 1.22683e-02  3.56015e-01        00000 
 9.04309e-03  3.58984e-01        00000 
 5.36062e-03  3.61562e-01        00000 
 1.17918e-03  3.63629e-01        00000 
-3.56213e-03  3.65048e-01        00000 
-8.93912e-03  3.65646e-01        00000 
 4.77577e-02  3.52978e-01        00000 
 3.80993e-02  3.53465e-01        00000 
 3.36505e-02  3.56316e-01        00000 
 3.13903e-02  3.60544e-01        00000 
 3.00201e-02  3.65649e-01        00000 
 2.89548e-02  3.71327e-01        00000 
 2.79256e-02  3.77382e-01        00000 
 2.68092e-02  3.83684e-01        00000 
 2.55500e-02  3.90138e-01        00000 
 2.41237e-02  3.96668e-01        00000 
 2.25179e-02  4.03204e-01        00000 
 2.07217e-02  4.09682e-01        00000 
 1.87198e-02  4.16042e-01        00000 
 1.64897e-02  4.22221e-01        00000 
 1.39986e-02  4.28160e-01        00000 
 1.11987e-02  4.33808e-01        00000 
 5.87854e-02  3.92328e-01        00000 
 5.02233e-02  3.86715e-01        00000 
 4.58773e-02  3.87296e-01        00000 
 4.33482e-02  3.91302e-01        00000 
 4.16057e-02  3.97351e-01        00000 
 4.01888e-02  4.04687e-01        00000 
 3.88903e-02  4.12870e-01        00000 
 3.76202e-02  4.21633e-01        00000 
 3.63431e-02  4.30805e-01        00000 
 3.50497e-02  4.40271e-01        00000 
 3.37414e-02  4.49952e-01        00000 
 3.24240e-02  4.59791e-01        00000 
 3.11038e-02  4.69747e-01        00000 
 2.97871e-02  4.79787e-01        00000 
 2.84807e-02  4.89887e-01        00000 
 2.71961e-02  5.00030e-01        00000 
 7.04114e-02  4.27842e-01        00000 
 6.47835e-02  4.17861e-01        00000 
 6.12882e-02  4.17210e-01        00000 
 5.86305e-02  4.21624e-01        00000 
 5.63101e-02  4.29014e-01        00000 
 5.41171e-02  4.38263e-01        00000 
 5.19658e-02  4.48740e-01        00000 
 4.98261e-02  4.60069e-01        00000 
 4.76932e-02  4.72018e-01        00000 
 4.55726e-02  4.84446e-01        00000 
 4.34724e-02  4.97268e-01        00000 
 4.13985e-02  5.10434e-01        00000 
 3.93529e-02  5.23921e-01        00000 
 3.73323e-02  5.37721e-01        00000 
 3.53282e-02  5.51831e-01        00000 
 3.33265e-02  5.66250e-01        00000 
 8.16513e-02  4.56758e-01        00000 
 7.96599e-02  4.44934e-01        00000 
 7.70313e-02  4.44634e-01        00000 
 7.39837e-02  4.50454e-01        00000 
 7.06864e-02  4.59850e-01        00000 
 6.72221e-02  4.71488e-01        00000 
 6.36331e-02  4.84619e-01        00000 
 5.99438e-02  4.98796e-01        00000 
 5.61700e-02  5.13749e-01        00000 
 5.23219e-02  5.29318e-01        00000 
 4.84036e-02  5.45423e-01        00000 
 4.44094e-02  5.62039e-01        00000 
 4.03191e-02  5.79186e-01        00000 
 3.60935e-02  5.96911e-01        00000 
 3.16728e-02  6.15289e-01        00000 
 2.69716e-02  6.34411e-01        00000 
 9.17186e-02  4.77965e-01        00000 
 9.27917e-02  4.66839e-01        00000 
 9.03496e-02  4.68350e-01        00000 
 8.63558e-02  4.76480e-01        00000 
 8.16170e-02  4.88513e-01        00000 
 7.64501e-02  5.03040e-01        00000 
 7.09777e-02  5.19258e-01        00000 
 6.52392e-02  5.36680e-01        00000 
 5.92421e-02  5.54993e-01        00000 
 5.29861e-02  5.74004e-01        00000 
 4.64742e-02  5.93616e-01        00000 
 3.97136e-02  6.13822e-01        00000 
 3.27086e-02  6.34713e-01        00000 
 2.54410e-02  6.56467e-01        00000 
 1.78442e-02  6.79313e-01        00000 
 9.80713e-03  7.03515e-01        00000 
 1.00257e-01  4.92022e-01        00000 
 1.02979e-01  4.83499e-01        00000 
 9.97975e-02  4.87742e-01        00000 
 9.43178e-02  4.98755e-01        00000 
 8.78079e-02  5.13878e-01        00000 
 8.07168e-02  5.31731e-01        00000 
 7.31625e-02  5.51508e-01        00000 
 6.51410e-02  5.72680e-01        00000 
 5.66091e-02  5.94869e-01        00000 
 4.75264e-02  6.17781e-01        00000 
 3.78837e-02  6.41192e-01        00000 
 2.77295e-02  6.64962e-01        00000 
 1.71938e-02  6.89105e-01        00000 
 6.49418e-03  7.13916e-01        00000 
-4.12166e-03  7.40127e-01        00000 
-1.46197e-02  7.68781e-01        00000 
 1.07194e-01  5.00379e-01        00000 
 1.09981e-01  4.95493e-01        00000 
 1.05296e-01  5.02880e-01        00000 
 9.79650e-02  5.17035e-01        00000 
 8.95962e-02  5.35544e-01        00000 
 8.06051e-02  5.57123e-01        00000 
 7.10337e-02  5.80978e-01        00000 
 6.07952e-02  6.06548e-01        00000 
 4.97617e-02  6.33371e-01        00000 
 3.78061e-02  6.60985e-01        00000 
 2.48375e-02  6.88852e-01        00000 
 1.08591e-02  7.16298e-01        00000 
-3.92428e-03  7.42499e-01        00000 
-1.89081e-02  7.66632e-01        00000 
-3.27576e-02  7.88575e-01        00000 
-4.29477e-02  8.11352e-01        00000 
 1.12522e-01  5.04509e-01        00000 
 1.14313e-01  5.03776e-01        00000 
 1.07432e-01  5.14295e-01        00000 
 9.81954e-02  5.31660e-01        00000 
 8.80919e-02  5.53791e-01        00000 
 7.74224e-02  5.79481e-01        00000 
 6.61572e-02  6.07974e-01        00000 
 5.41926e-02  6.38728e-01        00000 
 4.14482e-02  6.71260e-01        00000 
 2.79332e-02  7.05003e-01        00000 
 1.38378e-02  7.39094e-01        00000 
-3.09538e-04  7.72037e-01        00000 
-1.33676e-02  8.01114e-01        00000 
-2.31489e-02  8.21366e-01        00000 
-2.58899e-02  8.23928e-01        00000 
-1.62158e-02  7.93623e-01        00000 
 1.17154e-01  5.06616e-01        00000 
 1.17666e-01  5.08714e-01        00000 
 1.11142e-01  5.17516e-01        00000 
 1.02609e-01  5.31627e-01        00000 
 9.34432e-02  5.49839e-01        00000 
 8.39806e-02  5.71354e-01        00000 
 7.42704e-02  5.95637e-01        00000 
 6.42965e-02  6.22338e-01        00000 
 5.40665e-02  6.51233e-01        00000 
 4.36621e-02  6.82186e-01        00000 
 3.32888e-02  7.15115e-01        00000 
 2.33502e-02  7.49966e-01        00000 
 1.45938e-02  7.86659e-01        00000 
 8.47944e-03  8.24984e-01        00000 
 8.32168e-03  8.64370e-01        00000 
 2.32700e-02  9.03236e-01        00000 
 1.22305e-01  5.05774e-01        00000 
 1.19899e-01  5.10324e-01        00000 
 1.13078e-01  5.18004e-01        00000 
 1.05012e-01  5.29230e-01        00000 
 9.66578e-02  5.43701e-01        00000 
 8.82714e-02  5.60993e-01        00000 
 7.98966e-02  5.80754e-01        00000 
 7.15280e-02  6.02718e-01        00000 
 6.31686e-02  6.26696e-01        00000 
 5.48540e-02  6.52544e-01        00000 
 4.66626e-02  6.80147e-01        00000 
 3.87173e-02  7.09385e-01        00000 
 3.11698e-02  7.40097e-01        00000 
 2.41159e-02  7.72011e-01        00000 
 1.71961e-02  8.04586e-01        00000 
 7.77946e-03  8.36665e-01        00000 
 1.27420e-01  5.00034e-01        00000 
 1.20574e-01  5.06314e-01        00000 
 1.12572e-01  5.12990e-01        00000 
 1.04523e-01  5.21689e-01        00000 
 9.67203e-02  5.32705e-01        00000 
 8.91875e-02  5.45936e-01        00000 
 8.18777e-02  5.61189e-01        00000 
 7.47354e-02  5.78274e-01        00000 
 6.77147e-02  5.97029e-01        00000 
 6.07793e-02  6.17317e-01        00000 
 5.38935e-02  6.39011e-01        00000 
 4.70048e-02  6.61991e-01        00000 
 4.00131e-02  6.86131e-01        00000 
 3.27296e-02  7.11301e-01        00000 
 2.48943e-02  7.37422e-01        00000 
 1.67200e-02  7.64666e-01        00000 
 1.31776e-01  4.87481e-01        00000 
 1.19356e-01  4.93895e-01        00000 
 1.09346e-01  4.99261e-01        00000 
 1.00772e-01  5.05578e-01        00000 
 9.31474e-02  5.13434e-01        00000 
 8.61574e-02  5.22910e-01        00000 
 7.95959e-02  5.33918e-01        00000 
 7.33206e-02  5.46331e-01        00000 
 6.72266e-02  5.60023e-01        00000 
 6.12281e-02  5.74882e-01        00000 
 5.52449e-02  5.90811e-01        00000 
 4.91931e-02  6.07734e-01        00000 
 4.29815e-02  6.25594e-01        00000 
 3.65219e-02  6.44362e-01        00000 
 2.97441e-02  6.64030e-01        00000 
 2.24431e-02  6.84547e-01        00000 
 1.34476e-01  4.66914e-01        00000 
 1.16403e-01  4.71119e-01        00000 
 1.03971e-01  4.74379e-01        00000 
 9.44819e-02  4.78207e-01        00000 
 8.66798e-02  4.83114e-01        00000 
 7.98939e-02  4.89186e-01        00000 
 7.37361e-02  4.96358e-01        00000 
 6.79654e-02  5.04524e-01        00000 
 6.24204e-02  5.13573e-01        00000 
 5.69840e-02  5.23408e-01        00000 
 5.15645e-02  5.33944e-01        00000 
 4.60861e-02  5.45118e-01        00000 
 4.04844e-02  5.56879e-01        00000 
 3.47017e-02  5.69196e-01        00000 
 2.86763e-02  5.82050e-01        00000 
 2.23875e-02  5.95458e-01        00000 
 1.34794e-01  4.38784e-01        00000 
 1.12409e-01  4.38453e-01        00000 
 9.79401e-02  4.38620e-01        00000 
 8.75422e-02  4.39697e-01        00000 
 7.93966e-02  4.41770e-01        00000 
 7.25515e-02  4.44757e-01        00000 
 6.64726e-02  4.48527e-01        00000 
 6.08391e-02  4.52943e-01        00000 
 5.54451e-02  4.57884e-01        00000 
 5.01505e-02  4.63245e-01        00000 
 4.48544e-02  4.68937e-01        00000 
 3.94806e-02  4.74884e-01        00000 
 3.39693e-02  4.81021e-01        00000 
 2.82734e-02  4.87293e-01        00000 
 2.23603e-02  4.93650e-01        00000 
 1.62004e-02  5.00041e-01        00000 
 1.32499e-01  4.05440e-01        00000 