<?xml version="1.0" encoding="utf-8"?>
<VTKFile byte_order="LittleEndian" type="UnstructuredGrid" version="0.1">
   <UnstructuredGrid>
      <Piece NumberOfCells="720" NumberOfPoints="768">
         <Points>
            <DataArray Name="Points" NumberOfComponents="3" format="ascii" type="Float32">
0.2121 0.2121 0.0000
0.2647 0.2647 0.0000
0.3172 0.3172 0.0000
0.3697 0.3697 0.0000
0.4222 0.4222 0.0000
0.4748 0.4748 0.0000
0.5273 0.5273 0.0000
0.5798 0.5798 0.0000
0.6323 0.6323 0.0000
0.6849 0.6849 0.0000
0.7374 0.7374 0.0000
0.7899 0.7899 0.0000
0.8424 0.8424 0.0000
0.8950 0.8950 0.0000
0.9475 0.9475 0.0000
1.0000 1.0000 0.0000
0.1921 0.2305 0.0000
0.2348 0.2818 0.0000
0.2776 0.3331 0.0000
0.3203 0.3844 0.0000
0.3631 0.4357 0.0000
0.4058 0.4870 0.0000
0.4486 0.5383 0.0000
0.4913 0.5896 0.0000
0.5341 0.6409 0.0000
0.5768 0.6922 0.0000
0.6196 0.7435 0.0000
0.6623 0.7948 0.0000
0.7051 0.8461 0.0000
0.7478 0.8974 0.0000
0.7906 0.9487 0.0000
0.8333 1.0000 0.0000
0.1664 0.2496 0.0000
0.1998 0.2996 0.0000
0.2331 0.3497 0.0000
0.2665 0.3997 0.0000
0.2998 0.4497 0.0000
0.3332 0.4997 0.0000
0.3665 0.5498 0.0000
0.3999 0.5998 0.0000
0.4332 0.6498 0.0000
0.4666 0.6998 0.0000
0.4999 0.7499 0.0000
0.5333 0.7999 0.0000
0.5666 0.8499 0.0000
0.6000 0.8999 0.0000
0.6333 0.9500 0.0000
0.6667 1.0000 0.0000
0.1342 0.2683 0.0000
0.1586 0.3171 0.0000
0.1829 0.3659 0.0000
0.2073 0.4147 0.0000
0.2317 0.4634 0.0000
0.2561 0.5122 0.0000
0.2805 0.5610 0.0000
0.3049 0.6098 0.0000
0.3293 0.6586 0.0000
0.3537 0.7073 0.0000
0.3781 0.7561 0.0000
0.4024 0.8049 0.0000
0.4268 0.8537 0.0000
0.4512 0.9024 0.0000
0.4756 0.9512 0.0000
0.5000 1.0000 0.0000
0.0949 0.2846 0.0000
0.1108 0.3323 0.0000
0.1267 0.3800 0.0000
0.1426 0.4277 0.0000
0.1585 0.4754 0.0000
0.1744 0.5231 0.0000
0.1903 0.5708 0.0000
0.2062 0.6185 0.0000
0.2220 0.6661 0.0000
0.2379 0.7138 0.0000
0.2538 0.7615 0.0000
0.2697 0.8092 0.0000
0.2856 0.8569 0.0000
0.3015 0.9046 0.0000
0.3174 0.9523 0.0000
0.3333 1.0000 0.0000
0.0493 0.2959 0.0000
0.0571 0.3429 0.0000
0.0650 0.3898 0.0000
0.0728 0.4367 0.0000
0.0806 0.4837 0.0000
0.0884 0.5306 0.0000
0.0963 0.5776 0.0000
0.1041 0.6245 0.0000
0.1119 0.6714 0.0000
0.1197 0.7184 0.0000
0.1276 0.7653 0.0000
0.1354 0.8122 0.0000
0.1432 0.8592 0.0000
0.1510 0.9061 0.0000
0.1588 0.9531 0.0000
0.1667 1.0000 0.0000
0.0000 0.3000 0.0000
0.0000 0.3467 0.0000
0.0000 0.3933 0.0000
0.0000 0.4400 0.0000
0.0000 0.4867 0.0000
0.0000 0.5333 0.0000
0.0000 0.5800 0.0000
0.0000 0.6267 0.0000
0.0000 0.6733 0.0000
0.0000 0.7200 0.0000
0.0000 0.7667 0.0000
0.0000 0.8133 0.0000
0.0000 0.8600 0.0000
0.0000 0.9067 0.0000
0.0000 0.9533 0.0000
0.0000 1.0000 0.0000
-0.0493 0.2959 0.0000
-0.0571 0.3429 0.0000
-0.0650 0.3898 0.0000
-0.0728 0.4367 0.0000
-0.0806 0.4837 0.0000
-0.0884 0.5306 0.0000
-0.0963 0.5776 0.0000
-0.1041 0.6245 0.0000
-0.1119 0.6714 0.0000
-0.1197 0.7184 0.0000
-0.1276 0.7653 0.0000
-0.1354 0.8122 0.0000
-0.1432 0.8592 0.0000
-0.1510 0.9061 0.0000
-0.1588 0.9531 0.0000
-0.1667 1.0000 0.0000
-0.0949 0.2846 0.0000
-0.1108 0.3323 0.0000
-0.1267 0.3800 0.0000
-0.1426 0.4277 0.0000
-0.1585 0.4754 0.0000
-0.1744 0.5231 0.0000
-0.1903 0.5708 0.0000
-0.2062 0.6185 0.0000
-0.2220 0.6661 0.0000
-0.2379 0.7138 0.0000
-0.2538 0.7615 0.0000
-0.2697 0.8092 0.0000
-0.2856 0.8569 0.0000
-0.3015 0.9046 0.0000
-0.3174 0.9523 0.0000
-0.3333 1.0000 0.0000
-0.1342 0.2683 0.0000
-0.1586 0.3171 0.0000
-0.1829 0.3659 0.0000
-0.2073 0.4147 0.0000
-0.2317 0.4634 0.0000
-0.2561 0.5122 0.0000
-0.2805 0.5610 0.0000
-0.3049 0.6098 0.0000
-0.3293 0.6586 0.0000
-0.3537 0.7073 0.0000
-0.3781 0.7561 0.0000
-0.4024 0.8049 0.0000
-0.4268 0.8537 0.0000
-0.4512 0.9024 0.0000
-0.4756 0.9512 0.0000
-0.5000 1.0000 0.0000
-0.1664 0.2496 0.0000
-0.1998 0.2996 0.0000
-0.2331 0.3497 0.0000
-0.2665 0.3997 0.0000
-0.2998 0.4497 0.0000
-0.3332 0.4997 0.0000
-0.3665 0.5498 0.0000
-0.3999 0.5998 0.0000
-0.4332 0.6498 0.0000
-0.4666 0.6998 0.0000
-0.4999 0.7499 0.0000
-0.5333 0.7999 0.0000
-0.5666 0.8499 0.0000
-0.6000 0.8999 0.0000
-0.6333 0.9500 0.0000
-0.6667 1.0000 0.0000
-0.1921 0.2305 0.0000
-0.2348 0.2818 0.0000
-0.2776 0.3331 0.0000
-0.3203 0.3844 0.0000
-0.3631 0.4357 0.0000
-0.4058 0.4870 0.0000
-0.4486 0.5383 0.0000
-0.4913 0.5896 0.0000
-0.5341 0.6409 0.0000
-0.5768 0.6922 0.0000
-0.6196 0.7435 0.0000
-0.6623 0.7948 0.0000
-0.7051 0.8461 0.0000
-0.7478 0.8974 0.0000
-0.7906 0.9487 0.0000
-0.8333 1.0000 0.0000
-0.2121 0.2121 0.0000
-0.2647 0.2647 0.0000
-0.3172 0.3172 0.0000
-0.3697 0.3697 0.0000
-0.4222 0.4222 0.0000
-0.4748 0.4748 0.0000
-0.5273 0.5273 0.0000
-0.5798 0.5798 0.0000
-0.6323 0.6323 0.0000
-0.6849 0.6849 0.0000
-0.7374 0.7374 0.0000
-0.7899 0.7899 0.0000
-0.8424 0.8424 0.0000
-0.8950 0.8950 0.0000
-0.9475 0.9475 0.0000
-1.0000 1.0000 0.0000
-0.2305 0.1921 0.0000
-0.2818 0.2348 0.0000
-0.3331 0.2776 0.0000
-0.3844 0.3203 0.0000
-0.4357 0.3631 0.0000
-0.4870 0.4058 0.0000
-0.5383 0.4486 0.0000
-0.5896 0.4913 0.0000
-0.6409 0.5341 0.0000
-0.6922 0.5768 0.0000
-0.7435 0.6196 0.0000
-0.7948 0.6623 0.0000
-0.8461 0.7051 0.0000
-0.8974 0.7478 0.0000
-0.9487 0.7906 0.0000
-1.0000 0.8333 0.0000
-0.2496 0.1664 0.0000
-0.2996 0.1998 0.0000
-0.3497 0.2331 0.0000
-0.3997 0.2665 0.0000
-0.4497 0.2998 0.0000
-0.4997 0.3332 0.0000
-0.5498 0.3665 0.0000
-0.5998 0.3999 0.0000
-0.6498 0.4332 0.0000
-0.6998 0.4666 0.0000
-0.7499 0.4999 0.0000
-0.7999 0.5333 0.0000
-0.8499 0.5666 0.0000
-0.8999 0.6000 0.0000
-0.9500 0.6333 0.0000
-1.0000 0.6667 0.0000
-0.2683 0.1342 0.0000
-0.3171 0.1586 0.0000
-0.3659 0.1829 0.0000
-0.4147 0.2073 0.0000
-0.4634 0.2317 0.0000
-0.5122 0.2561 0.0000
-0.5610 0.2805 0.0000
-0.6098 0.3049 0.0000
-0.6586 0.3293 0.0000
-0.7073 0.3537 0.0000
-0.7561 0.3781 0.0000
-0.8049 0.4024 0.0000
-0.8537 0.4268 0.0000
-0.9024 0.4512 0.0000
-0.9512 0.4756 0.0000
-1.0000 0.5000 0.0000
-0.2846 0.0949 0.0000
-0.3323 0.1108 0.0000
-0.3800 0.1267 0.0000
-0.4277 0.1426 0.0000
-0.4754 0.1585 0.0000
-0.5231 0.1744 0.0000
-0.5708 0.1903 0.0000
-0.6185 0.2062 0.0000
-0.6661 0.2220 0.0000
-0.7138 0.2379 0.0000
-0.7615 0.2538 0.0000
-0.8092 0.2697 0.0000
-0.8569 0.2856 0.0000
-0.9046 0.3015 0.0000
-0.9523 0.3174 0.0000
-1.0000 0.3333 0.0000
-0.2959 0.0493 0.0000
-0.3429 0.0571 0.0000
-0.3898 0.0650 0.0000
-0.4367 0.0728 0.0000
-0.4837 0.0806 0.0000
-0.5306 0.0884 0.0000
-0.5776 0.0963 0.0000
-0.6245 0.1041 0.0000
-0.6714 0.1119 0.0000
-0.7184 0.1197 0.0000
-0.7653 0.1276 0.0000
-0.8122 0.1354 0.0000
-0.8592 0.1432 0.0000
-0.9061 0.1510 0.0000
-0.9531 0.1588 0.0000
-1.0000 0.1667 0.0000
-0.3000 0.0000 0.0000
-0.3467 0.0000 0.0000
-0.3933 0.0000 0.0000
-0.4400 0.0000 0.0000
-0.4867 0.0000 0.0000
-0.5333 0.0000 0.0000
-0.5800 0.0000 0.0000
-0.6267 0.0000 0.0000
-0.6733 0.0000 0.0000
-0.7200 0.0000 0.0000
-0.7667 0.0000 0.0000
-0.8133 0.0000 0.0000
-0.8600 0.0000 0.0000
-0.9067 0.0000 0.0000
-0.9533 0.0000 0.0000
-1.0000 0.0000 0.0000
-0.2959 -0.0493 0.0000
-0.3429 -0.0571 0.0000
-0.3898 -0.0650 0.0000
-0.4367 -0.0728 0.0000
-0.4837 -0.0806 0.0000
-0.5306 -0.0884 0.0000
-0.5776 -0.0963 0.0000
-0.6245 -0.1041 0.0000
-0.6714 -0.1119 0.0000
-0.7184 -0.1197 0.0000
-0.7653 -0.1276 0.0000
-0.8122 -0.1354 0.0000
-0.8592 -0.1432 0.0000
-0.9061 -0.1510 0.0000
-0.9531 -0.1588 0.0000
-1.0000 -0.1667 0.0000
-0.2846 -0.0949 0.0000
-0.3323 -0.1108 0.0000
-0.3800 -0.1267 0.0000
-0.4277 -0.1426 0.0000
-0.4754 -0.1585 0.0000
-0.5231 -0.1744 0.0000
-0.5708 -0.1903 0.0000
-0.6185 -0.2062 0.0000
-0.6661 -0.2220 0.0000
-0.7138 -0.2379 0.0000
-0.7615 -0.2538 0.0000
-0.8092 -0.2697 0.0000
-0.8569 -0.2856 0.0000
-0.9046 -0.3015 0.0000
-0.9523 -0.3174 0.0000
-1.0000 -0.3333 0.0000
-0.2683 -0.1342 0.0000
-0.3171 -0.1586 0.0000
-0.3659 -0.1829 0.0000
-0.4147 -0.2073 0.0000
-0.4634 -0.2317 0.0000
-0.5122 -0.2561 0.0000
-0.5610 -0.2805 0.0000
-0.6098 -0.3049 0.0000
-0.6586 -0.3293 0.0000
-0.7073 -0.3537 0.0000
-0.7561 -0.3781 0.0000
-0.8049 -0.4024 0.0000
-0.8537 -0.4268 0.0000
-0.9024 -0.4512 0.0000
-0.9512 -0.4756 0.0000
-1.0000 -0.5000 0.0000
-0.2496 -0.1664 0.0000
-0.2996 -0.1998 0.0000
-0.3497 -0.2331 0.0000
-0.3997 -0.2665 0.0000
-0.4497 -0.2998 0.0000
-0.4997 -0.3332 0.0000
-0.5498 -0.3665 0.0000
-0.5998 -0.3999 0.0000
-0.6498 -0.4332 0.0000
-0.6998 -0.4666 0.0000
-0.7499 -0.4999 0.0000
-0.7999 -0.5333 0.0000
-0.8499 -0.5666 0.0000
-0.8999 -0.6000 0.0000
-0.9500 -0.6333 0.0000
-1.0000 -0.6667 0.0000
-0.2305 -0.1921 0.0000
-0.2818 -0.2348 0.0000
-0.3331 -0.2776 0.0000
-0.3844 -0.3203 0.0000
-0.4357 -0.3631 0.0000
-0.4870 -0.4058 0.0000
-0.5383 -0.4486 0.0000
-0.5896 -0.4913 0.0000
-0.6409 -0.5341 0.0000
-0.6922 -0.5768 0.0000
-0.7435 -0.6196 0.0000
-0.7948 -0.6623 0.0000
-0.8461 -0.7051 0.0000
-0.8974 -0.7478 0.0000
-0.9487 -0.7906 0.0000
-1.0000 -0.8333 0.0000
-0.2121 -0.2121 0.0000
-0.2647 -0.2647 0.0000
-0.3172 -0.3172 0.0000
-0.3697 -0.3697 0.0000
-0.4222 -0.4222 0.0000
-0.4748 -0.4748 0.0000
-0.5273 -0.5273 0.0000
-0.5798 -0.5798 0.0000
-0.6323 -0.6323 0.0000
-0.6849 -0.6849 0.0000
-0.7374 -0.7374 0.0000
-0.7899 -0.7899 0.0000
-0.8424 -0.8424 0.0000
-0.8950 -0.8950 0.0000
-0.9475 -0.9475 0.0000
-1.0000 -1.0000 0.0000
-0.1921 -0.2305 0.0000
-0.2348 -0.2818 0.0000
-0.2776 -0.3331 0.0000
-0.3203 -0.3844 0.0000
-0.3631 -0.4357 0.0000
-0.4058 -0.4870 0.0000
-0.4486 -0.5383 0.0000
-0.4913 -0.5896 0.0000
-0.5341 -0.6409 0.0000
-0.5768 -0.6922 0.0000
-0.6196 -0.7435 0.0000
-0.6623 -0.7948 0.0000
-0.7051 -0.8461 0.0000
-0.7478 -0.8974 0.0000
-0.7906 -0.9487 0.0000
-0.8333 -1.0000 0.0000
-0.1664 -0.2496 0.0000
-0.1998 -0.2996 0.0000
-0.2331 -0.3497 0.0000
-0.2665 -0.3997 0.0000
-0.2998 -0.4497 0.0000
-0.3332 -0.4997 0.0000
-0.3665 -0.5498 0.0000
-0.3999 -0.5998 0.0000
-0.4332 -0.6498 0.0000
-0.4666 -0.6998 0.0000
-0.4999 -0.7499 0.0000
-0.5333 -0.7999 0.0000
-0.5666 -0.8499 0.0000
-0.6000 -0.8999 0.0000
-0.6333 -0.9500 0.0000
-0.6667 -1.0000 0.0000
-0.1342 -0.2683 0.0000
-0.1586 -0.3171 0.0000
-0.1829 -0.3659 0.0000
-0.2073 -0.4147 0.0000
-0.2317 -0.4634 0.0000
-0.2561 -0.5122 0.0000
-0.2805 -0.5610 0.0000
[...]
         <PointData>
            <DataArray Name="fValues" NumberOfComponents="3" format="ascii" type="Float64">
 1.97442e-01 -1.66677e-02        00000 
 2.18423e-01 -2.45110e-02        00000 
 2.24414e-01 -2.73873e-02        00000 
 2.23777e-01 -2.76926e-02        00000 
 2.19355e-01 -2.61482e-02        00000 
 2.12318e-01 -2.30914e-02        00000 
 2.03211e-01 -1.87035e-02        00000 
 1.92345e-01 -1.31122e-02        00000 
 1.79990e-01 -6.45125e-03        00000 
 1.66517e-01  1.07427e-03        00000 
 1.52601e-01  9.08424e-03        00000 
 1.39527e-01  1.68396e-02        00000 
 1.29732e-01  2.29179e-02        00000 
 1.27722e-01  2.46814e-02        00000 
 1.41539e-01  1.75439e-02        00000 
 1.84730e-01 -5.49843e-03        00000 
 2.18668e-01 -2.00059e-02        00000 
 2.38558e-01 -2.33213e-02        00000 
 2.45662e-01 -2.49279e-02        00000 
 2.47137e-01 -2.50505e-02        00000 
 2.45507e-01 -2.38514e-02        00000 
 2.41841e-01 -2.13989e-02        00000 
 2.36670e-01 -1.77279e-02        00000 
 2.30312e-01 -1.28454e-02        00000 
 2.23033e-01 -6.74168e-03        00000 
 2.15134e-01  5.94213e-04        00000 
 2.07027e-01  9.14827e-03        00000 
 1.99309e-01  1.88305e-02        00000 
 1.92807e-01  2.93768e-02        00000 
 1.88540e-01  4.01671e-02        00000 
 1.87370e-01  4.99132e-02        00000 
 1.88737e-01  5.61745e-02        00000 
 2.45034e-01 -2.43857e-02        00000 
 2.62232e-01 -2.32178e-02        00000 
 2.69703e-01 -2.31126e-02        00000 
 2.72824e-01 -2.28038e-02        00000 
 2.73607e-01 -2.18198e-02        00000 
 2.72927e-01 -1.99874e-02        00000 
 2.71221e-01 -1.72300e-02        00000 
 2.68742e-01 -1.35100e-02        00000 
 2.65663e-01 -8.81070e-03        00000 
 2.62129e-01 -3.13829e-03        00000 
 2.58263e-01  3.46412e-03        00000 
 2.54157e-01  1.08948e-02        00000 
 2.49812e-01  1.89667e-02        00000 
 2.45031e-01  2.73857e-02        00000 
 2.39239e-01  3.57635e-02        00000 
 2.31308e-01  4.37407e-02        00000 
 2.76774e-01 -3.03184e-02        00000 
 2.89653e-01 -2.49497e-02        00000 
 2.96496e-01 -2.30185e-02        00000 
 3.00626e-01 -2.20528e-02        00000 
 3.03336e-01 -2.11042e-02        00000 
 3.05194e-01 -1.97729e-02        00000 
 3.06474e-01 -1.78829e-02        00000 
 3.07321e-01 -1.53539e-02        00000 
 3.07808e-01 -1.21518e-02        00000 
 3.07963e-01 -8.27000e-03        00000 
 3.07767e-01 -3.72175e-03        00000 
 3.07147e-01  1.46352e-03        00000 
 3.05958e-01  7.24733e-03        00000 
 3.03976e-01  1.35974e-02        00000 
 3.00928e-01  2.05133e-02        00000 
 2.96568e-01  2.80516e-02        00000 
 3.13382e-01 -3.81116e-02        00000 
 3.20452e-01 -2.96200e-02        00000 
 3.25639e-01 -2.60845e-02        00000 
 3.30076e-01 -2.44004e-02        00000 
 3.34185e-01 -2.33059e-02        00000 
 3.38126e-01 -2.22522e-02        00000 
 3.41954e-01 -2.09890e-02        00000 
 3.45683e-01 -1.94004e-02        00000 
 3.49299e-01 -1.74329e-02        00000 
 3.52766e-01 -1.50617e-02        00000 
 3.56027e-01 -1.22726e-02        00000 
 3.59000e-01 -9.05077e-03        00000 
 3.61583e-01 -5.37135e-03        00000 
 3.63654e-01 -1.19276e-03        00000 
 3.65077e-01  3.54575e-03        00000 
 3.65678e-01  8.91973e-03        00000 
 3.52984e-01 -4.77684e-02        00000 
 3.53476e-01 -3.80883e-02        00000 
 3.56307e-01 -3.36549e-02        00000 
 3.60533e-01 -3.14060e-02        00000 
 3.65638e-01 -3.00385e-02        00000 
 3.71316e-01 -2.89732e-02        00000 
 3.77373e-01 -2.79439e-02        00000 
 3.83680e-01 -2.68278e-02        00000 
 3.90139e-01 -2.55695e-02        00000 
 3.96674e-01 -2.41446e-02        00000 
 4.03217e-01 -2.25404e-02        00000 
 4.09701e-01 -2.07459e-02        00000 
 4.16067e-01 -1.87460e-02        00000 
 4.22251e-01 -1.65180e-02        00000 
 4.28193e-01 -1.40291e-02        00000 
 4.33845e-01 -1.12314e-02        00000 
 3.92292e-01 -5.88265e-02        00000 
 3.86669e-01 -5.02595e-02        00000 
 3.87242e-01 -4.59245e-02        00000 
 3.91252e-01 -4.34033e-02        00000 
 3.97304e-01 -4.16624e-02        00000 
 4.04642e-01 -4.02443e-02        00000 
 4.12828e-01 -3.89436e-02        00000 
 4.21594e-01 -3.76706e-02        00000 
 4.30768e-01 -3.63904e-02        00000 
 4.40237e-01 -3.50937e-02        00000 
 4.49921e-01 -3.37822e-02        00000 
 4.59762e-01 -3.24617e-02        00000 
 4.69719e-01 -3.11386e-02        00000 
 4.79760e-01 -2.98193e-02        00000 
 4.89861e-01 -2.85104e-02        00000 
 5.00005e-01 -2.72232e-02        00000 
 4.27749e-01 -7.04402e-02        00000 
 4.17754e-01 -6.48246e-02        00000 
 4.17105e-01 -6.13250e-02        00000 
 4.21529e-01 -5.86663e-02        00000 
 4.28926e-01 -5.63435e-02        00000 
 4.38180e-01 -5.41474e-02        00000 
 4.48660e-01 -5.19929e-02        00000 
 4.59990e-01 -4.98502e-02        00000 
 4.71940e-01 -4.77146e-02        00000 
 4.84368e-01 -4.55918e-02        00000 
 4.97188e-01 -4.34898e-02        00000 
 5.10353e-01 -4.14146e-02        00000 
 5.23838e-01 -3.93681e-02        00000 
 5.37636e-01 -3.73472e-02        00000 
 5.51746e-01 -3.53431e-02        00000 
 5.66165e-01 -3.33417e-02        00000 
 4.56687e-01 -8.16639e-02        00000 
 4.44847e-01 -7.96975e-02        00000 
 4.44543e-01 -7.70478e-02        00000 
 4.50368e-01 -7.39914e-02        00000 
 4.59766e-01 -7.06895e-02        00000 
 4.71405e-01 -6.72227e-02        00000 
 4.84536e-01 -6.36327e-02        00000 
 4.98713e-01 -5.99437e-02        00000 
 5.13665e-01 -5.61711e-02        00000 
 5.29234e-01 -5.23247e-02        00000 
 5.45339e-01 -4.84083e-02        00000 
 5.61955e-01 -4.44162e-02        00000 
 5.79102e-01 -4.03280e-02        00000 
 5.96828e-01 -3.61044e-02        00000 
 6.15206e-01 -3.16859e-02        00000 
 6.34330e-01 -2.69869e-02        00000 
 4.77922e-01 -9.17226e-02        00000 
 4.66779e-01 -9.28294e-02        00000 
 4.68273e-01 -9.03574e-02        00000 
 4.76399e-01 -8.63520e-02        00000 
 4.88429e-01 -8.16096e-02        00000 
 5.02952e-01 -7.64429e-02        00000 
 5.19169e-01 -7.09725e-02        00000 
 5.36590e-01 -6.52368e-02        00000 
 5.54903e-01 -5.92428e-02        00000 
 5.73915e-01 -5.29900e-02        00000 
 5.93528e-01 -4.64810e-02        00000 
 6.13736e-01 -3.97231e-02        00000 
 6.34628e-01 -3.27205e-02        00000 
 6.56384e-01 -2.54549e-02        00000 
 6.79233e-01 -1.78598e-02        00000 
 7.03438e-01 -9.82424e-03        00000 
 4.91990e-01 -1.00261e-01        00000 
 4.83455e-01 -1.03022e-01        00000 
 4.87670e-01 -9.98058e-02        00000 
 4.98672e-01 -9.43130e-02        00000 
 5.13790e-01 -8.78010e-02        00000 
 5.31639e-01 -8.07118e-02        00000 
 5.51414e-01 -7.31601e-02        00000 
 5.72586e-01 -6.51410e-02        00000 
 5.94774e-01 -5.66114e-02        00000 
 6.17688e-01 -4.75308e-02        00000 
 6.41100e-01 -3.78900e-02        00000 
 6.64871e-01 -2.77377e-02        00000 
 6.89015e-01 -1.72036e-02        00000 
 7.13827e-01 -6.50561e-03        00000 
 7.40040e-01  4.10854e-03        00000 
 7.68695e-01  1.46047e-02        00000 
 5.00349e-01 -1.07197e-01        00000 
 4.95460e-01 -1.10026e-01        00000 
 5.02807e-01 -1.05301e-01        00000 
 5.16949e-01 -9.79585e-02        00000 
 5.35452e-01 -8.95907e-02        00000 
 5.57029e-01 -8.06023e-02        00000 
 5.80882e-01 -7.10332e-02        00000 
 6.06452e-01 -6.07961e-02        00000 
 6.33276e-01 -4.97637e-02        00000 
 6.60890e-01 -3.78089e-02        00000 
 6.88758e-01 -2.48411e-02        00000 
 7.16206e-01 -1.08634e-02        00000 
 7.42408e-01  3.91901e-03        00000 
 7.66541e-01  1.89018e-02        00000 
 7.88484e-01  3.27504e-02        00000 
 8.11260e-01  4.29395e-02        00000 
 5.04481e-01 -1.12524e-01        00000 
 5.03754e-01 -1.14360e-01        00000 
 5.14221e-01 -1.07432e-01        00000 
 5.31572e-01 -9.81882e-02        00000 
 5.53698e-01 -8.80858e-02        00000 
 5.79386e-01 -7.74175e-02        00000 
 6.07878e-01 -6.61522e-02        00000 
 6.38631e-01 -5.41867e-02        00000 
 6.71164e-01 -4.14410e-02        00000 
 7.04908e-01 -2.79249e-02        00000 
 7.39000e-01 -1.38289e-02        00000 
 7.71944e-01  3.18139e-04        00000 
 8.01023e-01  1.33750e-02        00000 
 8.21279e-01  2.31546e-02        00000 
 8.23847e-01  2.58945e-02        00000 
 7.93549e-01  1.62220e-02        00000 
 5.06591e-01 -1.17154e-01        00000 
 5.08710e-01 -1.17715e-01        00000 
 5.17456e-01 -1.11146e-01        00000 
 5.31545e-01 -1.02603e-01        00000 
 5.49752e-01 -9.34376e-02        00000 
 5.71265e-01 -8.39759e-02        00000 
 5.95546e-01 -7.42657e-02        00000 
 6.22247e-01 -6.42909e-02        00000 
 6.51142e-01 -5.40597e-02        00000 
 6.82095e-01 -4.36541e-02        00000 
 7.15024e-01 -3.32797e-02        00000 
 7.49875e-01 -2.33399e-02        00000 
 7.86567e-01 -1.45819e-02        00000 
 8.24891e-01 -8.46496e-03        00000 
 8.64276e-01 -8.30246e-03        00000 
 9.03141e-01 -2.32448e-02        00000 
 5.05757e-01 -1.22303e-01        00000 
 5.10343e-01 -1.19949e-01        00000 
 5.17965e-01 -1.13086e-01        00000 
 5.29165e-01 -1.05010e-01        00000 
 5.43629e-01 -9.66548e-02        00000 
 5.60920e-01 -8.82698e-02        00000 
 5.80680e-01 -7.98954e-02        00000 
 6.02644e-01 -7.15263e-02        00000 
 6.26620e-01 -6.31658e-02        00000 
 6.52468e-01 -5.48498e-02        00000 
 6.80070e-01 -4.66568e-02        00000 
 7.09308e-01 -3.87099e-02        00000 
 7.40021e-01 -3.11607e-02        00000 
 7.71935e-01 -2.41049e-02        00000 
 8.04512e-01 -1.71838e-02        00000 
 8.36593e-01 -7.76714e-03        00000 
 5.00035e-01 -1.27424e-01        00000 
 5.06368e-01 -1.20625e-01        00000 
 5.12985e-01 -1.12585e-01        00000 
 5.21656e-01 -1.04525e-01        00000 
 5.32664e-01 -9.67212e-02        00000 
 5.45894e-01 -8.91893e-02        00000 
 5.61145e-01 -8.18800e-02        00000 
 5.78228e-01 -7.47376e-02        00000 
 5.96981e-01 -6.77161e-02        00000 
 6.17266e-01 -6.07796e-02        00000 
 6.38958e-01 -5.38928e-02        00000 
 6.61937e-01 -4.70033e-02        00000 
 6.86075e-01 -4.00112e-02        00000 
 7.11245e-01 -3.27279e-02        00000 
 7.37366e-01 -2.48936e-02        00000 
 7.64610e-01 -1.67207e-02        00000 
 4.87502e-01 -1.31804e-01        00000 
 4.93981e-01 -1.19417e-01        00000 
 4.99287e-01 -1.09369e-01        00000 
 5.05577e-01 -1.00781e-01        00000 
 5.13429e-01 -9.31501e-02        00000 
 5.22905e-01 -8.61574e-02        00000 
 5.33914e-01 -7.95945e-02        00000 
 5.46326e-01 -7.33186e-02        00000 
 5.60015e-01 -6.72244e-02        00000 
 5.74870e-01 -6.12260e-02        00000 
 5.90794e-01 -5.52432e-02        00000 
 6.07711e-01 -4.91922e-02        00000 
 6.25565e-01 -4.29819e-02        00000 
 6.44327e-01 -3.65240e-02        00000 
 6.63990e-01 -2.97483e-02        00000 
 6.84500e-01 -2.24497e-02        00000 
 4.66908e-01 -1.34540e-01        00000 
 4.71183e-01 -1.16478e-01        00000 
 4.74378e-01 -1.04014e-01        00000 
 4.78179e-01 -9.45060e-02        00000 
 4.83082e-01 -8.66893e-02        00000 
 4.89157e-01 -7.98918e-02        00000 
 4.96334e-01 -7.37255e-02        00000 
 5.04503e-01 -6.79490e-02        00000 
 5.13553e-01 -6.24002e-02        00000 
 5.23388e-01 -5.69616e-02        00000 
 5.33922e-01 -5.15409e-02        00000 
 5.45092e-01 -4.60620e-02        00000 
 5.56850e-01 -4.04602e-02        00000 
 5.69162e-01 -3.46774e-02        00000 
 5.82010e-01 -2.86518e-02        00000 
 5.95411e-01 -2.23627e-02        00000 
 4.38700e-01 -1.34861e-01        00000 
 4.38430e-01 -1.12470e-01        00000 
 4.38535e-01 -9.79875e-02        00000 
 4.39581e-01 -8.75800e-02        00000 
 4.41648e-01 -7.94214e-02        00000 
 4.44639e-01 -7.25630e-02        00000 
 4.48416e-01 -6.64721e-02        00000 
 4.52841e-01 -6.08281e-02        00000 
 4.57792e-01 -5.54252e-02        00000 
 4.63162e-01 -5.01230e-02        00000 
 4.68864e-01 -4.48202e-02        00000 
 4.74820e-01 -3.94406e-02        00000 
 4.80966e-01 -3.39243e-02        00000 
 4.87246e-01 -2.82239e-02        00000 
 4.93612e-01 -2.23071e-02        00000 
 5.00012e-01 -1.61442e-02        00000 
 4.05322e-01 -1.32507e-01        00000 
 3.99122e-01 -1.08228e-01        00000 
 3.95558e-01 -9.28479e-02        00000 
 3.93724e-01 -8.19938e-02        00000 
 3.93083e-01 -7.35873e-02        00000 
 3.93271e-01 -6.65547e-02        00000 
 3.94026e-01 -6.02981e-02        00000 
 3.95157e-01 -5.44616e-02        00000 
 3.96514e-01 -4.88202e-02        00000 
 3.97981e-01 -4.32232e-02        00000 
 3.99464e-01 -3.75634e-02        00000 
 4.00882e-01 -3.17603e-02        00000 
 4.02168e-01 -2.57494e-02        00000 
 4.03259e-01 -1.94763e-02        00000 
 4.04093e-01 -1.28897e-02        00000 
 4.04611e-01 -5.93959e-03        00000 
 3.70365e-01 -1.27979e-01        00000 
 3.58242e-01 -1.04455e-01        00000 
 3.51154e-01 -8.94494e-02        00000 
 3.46633e-01 -7.87072e-02        00000 
 3.43506e-01 -7.02217e-02        00000 
 3.41142e-01 -6.29582e-02        00000 
 3.39161e-01 -5.63413e-02        00000 
 3.37323e-01 -5.00297e-02        00000 
 3.35464e-01 -4.38099e-02        00000 
 3.33470e-01 -3.75403e-02        00000 
 3.31260e-01 -3.11217e-02        00000 
 3.28778e-01 -2.44790e-02        00000 
 3.25983e-01 -1.75509e-02        00000 
 3.22849e-01 -1.02822e-02        00000 
 3.19361e-01 -2.61998e-03        00000 
 3.15516e-01  5.48898e-03        00000 
 3.37098e-01 -1.22141e-01        00000 
 3.20149e-01 -1.01387e-01        00000 
 3.10199e-01 -8.76184e-02        00000 
 3.03381e-01 -7.73221e-02        00000 
 2.98019e-01 -6.88172e-02        00000 
 2.93287e-01 -6.12251e-02        00000 
 2.88735e-01 -5.40551e-02        00000 
 2.84102e-01 -4.70189e-02        00000 
 2.79234e-01 -3.99393e-02        00000 
 2.74042e-01 -3.27056e-02        00000 
 2.68476e-01 -2.52485e-02        00000 
 2.62521e-01 -1.75245e-02        00000 
 2.56190e-01 -9.50581e-03        00000 
 2.49517e-01 -1.17249e-03        00000 
 2.42560e-01  7.49294e-03        00000 
 2.35395e-01  1.65085e-02        00000 
 3.07453e-01 -1.15869e-01        00000 
 2.87174e-01 -9.89138e-02        00000 
 2.75107e-01 -8.66691e-02        00000 
 2.66358e-01 -7.68482e-02        00000 
 2.58936e-01 -6.82280e-02        00000 
 2.51911e-01 -6.01464e-02        00000 
 2.44824e-01 -5.22281e-02        00000 
 2.37438e-01 -4.42505e-02        00000 
 2.29629e-01 -3.60848e-02        00000 
 2.21339e-01 -2.76661e-02        00000 
 2.12557e-01 -1.89784e-02        00000 
 2.03308e-01 -1.00460e-02        00000 
 1.93649e-01 -9.27089e-04        00000 
 1.83679e-01  8.29470e-03        00000 
 1.73535e-01  1.75240e-02        00000 
 1.63402e-01  2.66743e-02        00000 
 2.82123e-01 -1.09822e-01        00000 
 2.59812e-01 -9.68267e-02        00000 
 2.46189e-01 -8.59878e-02        00000 
 2.35756e-01 -7.64500e-02        00000 
 2.26311e-01 -6.75196e-02        00000 
 2.16955e-01 -5.87707e-02        00000 
 2.07283e-01 -4.99299e-02        00000 
 1.97105e-01 -4.08319e-02        00000 
 1.86338e-01 -3.13897e-02        00000 
 1.74954e-01 -2.15840e-02        00000 
 1.62959e-01 -1.14625e-02        00000 
 1.50391e-01 -1.14788e-03        00000 
 1.37322e-01  9.14769e-03        00000 
 1.23875e-01  1.91053e-02        00000 
 1.10263e-01  2.82875e-02        00000 
 9.68427e-02  3.61628e-02        00000 
 2.61047e-01 -1.04317e-01        00000 
 2.37435e-01 -9.50166e-02        00000 
 2.22749e-01 -8.52085e-02        00000 
 2.10658e-01 -7.56584e-02        00000 
 1.99104e-01 -6.62256e-02        00000 
 1.87310e-01 -5.66605e-02        00000 
 1.74960e-01 -4.67645e-02        00000 
 1.61928e-01 -3.64041e-02        00000 
 1.48175e-01 -2.55102e-02        00000 
 1.33704e-01 -1.40822e-02        00000 
 1.18554e-01 -2.20506e-03        00000 
 1.02813e-01  9.91484e-03        00000 
 8.66567e-02  2.18834e-02        00000 
 7.04251e-02  3.30080e-02        00000 
 5.47378e-02  4.21329e-02        00000 
 4.05823e-02  4.74612e-02        00000 
 2.40614e-01 -9.86563e-02        00000 
 2.20304e-01 -9.46893e-02        00000 
 2.06513e-01 -8.78237e-02        00000 
 1.94773e-01 -8.01746e-02        00000 
 1.83531e-01 -7.22541e-02        00000 
 1.72169e-01 -6.41196e-02        00000 
 1.60427e-01 -5.57095e-02        00000 
 1.48199e-01 -4.69394e-02        00000 
 1.35446e-01 -3.77284e-02        00000 
 1.22160e-01 -2.80048e-02        00000 
 1.08349e-01 -1.77078e-02        00000 
 9.40280e-02 -6.78904e-03        00000 
 7.92189e-02  4.78219e-03        00000 
 6.39606e-02  1.70037e-02        00000 
 4.83691e-02  2.98047e-02        00000 
 3.29187e-02  4.29555e-02        00000 
 2.16987e-01 -9.16040e-02        00000 
 2.01228e-01 -9.24231e-02        00000 
 1.89109e-01 -8.86300e-02        00000 
 1.78160e-01 -8.31239e-02        00000 
 1.67454e-01 -7.68981e-02        00000 
 1.56611e-01 -7.02933e-02        00000 
 1.45466e-01 -6.34093e-02        00000 
 1.33952e-01 -5.62554e-02        00000 
 1.22042e-01 -4.88065e-02        00000 
 1.09727e-01 -4.10251e-02        00000 
 9.69942e-02 -3.28705e-02        00000 
 8.38189e-02 -2.43035e-02        00000 
 7.01474e-02 -1.52895e-02        00000 
 5.58692e-02 -5.80233e-03        00000 
 4.07475e-02  4.16907e-03        00000 
 2.41822e-02  1.46077e-02        00000 
 1.90569e-01 -8.29449e-02        00000 
 1.80334e-01 -8.75334e-02        00000 
 1.70703e-01 -8.65755e-02        00000 
 1.61079e-01 -8.32466e-02        00000 
 1.51227e-01 -7.88050e-02        00000 
 1.41061e-01 -7.37875e-02        00000 
 1.30557e-01 -6.84293e-02        00000 
 1.19715e-01 -6.28316e-02        00000 
 1.08543e-01 -5.70337e-02        00000 
 9.70459e-02 -5.10443e-02        00000 
 8.52217e-02 -4.48556e-02        00000 
 7.30552e-02 -3.84495e-02        00000 
 6.05128e-02 -3.17985e-02        00000 
 4.75385e-02 -2.48624e-02        00000 
 3.40639e-02 -1.75783e-02        00000 
 2.00930e-02 -9.83231e-03        00000 
 1.62355e-01 -7.27402e-02        00000 
 1.58078e-01 -7.94737e-02        00000 
 1.51554e-01 -8.06713e-02        00000 
 1.43740e-01 -7.92345e-02        00000 
 1.35069e-01 -7.64546e-02        00000 
 1.25777e-01 -7.29449e-02        00000 
 1.16006e-01 -6.90140e-02        00000 
 1.05848e-01 -6.48244e-02        00000 
 9.53618e-02 -6.04646e-02        00000 
 8.45879e-02 -5.59827e-02        00000 
 7.35518e-02 -5.14041e-02        00000 
 6.22683e-02 -4.67384e-02        00000 
 5.07453e-02 -4.19833e-02        00000 
 3.89883e-02 -3.71252e-02        00000 
 2.70037e-02 -3.21401e-02        00000 
 1.47756e-02 -2.70039e-02        00000 
 1.34036e-01 -6.13999e-02        00000 
 1.35324e-01 -6.83282e-02        00000 
 1.32040e-01 -7.05952e-02        00000 
 1.26247e-01 -7.04301e-02        00000 
 1.18940e-01 -6.89243e-02        00000 
 1.10652e-01 -6.66383e-02        00000 
 1.01689e-01 -6.38776e-02        00000 
 9.22392e-02 -6.08184e-02        00000 
 8.24218e-02 -5.75682e-02        00000 
 7.23165e-02 -5.41962e-02        00000 
 6.19784e-02 -5.07494e-02        00000 
 5.14473e-02 -4.72615e-02        00000 
 4.07538e-02 -4.37585e-02        00000 
 2.99228e-02 -4.02620e-02        00000 
 1.89765e-02 -3.67920e-02        00000 
 7.94440e-03 -3.33648e-02        00000 
 1.07708e-01 -4.97373e-02        00000 
 1.13330e-01 -5.51350e-02        00000 
 1.12757e-01 -5.73192e-02        00000 
 1.08748e-01 -5.76550e-02        00000 
 1.02695e-01 -5.68704e-02        00000 
 9.53576e-02 -5.53671e-02        00000 
 8.71717e-02 -5.33785e-02        00000 
 7.84057e-02 -5.10482e-02        00000 
 6.92311e-02 -4.84692e-02        00000 
 5.97623e-02 -4.57050e-02        00000 
 5.00787e-02 -4.28014e-02        00000 
 4.02372e-02 -3.97933e-02        00000 
 3.02799e-02 -3.67092e-02        00000 
 2.02389e-02 -3.35741e-02        00000 
 1.01378e-02 -3.04114e-02        00000 
-5.95130e-06 -2.72485e-02        00000 
 8.52305e-02 -3.87282e-02        00000 