<?xml version="1.0" encoding="utf-8"?>
<VTKFile byte_order="LittleEndian" type="UnstructuredGrid" version="0.1">
   <UnstructuredGrid>
      <Piece NumberOfCells="720" NumberOfPoints="768">
         <Points>
            <DataArray Name="Points" NumberOfComponents="3" format="ascii" type="Float32">
0.2121 0.2121 0.0000
0.2647 0.2647 0.0000
0.3172 0.3172 0.0000
0.3697 0.3697 0.0000
0.4222 0.4222 0.0000
0.4748 0.4748 0.0000
0.5273 0.5273 0.0000
0.5798 0.5798 0.0000
0.6323 0.6323 0.0000
0.6849 0.6849 0.0000
0.7374 0.7374 0.0000
0.7899 0.7899 0.0000
0.8424 0.8424 0.0000
0.8950 0.8950 0.0000
0.9475 0.9475 0.0000
1.0000 1.0000 0.0000
0.1921 0.2305 0.0000
0.2348 0.2818 0.0000
0.2776 0.3331 0.0000
0.3203 0.3844 0.0000
0.3631 0.4357 0.0000
0.4058 0.4870 0.0000
0.4486 0.5383 0.0000
0.4913 0.5896 0.0000
0.5341 0.6409 0.0000
0.5768 0.6922 0.0000
0.6196 0.7435 0.0000
0.6623 0.7948 0.0000
0.7051 0.8461 0.0000
0.7478 0.8974 0.0000
0.7906 0.9487 0.0000
0.8333 1.0000 0.0000
0.1664 0.2496 0.0000
0.1998 0.2996 0.0000
0.2331 0.3497 0.0000
0.2665 0.3997 0.0000
0.2998 0.4497 0.0000
0.3332 0.4997 0.0000
0.3665 0.5498 0.0000
0.3999 0.5998 0.0000
0.4332 0.6498 0.0000
0.4666 0.6998 0.0000
0.4999 0.7499 0.0000
0.5333 0.7999 0.0000
0.5666 0.8499 0.0000
0.6000 0.8999 0.0000
0.6333 0.9500 0.0000
0.6667 1.0000 0.0000
0.1342 0.2683 0.0000
0.1586 0.3171 0.0000
0.1829 0.3659 0.0000
0.2073 0.4147 0.0000
0.2317 0.4634 0.0000
0.2561 0.5122 0.0000
0.2805 0.5610 0.0000
0.3049 0.6098 0.0000
0.3293 0.6586 0.0000
0.3537 0.7073 0.0000
0.3781 0.7561 0.0000
0.4024 0.8049 0.0000
0.4268 0.8537 0.0000
0.4512 0.9024 0.0000
0.4756 0.9512 0.0000
0.5000 1.0000 0.0000
0.0949 0.2846 0.0000
0.1108 0.3323 0.0000
0.1267 0.3800 0.0000
0.1426 0.4277 0.0000
0.1585 0.4754 0.0000
0.1744 0.5231 0.0000
0.1903 0.5708 0.0000
0.2062 0.6185 0.0000
0.2220 0.6661 0.0000
0.2379 0.7138 0.0000
0.2538 0.7615 0.0000
0.2697 0.8092 0.0000
0.2856 0.8569 0.0000
0.3015 0.9046 0.0000
0.3174 0.9523 0.0000
0.3333 1.0000 0.0000
0.0493 0.2959 0.0000
0.0571 0.3429 0.0000
0.0650 0.3898 0.0000
0.0728 0.4367 0.0000
0.0806 0.4837 0.0000
0.0884 0.5306 0.0000
0.0963 0.5776 0.0000
0.1041 0.6245 0.0000
0.1119 0.6714 0.0000
0.1197 0.7184 0.0000
0.1276 0.7653 0.0000
0.1354 0.8122 0.0000
0.1432 0.8592 0.0000
0.1510 0.9061 0.0000
0.1588 0.9531 0.0000
0.1667 1.0000 0.0000
0.0000 0.3000 0.0000
0.0000 0.3467 0.0000
0.0000 0.3933 0.0000
0.0000 0.4400 0.0000
0.0000 0.4867 0.0000
0.0000 0.5333 0.0000
0.0000 0.5800 0.0000
0.0000 0.6267 0.0000
0.0000 0.6733 0.0000
0.0000 0.7200 0.0000
0.0000 0.7667 0.0000
0.0000 0.8133 0.0000
0.0000 0.8600 0.0000
0.0000 0.9067 0.0000
0.0000 0.9533 0.0000
0.0000 1.0000 0.0000
-0.0493 0.2959 0.0000
-0.0571 0.3429 0.0000
-0.0650 0.3898 0.0000
-0.0728 0.4367 0.0000
-0.0806 0.4837 0.0000
-0.0884 0.5306 0.0000
-0.0963 0.5776 0.0000
-0.1041 0.6245 0.0000
-0.1119 0.6714 0.0000
-0.1197 0.7184 0.0000
-0.1276 0.7653 0.0000
-0.1354 0.8122 0.0000
-0.1432 0.8592 0.0000
-0.1510 0.9061 0.0000
-0.1588 0.9531 0.0000
-0.1667 1.0000 0.0000
-0.0949 0.2846 0.0000
-0.1108 0.3323 0.0000
-0.1267 0.3800 0.0000
-0.1426 0.4277 0.0000
-0.1585 0.4754 0.0000
-0.1744 0.5231 0.0000
-0.1903 0.5708 0.0000
-0.2062 0.6185 0.0000
-0.2220 0.6661 0.0000
-0.2379 0.7138 0.0000
-0.2538 0.7615 0.0000
-0.2697 0.8092 0.0000
-0.2856 0.8569 0.0000
-0.3015 0.9046 0.0000
-0.3174 0.9523 0.0000
-0.3333 1.0000 0.0000
-0.1342 0.2683 0.0000
-0.1586 0.3171 0.0000
-0.1829 0.3659 0.0000
-0.2073 0.4147 0.0000
-0.2317 0.4634 0.0000
-0.2561 0.5122 0.0000
-0.2805 0.5610 0.0000
-0.3049 0.6098 0.0000
-0.3293 0.6586 0.0000
-0.3537 0.7073 0.0000
-0.3781 0.7561 0.0000
-0.4024 0.8049 0.0000
-0.4268 0.8537 0.0000
-0.4512 0.9024 0.0000
-0.4756 0.9512 0.0000
-0.5000 1.0000 0.0000
-0.1664 0.2496 0.0000
-0.1998 0.2996 0.0000
-0.2331 0.3497 0.0000
-0.2665 0.3997 0.0000
-0.2998 0.4497 0.0000
-0.3332 0.4997 0.0000
-0.3665 0.5498 0.0000
-0.3999 0.5998 0.0000
-0.4332 0.6498 0.0000
-0.4666 0.6998 0.0000
-0.4999 0.7499 0.0000
-0.5333 0.7999 0.0000
-0.5666 0.8499 0.0000
-0.6000 0.8999 0.0000
-0.6333 0.9500 0.0000
-0.6667 1.0000 0.0000
-0.1921 0.2305 0.0000
-0.2348 0.2818 0.0000
-0.2776 0.3331 0.0000
-0.3203 0.3844 0.0000
-0.3631 0.4357 0.0000
-0.4058 0.4870 0.0000
-0.4486 0.5383 0.0000
-0.4913 0.5896 0.0000
-0.5341 0.6409 0.0000
-0.5768 0.6922 0.0000
-0.6196 0.7435 0.0000
-0.6623 0.7948 0.0000
-0.7051 0.8461 0.0000
-0.7478 0.8974 0.0000
-0.7906 0.9487 0.0000
-0.8333 1.0000 0.0000
-0.2121 0.2121 0.0000
-0.2647 0.2647 0.0000
-0.3172 0.3172 0.0000
-0.3697 0.3697 0.0000
-0.4222 0.4222 0.0000
-0.4748 0.4748 0.0000
-0.5273 0.5273 0.0000
-0.5798 0.5798 0.0000
-0.6323 0.6323 0.0000
-0.6849 0.6849 0.0000
-0.7374 0.7374 0.0000
-0.7899 0.7899 0.0000
-0.8424 0.8424 0.0000
-0.8950 0.8950 0.0000
-0.9475 0.9475 0.0000
-1.0000 1.0000 0.0000
-0.2305 0.1921 0.0000
-0.2818 0.2348 0.0000
-0.3331 0.2776 0.0000
-0.3844 0.3203 0.0000
-0.4357 0.3631 0.0000
-0.4870 0.4058 0.0000
-0.5383 0.4486 0.0000
-0.5896 0.4913 0.0000
-0.6409 0.5341 0.0000
-0.6922 0.5768 0.0000
-0.7435 0.6196 0.0000
-0.7948 0.6623 0.0000
-0.8461 0.7051 0.0000
-0.8974 0.7478 0.0000
-0.9487 0.7906 0.0000
-1.0000 0.8333 0.0000
-0.2496 0.1664 0.0000
-0.2996 0.1998 0.0000
-0.3497 0.2331 0.0000
-0.3997 0.2665 0.0000
-0.4497 0.2998 0.0000
-0.4997 0.3332 0.0000
-0.5498 0.3665 0.0000
-0.5998 0.3999 0.0000
-0.6498 0.4332 0.0000
-0.6998 0.4666 0.0000
-0.7499 0.4999 0.0000
-0.7999 0.5333 0.0000
-0.8499 0.5666 0.0000
-0.8999 0.6000 0.0000
-0.9500 0.6333 0.0000
-1.0000 0.6667 0.0000
-0.2683 0.1342 0.0000
-0.3171 0.1586 0.0000
-0.3659 0.1829 0.0000
-0.4147 0.2073 0.0000
-0.4634 0.2317 0.0000
-0.5122 0.2561 0.0000
-0.5610 0.2805 0.0000
-0.6098 0.3049 0.0000
-0.6586 0.3293 0.0000
-0.7073 0.3537 0.0000
-0.7561 0.3781 0.0000
-0.8049 0.4024 0.0000
-0.8537 0.4268 0.0000
-0.9024 0.4512 0.0000
-0.9512 0.4756 0.0000
-1.0000 0.5000 0.0000
-0.2846 0.0949 0.0000
-0.3323 0.1108 0.0000
-0.3800 0.1267 0.0000
-0.4277 0.1426 0.0000
-0.4754 0.1585 0.0000
-0.5231 0.1744 0.0000
-0.5708 0.1903 0.0000
-0.6185 0.2062 0.0000
-0.6661 0.2220 0.0000
-0.7138 0.2379 0.0000
-0.7615 0.2538 0.0000
-0.8092 0.2697 0.0000
-0.8569 0.2856 0.0000
-0.9046 0.3015 0.0000
-0.9523 0.3174 0.0000
-1.0000 0.3333 0.0000
-0.2959 0.0493 0.0000
-0.3429 0.0571 0.0000
-0.3898 0.0650 0.0000
-0.4367 0.0728 0.0000
-0.4837 0.0806 0.0000
-0.5306 0.0884 0.0000
-0.5776 0.0963 0.0000
-0.6245 0.1041 0.0000
-0.6714 0.1119 0.0000
-0.7184 0.1197 0.0000
-0.7653 0.1276 0.0000
-0.8122 0.1354 0.0000
-0.8592 0.1432 0.0000
-0.9061 0.1510 0.0000
-0.9531 0.1588 0.0000
-1.0000 0.1667 0.0000
-0.3000 0.0000 0.0000
-0.3467 0.0000 0.0000
-0.3933 0.0000 0.0000
-0.4400 0.0000 0.0000
-0.4867 0.0000 0.0000
-0.5333 0.0000 0.0000
-0.5800 0.0000 0.0000
-0.6267 0.0000 0.0000
-0.6733 0.0000 0.0000
-0.7200 0.0000 0.0000
-0.7667 0.0000 0.0000
-0.8133 0.0000 0.0000
-0.8600 0.0000 0.0000
-0.9067 0.0000 0.0000
-0.9533 0.0000 0.0000
-1.0000 0.0000 0.0000
-0.2959 -0.0493 0.0000
-0.3429 -0.0571 0.0000
-0.3898 -0.0650 0.0000
-0.4367 -0.0728 0.0000
-0.4837 -0.0806 0.0000
-0.5306 -0.0884 0.0000
-0.5776 -0.0963 0.0000
-0.6245 -0.1041 0.0000
-0.6714 -0.1119 0.0000
-0.7184 -0.1197 0.0000
-0.7653 -0.1276 0.0000
-0.8122 -0.1354 0.0000
-0.8592 -0.1432 0.0000
-0.9061 -0.1510 0.0000
-0.9531 -0.1588 0.0000
-1.0000 -0.1667 0.0000
-0.2846 -0.0949 0.0000
-0.3323 -0.1108 0.0000
-0.3800 -0.1267 0.0000
-0.4277 -0.1426 0.0000
-0.4754 -0.1585 0.0000
-0.5231 -0.1744 0.0000
-0.5708 -0.1903 0.0000
-0.6185 -0.2062 0.0000
-0.6661 -0.2220 0.0000
-0.7138 -0.2379 0.0000
-0.7615 -0.2538 0.0000
-0.8092 -0.2697 0.0000
-0.8569 -0.2856 0.0000
-0.9046 -0.3015 0.0000
-0.9523 -0.3174 0.0000
-1.0000 -0.3333 0.0000
-0.2683 -0.1342 0.0000
-0.3171 -0.1586 0.0000
-0.3659 -0.1829 0.0000
-0.4147 -0.2073 0.0000
-0.4634 -0.2317 0.0000
-0.5122 -0.2561 0.0000
-0.5610 -0.2805 0.0000
-0.6098 -0.3049 0.0000
-0.6586 -0.3293 0.0000
-0.7073 -0.3537 0.0000
-0.7561 -0.3781 0.0000
-0.8049 -0.4024 0.0000
-0.8537 -0.4268 0.0000
-0.9024 -0.4512 0.0000
-0.9512 -0.4756 0.0000
-1.0000 -0.5000 0.0000
-0.2496 -0.1664 0.0000
-0.2996 -0.1998 0.0000
-0.3497 -0.2331 0.0000
-0.3997 -0.2665 0.0000
-0.4497 -0.2998 0.0000
-0.4997 -0.3332 0.0000
-0.5498 -0.3665 0.0000
-0.5998 -0.3999 0.0000
-0.6498 -0.4332 0.0000
-0.6998 -0.4666 0.0000
-0.7499 -0.4999 0.0000
-0.7999 -0.5333 0.0000
-0.8499 -0.5666 0.0000
-0.8999 -0.6000 0.0000
-0.9500 -0.6333 0.0000
-1.0000 -0.6667 0.0000
-0.2305 -0.1921 0.0000
-0.2818 -0.2348 0.0000
-0.3331 -0.2776 0.0000
-0.3844 -0.3203 0.0000
-0.4357 -0.3631 0.0000
-0.4870 -0.4058 0.0000
-0.5383 -0.4486 0.0000
-0.5896 -0.4913 0.0000
-0.6409 -0.5341 0.0000
-0.6922 -0.5768 0.0000
-0.7435 -0.6196 0.0000
-0.7948 -0.6623 0.0000
-0.8461 -0.7051 0.0000
-0.8974 -0.7478 0.0000
-0.9487 -0.7906 0.0000
-1.0000 -0.8333 0.0000
-0.2121 -0.2121 0.0000
-0.2647 -0.2647 0.0000
-0.3172 -0.3172 0.0000
-0.3697 -0.3697 0.0000
-0.4222 -0.4222 0.0000
-0.4748 -0.4748 0.0000
-0.5273 -0.5273 0.0000
-0.5798 -0.5798 0.0000
-0.6323 -0.6323 0.0000
-0.6849 -0.6849 0.0000
-0.7374 -0.7374 0.0000
-0.7899 -0.7899 0.0000
-0.8424 -0.8424 0.0000
-0.8950 -0.8950 0.0000
-0.9475 -0.9475 0.0000
-1.0000 -1.0000 0.0000
-0.1921 -0.2305 0.0000
-0.2348 -0.2818 0.0000
-0.2776 -0.3331 0.0000
-0.3203 -0.3844 0.0000
-0.3631 -0.4357 0.0000
-0.4058 -0.4870 0.0000
-0.4486 -0.5383 0.0000
-0.4913 -0.5896 0.0000
-0.5341 -0.6409 0.0000
-0.5768 -0.6922 0.0000
-0.6196 -0.7435 0.0000
-0.6623 -0.7948 0.0000
-0.7051 -0.8461 0.0000
-0.7478 -0.8974 0.0000
-0.7906 -0.9487 0.0000
-0.8333 -1.0000 0.0000
-0.1664 -0.2496 0.0000
-0.1998 -0.2996 0.0000
-0.2331 -0.3497 0.0000
-0.2665 -0.3997 0.0000
-0.2998 -0.4497 0.0000
-0.3332 -0.4997 0.0000
-0.3665 -0.5498 0.0000
-0.3999 -0.5998 0.0000
-0.4332 -0.6498 0.0000
-0.4666 -0.6998 0.0000
-0.4999 -0.7499 0.0000
-0.5333 -0.7999 0.0000
-0.5666 -0.8499 0.0000
-0.6000 -0.8999 0.0000
-0.6333 -0.9500 0.0000
-0.6667 -1.0000 0.0000
-0.1342 -0.2683 0.0000
-0.1586 -0.3171 0.0000
-0.1829 -0.3659 0.0000
-0.2073 -0.4147 0.0000
-0.2317 -0.4634 0.0000
-0.2561 -0.5122 0.0000
-0.2805 -0.5610 0.0000
[...]
         <PointData>
            <DataArray Name="fValues" NumberOfComponents="3" format="ascii" type="Float64">
 1.73882e-01 -4.30401e-02        00000 
 1.93702e-01 -5.12774e-02        00000 
 1.98705e-01 -5.45606e-02        00000 
 1.96742e-01 -5.57424e-02        00000 
 1.90659e-01 -5.56054e-02        00000 
 1.81711e-01 -5.44981e-02        00000 
 1.70529e-01 -5.26201e-02        00000 
 1.57472e-01 -5.01260e-02        00000 
 1.42776e-01 -4.71673e-02        00000 
 1.26614e-01 -4.39146e-02        00000 
 1.09130e-01 -4.05702e-02        00000 
 9.04422e-02 -3.73756e-02        00000 
 7.06445e-02 -3.46167e-02        00000 
 4.97774e-02 -3.26279e-02        00000 
 2.77831e-02 -3.18028e-02        00000 
 4.41575e-03 -3.26246e-02        00000 
 1.93726e-01 -4.51065e-02        00000 
 2.13203e-01 -4.93774e-02        00000 
 2.19559e-01 -5.15133e-02        00000 
 2.19832e-01 -5.24239e-02        00000 
 2.16594e-01 -5.24644e-02        00000 
 2.10977e-01 -5.17840e-02        00000 
 2.03549e-01 -5.04861e-02        00000 
 1.94628e-01 -4.86570e-02        00000 
 1.84410e-01 -4.63816e-02        00000 
 1.73033e-01 -4.37514e-02        00000 
 1.60605e-01 -4.08697e-02        00000 
 1.47225e-01 -3.78545e-02        00000 
 1.32997e-01 -3.48383e-02        00000 
 1.18052e-01 -3.19633e-02        00000 
 1.02593e-01 -2.93707e-02        00000 
 8.70131e-02 -2.71872e-02        00000 
 2.18880e-01 -4.75738e-02        00000 
 2.36603e-01 -4.77173e-02        00000 
 2.43711e-01 -4.81938e-02        00000 
 2.45875e-01 -4.84954e-02        00000 
 2.45251e-01 -4.83992e-02        00000 
 2.42797e-01 -4.78388e-02        00000 
 2.38991e-01 -4.68045e-02        00000 
 2.34096e-01 -4.53136e-02        00000 
 2.28277e-01 -4.33954e-02        00000 
 2.21643e-01 -4.10852e-02        00000 
 2.14279e-01 -3.84231e-02        00000 
 2.06260e-01 -3.54542e-02        00000 
 1.97666e-01 -3.22305e-02        00000 
 1.88597e-01 -2.88147e-02        00000 
 1.79187e-01 -2.52852e-02        00000 
 1.69611e-01 -2.17497e-02        00000 
 2.49845e-01 -5.08068e-02        00000 
 2.64253e-01 -4.67694e-02        00000 
 2.71245e-01 -4.53552e-02        00000 
 2.74805e-01 -4.47407e-02        00000 
 2.76480e-01 -4.42146e-02        00000 
 2.76959e-01 -4.34788e-02        00000 
 2.76586e-01 -4.24117e-02        00000 
 2.75548e-01 -4.09669e-02        00000 
 2.73962e-01 -3.91324e-02        00000 
 2.71904e-01 -3.69114e-02        00000 
 2.69432e-01 -3.43134e-02        00000 
 2.66590e-01 -3.13512e-02        00000 
 2.63417e-01 -2.80413e-02        00000 
 2.59943e-01 -2.44064e-02        00000 
 2.56196e-01 -2.04801e-02        00000 
 2.52208e-01 -1.63123e-02        00000 
 2.86416e-01 -5.51069e-02        00000 
 2.95849e-01 -4.75484e-02        00000 
 3.01757e-01 -4.43048e-02        00000 
 3.06137e-01 -4.26407e-02        00000 
 3.09747e-01 -4.14558e-02        00000 
 3.12906e-01 -4.02730e-02        00000 
 3.15762e-01 -3.88780e-02        00000 
 3.18394e-01 -3.71756e-02        00000 
 3.20848e-01 -3.51265e-02        00000 
 3.23160e-01 -3.27179e-02        00000 
 3.25354e-01 -2.99492e-02        00000 
 3.27450e-01 -2.68247e-02        00000 
 3.29457e-01 -2.33497e-02        00000 
 3.31373e-01 -1.95294e-02        00000 
 3.33174e-01 -1.53687e-02        00000 
 3.34805e-01 -1.08749e-02        00000 
 3.26948e-01 -6.07432e-02        00000 
 3.30190e-01 -5.12707e-02        00000 
 3.34250e-01 -4.67493e-02        00000 
 3.39001e-01 -4.41368e-02        00000 
 3.44273e-01 -4.21760e-02        00000 
 3.49929e-01 -4.03111e-02        00000 
 3.55874e-01 -3.82872e-02        00000 
 3.62044e-01 -3.59872e-02        00000 
 3.68402e-01 -3.33602e-02        00000 
 3.74926e-01 -3.03885e-02        00000 
 3.81609e-01 -2.70706e-02        00000 
 3.88449e-01 -2.34119e-02        00000 
 3.95450e-01 -1.94194e-02        00000 
 4.02615e-01 -1.50970e-02        00000 
 4.09939e-01 -1.04416e-02        00000 
 4.17403e-01 -5.43743e-03        00000 
 3.68174e-01 -6.78207e-02        00000 
 3.65128e-01 -5.86975e-02        00000 
 3.67259e-01 -5.38362e-02        00000 
 3.72357e-01 -5.05674e-02        00000 
 3.79300e-01 -4.77956e-02        00000 
 3.87473e-01 -4.50401e-02        00000 
 3.96523e-01 -4.20811e-02        00000 
 4.06238e-01 -3.88179e-02        00000 
 4.16487e-01 -3.52065e-02        00000 
 4.27190e-01 -3.12320e-02        00000 
 4.38303e-01 -2.68939e-02        00000 
 4.49803e-01 -2.21993e-02        00000 
 4.61692e-01 -1.71573e-02        00000 
 4.73989e-01 -1.17761e-02        00000 
 4.86735e-01 -6.05912e-03        00000 
 5.00000e-01 -1.97356e-16        00000 
 4.06027e-01 -7.60600e-02        00000 
 3.98051e-01 -6.93813e-02        00000 
 3.99106e-01 -6.49968e-02        00000 
 4.05102e-01 -6.12828e-02        00000 
 4.14088e-01 -5.76200e-02        00000 
 4.25046e-01 -5.37504e-02        00000 
 4.37406e-01 -4.95606e-02        00000 
 4.50829e-01 -4.49998e-02        00000 
 4.65105e-01 -4.00464e-02        00000 
 4.80099e-01 -3.46935e-02        00000 
 4.95728e-01 -2.89421e-02        00000 
 5.11939e-01 -2.27983e-02        00000 
 5.28711e-01 -1.62720e-02        00000 
 5.46049e-01 -9.37694e-03        00000 
 5.63987e-01 -2.13183e-03        00000 
 5.82597e-01  5.43743e-03        00000 
 4.37177e-01 -8.47684e-02        00000 
 4.26737e-01 -8.15725e-02        00000 
 4.28182e-01 -7.78297e-02        00000 
 4.35963e-01 -7.35400e-02        00000 
 4.47562e-01 -6.87619e-02        00000 
 4.61701e-01 -6.35346e-02        00000 
 4.77676e-01 -5.78787e-02        00000 
 4.95067e-01 -5.18044e-02        00000 
 5.13607e-01 -4.53167e-02        00000 
 5.33119e-01 -3.84188e-02        00000 
 5.53475e-01 -3.11153e-02        00000 
 5.74581e-01 -2.34149e-02        00000 
 5.96363e-01 -1.53328e-02        00000 
 6.18761e-01 -6.89428e-03        00000 
 6.41723e-01  1.86147e-03        00000 
 6.65195e-01  1.08749e-02        00000 
 4.60195e-01 -9.31466e-02        00000 
 4.49985e-01 -9.30807e-02        00000 
 4.53236e-01 -8.94367e-02        00000 
 4.63597e-01 -8.41457e-02        00000 
 4.78304e-01 -7.79575e-02        00000 
 4.95977e-01 -7.11808e-02        00000 
 5.15854e-01 -6.39494e-02        00000 
 5.37481e-01 -5.63198e-02        00000 
 5.60557e-01 -4.83176e-02        00000 
 5.84867e-01 -3.99572e-02        00000 
 6.10244e-01 -3.12529e-02        00000 
 6.36539e-01 -2.22246e-02        00000 
 6.63607e-01 -1.29023e-02        00000 
 6.91295e-01 -3.32947e-03        00000 
 7.19427e-01  6.43385e-03        00000 
 7.47792e-01  1.63123e-02        00000 
 4.75553e-01 -1.00602e-01        00000 
 4.67671e-01 -1.02322e-01        00000 
 4.73640e-01 -9.79251e-02        00000 
 4.87055e-01 -9.11716e-02        00000 
 5.05164e-01 -8.33476e-02        00000 
 5.26597e-01 -7.49514e-02        00000 
 5.50594e-01 -6.61713e-02        00000 
 5.76684e-01 -5.70847e-02        00000 
 6.04545e-01 -4.77303e-02        00000 
 6.33934e-01 -3.81385e-02        00000 
 6.64645e-01 -2.83438e-02        00000 
 6.96479e-01 -1.83901e-02        00000 
 7.29230e-01 -8.33229e-03        00000 
 7.62659e-01  1.76437e-03        00000 
 7.96484e-01  1.18233e-02        00000 
 8.30389e-01  2.17497e-02        00000 
 4.84782e-01 -1.06828e-01        00000 
 4.80399e-01 -1.08739e-01        00000 
 4.89489e-01 -1.02843e-01        00000 
 5.06125e-01 -9.42771e-02        00000 
 5.27754e-01 -8.47427e-02        00000 
 5.53081e-01 -7.47672e-02        00000 
 5.81347e-01 -6.45345e-02        00000 
 6.12069e-01 -5.41199e-02        00000 
 6.44904e-01 -4.35735e-02        00000 
 6.79581e-01 -3.29515e-02        00000 
 7.15868e-01 -2.23273e-02        00000 
 7.53544e-01 -1.17942e-02        00000 
 7.92382e-01 -1.46183e-03        00000 
 8.32138e-01  8.55176e-03        00000 
 8.72502e-01  1.81329e-02        00000 
 9.12987e-01  2.71872e-02        00000 
 4.89477e-01 -1.11662e-01        00000 
 4.89200e-01 -1.12688e-01        00000 
 5.01384e-01 -1.04571e-01        00000 
 5.21220e-01 -9.41025e-02        00000 
 5.46423e-01 -8.28999e-02        00000 
 5.75724e-01 -7.14208e-02        00000 
 6.08357e-01 -5.97987e-02        00000 
 6.43808e-01 -4.80897e-02        00000 
 6.81702e-01 -3.63512e-02        00000 
 7.21735e-01 -2.46712e-02        00000 
 7.63645e-01 -1.31812e-02        00000 
 8.07203e-01 -2.06485e-03        00000 
 8.52219e-01  8.43499e-03        00000 
 8.98576e-01  1.80054e-02        00000 
 9.46283e-01  2.62449e-02        00000 
 9.95584e-01  3.26246e-02        00000 
 4.92085e-01 -1.15863e-01        00000 
 4.94389e-01 -1.15921e-01        00000 
 5.04198e-01 -1.08432e-01        00000 
 5.19903e-01 -9.88447e-02        00000 
 5.40075e-01 -8.86414e-02        00000 
 5.63795e-01 -7.82405e-02        00000 
 5.90441e-01 -6.77569e-02        00000 
 6.19584e-01 -5.72105e-02        00000 
 6.50907e-01 -4.66006e-02        00000 
 6.84159e-01 -3.59314e-02        00000 
 7.19129e-01 -2.52221e-02        00000 
 7.55620e-01 -1.45120e-02        00000 
 7.93444e-01 -3.86161e-03        00000 
 8.32409e-01  6.65425e-03        00000 
 8.72320e-01  1.69787e-02        00000 
 9.12987e-01  2.71872e-02        00000 
 4.91747e-01 -1.20630e-01        00000 
 4.96316e-01 -1.18028e-01        00000 
 5.04500e-01 -1.10488e-01        00000 
 5.16615e-01 -1.01524e-01        00000 
 5.32179e-01 -9.21669e-02        00000 
 5.50640e-01 -8.27171e-02        00000 
 5.71552e-01 -7.32317e-02        00000 
 5.94573e-01 -6.36896e-02        00000 
 6.19439e-01 -5.40426e-02        00000 
 6.45941e-01 -4.42339e-02        00000 
 6.73906e-01 -3.42020e-02        00000 
 7.03180e-01 -2.38812e-02        00000 
 7.33615e-01 -1.32004e-02        00000 
 7.65064e-01 -2.08277e-03        00000 
 7.97373e-01  9.54981e-03        00000 
 8.30389e-01  2.17497e-02        00000 
 4.86516e-01 -1.25445e-01        00000 
 4.92725e-01 -1.18622e-01        00000 
 4.99567e-01 -1.10117e-01        00000 
 5.08668e-01 -1.01316e-01        00000 
 5.20185e-01 -9.25664e-02        00000 
 5.33914e-01 -8.39126e-02        00000 
 5.49582e-01 -7.53045e-02        00000 
 5.66941e-01 -6.66617e-02        00000 
 5.85784e-01 -5.78951e-02        00000 
 6.05938e-01 -4.89102e-02        00000 
 6.27263e-01 -3.96052e-02        00000 
 6.49643e-01 -2.98662e-02        00000 
 6.72978e-01 -1.95634e-02        00000 
 6.97176e-01 -8.54741e-03        00000 
 7.22147e-01  3.34953e-03        00000 
 7.47792e-01  1.63123e-02        00000 
 4.74514e-01 -1.29651e-01        00000 
 4.80861e-01 -1.17438e-01        00000 
 4.86224e-01 -1.07116e-01        00000 
 4.92686e-01 -9.79474e-02        00000 
 5.00742e-01 -8.94844e-02        00000 
 5.10398e-01 -8.14277e-02        00000 
 5.21514e-01 -7.35651e-02        00000 
 5.33922e-01 -6.57357e-02        00000 
 5.47464e-01 -5.78073e-02        00000 
 5.62002e-01 -4.96623e-02        00000 
 5.77422e-01 -4.11878e-02        00000 
 5.93632e-01 -3.22664e-02        00000 
 6.10561e-01 -2.27681e-02        00000 
 6.28155e-01 -1.25418e-02        00000 
 6.46375e-01 -1.40379e-03        00000 
 6.65195e-01  1.08749e-02        00000 
 4.54561e-01 -1.32408e-01        00000 
 4.58788e-01 -1.14684e-01        00000 
 4.62021e-01 -1.02132e-01        00000 
 4.65936e-01 -9.22431e-02        00000 
 4.70989e-01 -8.37989e-02        00000 
 4.77226e-01 -7.61428e-02        00000 
 4.84556e-01 -6.88854e-02        00000 
 4.92852e-01 -6.17753e-02        00000 
 5.01990e-01 -5.46365e-02        00000 
 5.11859e-01 -4.73360e-02        00000 
 5.22367e-01 -3.97652e-02        00000 
 5.33439e-01 -3.18288e-02        00000 
 5.45020e-01 -2.34367e-02        00000 
 5.57076e-01 -1.44980e-02        00000 
 5.69596e-01 -4.91298e-03        00000 
 5.82597e-01  5.43743e-03        00000 
 4.27080e-01 -1.32990e-01        00000 
 4.26906e-01 -1.11037e-01        00000 
 4.27129e-01 -9.66619e-02        00000 
 4.28370e-01 -8.61283e-02        00000 
 4.30706e-01 -7.76509e-02        00000 
 4.34044e-01 -7.02960e-02        00000 
 4.38251e-01 -6.35347e-02        00000 
 4.43201e-01 -5.70454e-02        00000 
 4.48781e-01 -5.06203e-02        00000 
 4.54899e-01 -4.41186e-02        00000 
 4.61483e-01 -3.74423e-02        00000 
 4.68475e-01 -3.05242e-02        00000 
 4.75837e-01 -2.33226e-02        00000 
 4.83545e-01 -1.58207e-02        00000 
 4.91594e-01 -8.03016e-03        00000 
 5.00000e-01  1.61107e-16        00000 
 3.94459e-01 -1.31112e-01        00000 
 3.88499e-01 -1.07316e-01        00000 
 3.85178e-01 -9.22529e-02        00000 
 3.83676e-01 -8.15795e-02        00000 
 3.83480e-01 -7.32522e-02        00000 
 3.84257e-01 -6.62189e-02        00000 
 3.85779e-01 -5.98953e-02        00000 
 3.87885e-01 -5.39358e-02        00000 
 3.90465e-01 -4.81260e-02        00000 
 3.93439e-01 -4.23290e-02        00000 
 3.96752e-01 -3.64588e-02        00000 
 4.00364e-01 -3.04664e-02        00000 
 4.04252e-01 -2.43346e-02        00000 
 4.08397e-01 -1.80781e-02        00000 
 4.12785e-01 -1.17475e-02        00000 
 4.17403e-01 -5.43743e-03        00000 
 3.60236e-01 -1.27047e-01        00000 
 3.48470e-01 -1.04057e-01        00000 
 3.41745e-01 -8.95870e-02        00000 
 3.37664e-01 -7.93584e-02        00000 
 3.35104e-01 -7.14064e-02        00000 
 3.33485e-01 -6.47330e-02        00000 
 3.32483e-01 -5.87908e-02        00000 
 3.31906e-01 -5.32620e-02        00000 
 3.31639e-01 -4.79533e-02        00000 
 3.31612e-01 -4.27440e-02        00000 
 3.31785e-01 -3.75576e-02        00000 
 3.32131e-01 -3.23470e-02        00000 
 3.32631e-01 -2.70848e-02        00000 
 3.33265e-01 -2.17571e-02        00000 
 3.34005e-01 -1.63568e-02        00000 
 3.34805e-01 -1.08749e-02        00000 
 3.27631e-01 -1.21491e-01        00000 
 3.11150e-01 -1.01364e-01        00000 
 3.01639e-01 -8.83232e-02        00000 
 2.95276e-01 -7.88531e-02        00000 
 2.90463e-01 -7.13424e-02        00000 
 2.86445e-01 -6.49725e-02        00000 
 2.82836e-01 -5.92992e-02        00000 
 2.79430e-01 -5.40691e-02        00000 
 2.76116e-01 -4.91302e-02        00000 
 2.72832e-01 -4.43860e-02        00000 
 2.69545e-01 -3.97689e-02        00000 
 2.66231e-01 -3.52230e-02        00000 
 2.62870e-01 -3.06904e-02        00000 
 2.59438e-01 -2.60996e-02        00000 
 2.55899e-01 -2.13533e-02        00000 
 2.52208e-01 -1.63123e-02        00000 
 2.98630e-01 -1.15287e-01        00000 
 2.78946e-01 -9.90658e-02        00000 
 2.67314e-01 -8.76795e-02        00000 
 2.58907e-01 -7.89412e-02        00000 
 2.51841e-01 -7.17406e-02        00000 
 2.45274e-01 -6.55035e-02        00000 
 2.38809e-01 -5.99214e-02        00000 
 2.32251e-01 -5.48202e-02        00000 
 2.25496e-01 -5.00976e-02        00000 
 2.18489e-01 -4.56878e-02        00000 
 2.11194e-01 -4.15383e-02        00000 
 2.03588e-01 -3.75923e-02        00000 
 1.95649e-01 -3.37735e-02        00000 
 1.87356e-01 -2.99710e-02        00000 
 1.78687e-01 -2.60277e-02        00000 
 1.69611e-01 -2.17497e-02        00000 
 2.73962e-01 -1.09151e-01        00000 
 2.52377e-01 -9.69574e-02        00000 
 2.39092e-01 -8.70299e-02        00000 
 2.28754e-01 -7.87612e-02        00000 
 2.19313e-01 -7.16138e-02        00000 
 2.09957e-01 -6.52772e-02        00000 
 2.00328e-01 -5.95710e-02        00000 
 1.90254e-01 -5.43975e-02        00000 
 1.79645e-01 -4.97052e-02        00000 
 1.68445e-01 -4.54651e-02        00000 
 1.56615e-01 -4.16548e-02        00000 
 1.44118e-01 -3.82478e-02        00000 
 1.30924e-01 -3.52039e-02        00000 
 1.17009e-01 -3.24563e-02        00000 
 1.02365e-01 -2.98797e-02        00000 
 8.70131e-02 -2.71872e-02        00000 
 2.53553e-01 -1.03479e-01        00000 
 2.30794e-01 -9.49701e-02        00000 
 2.16247e-01 -8.60556e-02        00000 
 2.03902e-01 -7.78926e-02        00000 
 1.91882e-01 -7.05224e-02        00000 
 1.79482e-01 -6.38429e-02        00000 
 1.66410e-01 -5.77818e-02        00000 
 1.52531e-01 -5.23057e-02        00000 
 1.37777e-01 -4.74075e-02        00000 
 1.22102e-01 -4.30951e-02        00000 
 1.05460e-01 -3.93862e-02        00000 
 8.77916e-02 -3.63112e-02        00000 
 6.90158e-02 -3.39271e-02        00000 
 4.90095e-02 -3.23446e-02        00000 
 2.75811e-02 -3.17773e-02        00000 
 4.41575e-03 -3.26246e-02        00000 
 2.33872e-01 -9.75823e-02        00000 
 2.14452e-01 -9.41717e-02        00000 
 2.00718e-01 -8.78558e-02        00000 
 1.88586e-01 -8.10666e-02        00000 
 1.76668e-01 -7.44467e-02        00000 
 1.64404e-01 -6.81551e-02        00000 
 1.51552e-01 -6.22283e-02        00000 
 1.38004e-01 -5.66778e-02        00000 
 1.23715e-01 -5.15146e-02        00000 
 1.08670e-01 -4.67529e-02        00000 
 9.28725e-02 -4.24081e-02        00000 
 7.63336e-02 -3.84939e-02        00000 
 5.90741e-02 -3.50185e-02        00000 
 4.11305e-02 -3.19826e-02        00000 
 2.25863e-02 -2.93775e-02        00000 
 3.67979e-03 -2.71872e-02        00000 
 2.11316e-01 -9.01975e-02        00000 
 1.96440e-01 -9.12862e-02        00000 
 1.84318e-01 -8.76934e-02        00000 
 1.72912e-01 -8.25427e-02        00000 
 1.61458e-01 -7.68959e-02        00000 
 1.49626e-01 -7.11460e-02        00000 
 1.37268e-01 -6.54467e-02        00000 
 1.24324e-01 -5.98636e-02        00000 
 1.10777e-01 -5.44300e-02        00000 
 9.66401e-02 -4.91670e-02        00000 
 8.19493e-02 -4.40904e-02        00000 
 6.67602e-02 -3.92121e-02        00000 
 5.11509e-02 -3.45393e-02        00000 
 3.52246e-02 -3.00732e-02        00000 
 1.91105e-02 -2.58099e-02        00000 
 2.94384e-03 -2.17497e-02        00000 
 1.86401e-01 -8.11739e-02        00000 
 1.76933e-01 -8.56797e-02        00000 
 1.67238e-01 -8.46005e-02        00000 
 1.57160e-01 -8.11879e-02        00000 
 1.46609e-01 -7.67072e-02        00000 
 1.35547e-01 -7.17031e-02        00000 
 1.23961e-01 -6.64253e-02        00000 
 1.11860e-01 -6.09940e-02        00000 
 9.92641e-02 -5.54707e-02        00000 
 8.62086e-02 -4.98901e-02        00000 
 7.27416e-02 -4.42749e-02        00000 
 5.89276e-02 -3.86436e-02        00000 
 4.48501e-02 -3.30139e-02        00000 
 3.06144e-02 -2.74039e-02        00000 
 1.63488e-02 -2.18319e-02        00000 
 2.20788e-03 -1.63123e-02        00000 
 1.60208e-01 -7.07486e-02        00000 
 1.56373e-01 -7.70318e-02        00000 
 1.49699e-01 -7.78523e-02        00000 
 1.41485e-01 -7.60087e-02        00000 
 1.32270e-01 -7.27377e-02        00000 
 1.22316e-01 -6.86288e-02        00000 
 1.11768e-01 -6.39796e-02        00000 
 1.00718e-01 -5.89470e-02        00000 
 8.92314e-02 -5.36168e-02        00000 
 7.73628e-02 -4.80384e-02        00000 
 6.51640e-02 -4.22430e-02        00000 
 5.26891e-02 -3.62544e-02        00000 
 3.99992e-02 -3.00948e-02        00000 
 2.71677e-02 -2.37897e-02        00000 
 1.42861e-02 -1.73702e-02        00000 
 1.47192e-03 -1.08749e-02        00000 
 1.34384e-01 -5.96255e-02        00000 
 1.35530e-01 -6.58621e-02        00000 
 1.31965e-01 -6.76150e-02        00000 
 1.25870e-01 -6.68729e-02        00000 
 1.18257e-01 -6.46304e-02        00000 
 1.09644e-01 -6.14097e-02        00000 
 1.00321e-01 -5.74976e-02        00000 
 9.04633e-02 -5.30578e-02        00000 
 8.01823e-02 -4.81869e-02        00000 
 6.95534e-02 -4.29441e-02        00000 
 5.86304e-02 -3.73681e-02        00000 
 4.74533e-02 -3.14868e-02        00000 
 3.60527e-02 -2.53243e-02        00000 
 2.44529e-02 -1.89059e-02        00000 
 1.26742e-02 -1.22628e-02        00000 
 7.35959e-04 -5.43743e-03        00000 
 1.10761e-01 -4.88807e-02        00000 
 1.15505e-01 -5.36426e-02        00000 
 1.14509e-01 -5.53423e-02        00000 
 1.10341e-01 -5.50869e-02        00000 
 1.04279e-01 -5.35161e-02        00000 
 9.70112e-02 -5.10052e-02        00000 
 8.89331e-02 -4.77812e-02        00000 
 8.02824e-02 -4.39858e-02        00000 
 7.12079e-02 -3.97107e-02        00000 
 6.18034e-02 -3.50177e-02        00000 
 5.21268e-02 -2.99505e-02        00000 
 4.22098e-02 -2.45418e-02        00000 
 3.20621e-02 -1.88185e-02        00000 
 2.16725e-02 -1.28043e-02        00000 
 1.10065e-02 -6.52295e-03        00000 
 3.14728e-16  2.34568e-16        00000 
 9.07748e-02 -3.95886e-02        00000 