<?xml version="1.0" encoding="utf-8"?>
<VTKFile byte_order="LittleEndian" type="UnstructuredGrid" version="0.1">
   <UnstructuredGrid>
      <Piece NumberOfCells="720" NumberOfPoints="768">
         <Points>
            <DataArray Name="Points" NumberOfComponents="3" format="ascii" type="Float32">
0.2121 0.2121 0.0000
0.2647 0.2647 0.0000
0.3172 0.3172 0.0000
0.3697 0.3697 0.0000
0.4222 0.4222 0.0000
0.4748 0.4748 0.0000
0.5273 0.5273 0.0000
0.5798 0.5798 0.0000
0.6323 0.6323 0.0000
0.6849 0.6849 0.0000
0.7374 0.7374 0.0000
0.7899 0.7899 0.0000
0.8424 0.8424 0.0000
0.8950 0.8950 0.0000
0.9475 0.9475 0.0000
1.0000 1.0000 0.0000
0.1921 0.2305 0.0000
0.2348 0.2818 0.0000
0.2776 0.3331 0.0000
0.3203 0.3844 0.0000
0.3631 0.4357 0.0000
0.4058 0.4870 0.0000
0.4486 0.5383 0.0000
0.4913 0.5896 0.0000
0.5341 0.6409 0.0000
0.5768 0.6922 0.0000
0.6196 0.7435 0.0000
0.6623 0.7948 0.0000
0.7051 0.8461 0.0000
0.7478 0.8974 0.0000
0.7906 0.9487 0.0000
0.8333 1.0000 0.0000
0.1664 0.2496 0.0000
0.1998 0.2996 0.0000
0.2331 0.3497 0.0000
0.2665 0.3997 0.0000
0.2998 0.4497 0.0000
0.3332 0.4997 0.0000
0.3665 0.5498 0.0000
0.3999 0.5998 0.0000
0.4332 0.6498 0.0000
0.4666 0.6998 0.0000
0.4999 0.7499 0.0000
0.5333 0.7999 0.0000
0.5666 0.8499 0.0000
0.6000 0.8999 0.0000
0.6333 0.9500 0.0000
0.6667 1.0000 0.0000
0.1342 0.2683 0.0000
0.1586 0.3171 0.0000
0.1829 0.3659 0.0000
0.2073 0.4147 0.0000
0.2317 0.4634 0.0000
0.2561 0.5122 0.0000
0.2805 0.5610 0.0000
0.3049 0.6098 0.0000
0.3293 0.6586 0.0000
0.3537 0.7073 0.0000
0.3781 0.7561 0.0000
0.4024 0.8049 0.0000
0.4268 0.8537 0.0000
0.4512 0.9024 0.0000
0.4756 0.9512 0.0000
0.5000 1.0000 0.0000
0.0949 0.2846 0.0000
0.1108 0.3323 0.0000
0.1267 0.3800 0.0000
0.1426 0.4277 0.0000
0.1585 0.4754 0.0000
0.1744 0.5231 0.0000
0.1903 0.5708 0.0000
0.2062 0.6185 0.0000
0.2220 0.6661 0.0000
0.2379 0.7138 0.0000
0.2538 0.7615 0.0000
0.2697 0.8092 0.0000
0.2856 0.8569 0.0000
0.3015 0.9046 0.0000
0.3174 0.9523 0.0000
0.3333 1.0000 0.0000
0.0493 0.2959 0.0000
0.0571 0.3429 0.0000
0.0650 0.3898 0.0000
0.0728 0.4367 0.0000
0.0806 0.4837 0.0000
0.0884 0.5306 0.0000
0.0963 0.5776 0.0000
0.1041 0.6245 0.0000
0.1119 0.6714 0.0000
0.1197 0.7184 0.0000
0.1276 0.7653 0.0000
0.1354 0.8122 0.0000
0.1432 0.8592 0.0000
0.1510 0.9061 0.0000
0.1588 0.9531 0.0000
0.1667 1.0000 0.0000
0.0000 0.3000 0.0000
0.0000 0.3467 0.0000
0.0000 0.3933 0.0000
0.0000 0.4400 0.0000
0.0000 0.4867 0.0000
0.0000 0.5333 0.0000
0.0000 0.5800 0.0000
0.0000 0.6267 0.0000
0.0000 0.6733 0.0000
0.0000 0.7200 0.0000
0.0000 0.7667 0.0000
0.0000 0.8133 0.0000
0.0000 0.8600 0.0000
0.0000 0.9067 0.0000
0.0000 0.9533 0.0000
0.0000 1.0000 0.0000
-0.0493 0.2959 0.0000
-0.0571 0.3429 0.0000
-0.0650 0.3898 0.0000
-0.0728 0.4367 0.0000
-0.0806 0.4837 0.0000
-0.0884 0.5306 0.0000
-0.0963 0.5776 0.0000
-0.1041 0.6245 0.0000
-0.1119 0.6714 0.0000
-0.1197 0.7184 0.0000
-0.1276 0.7653 0.0000
-0.1354 0.8122 0.0000
-0.1432 0.8592 0.0000
-0.1510 0.9061 0.0000
-0.1588 0.9531 0.0000
-0.1667 1.0000 0.0000
-0.0949 0.2846 0.0000
-0.1108 0.3323 0.0000
-0.1267 0.3800 0.0000
-0.1426 0.4277 0.0000
-0.1585 0.4754 0.0000
-0.1744 0.5231 0.0000
-0.1903 0.5708 0.0000
-0.2062 0.6185 0.0000
-0.2220 0.6661 0.0000
-0.2379 0.7138 0.0000
-0.2538 0.7615 0.0000
-0.2697 0.8092 0.0000
-0.2856 0.8569 0.0000
-0.3015 0.9046 0.0000
-0.3174 0.9523 0.0000
-0.3333 1.0000 0.0000
-0.1342 0.2683 0.0000
-0.1586 0.3171 0.0000
-0.1829 0.3659 0.0000
-0.2073 0.4147 0.0000
-0.2317 0.4634 0.0000
-0.2561 0.5122 0.0000
-0.2805 0.5610 0.0000
-0.3049 0.6098 0.0000
-0.3293 0.6586 0.0000
-0.3537 0.7073 0.0000
-0.3781 0.7561 0.0000
-0.4024 0.8049 0.0000
-0.4268 0.8537 0.0000
-0.4512 0.9024 0.0000
-0.4756 0.9512 0.0000
-0.5000 1.0000 0.0000
-0.1664 0.2496 0.0000
-0.1998 0.2996 0.0000
-0.2331 0.3497 0.0000
-0.2665 0.3997 0.0000
-0.2998 0.4497 0.0000
-0.3332 0.4997 0.0000
-0.3665 0.5498 0.0000
-0.3999 0.5998 0.0000
-0.4332 0.6498 0.0000
-0.4666 0.6998 0.0000
-0.4999 0.7499 0.0000
-0.5333 0.7999 0.0000
-0.5666 0.8499 0.0000
-0.6000 0.8999 0.0000
-0.6333 0.9500 0.0000
-0.6667 1.0000 0.0000
-0.1921 0.2305 0.0000
-0.2348 0.2818 0.0000
-0.2776 0.3331 0.0000
-0.3203 0.3844 0.0000
-0.3631 0.4357 0.0000
-0.4058 0.4870 0.0000
-0.4486 0.5383 0.0000
-0.4913 0.5896 0.0000
-0.5341 0.6409 0.0000
-0.5768 0.6922 0.0000
-0.6196 0.7435 0.0000
-0.6623 0.7948 0.0000
-0.7051 0.8461 0.0000
-0.7478 0.8974 0.0000
-0.7906 0.9487 0.0000
-0.8333 1.0000 0.0000
-0.2121 0.2121 0.0000
-0.2647 0.2647 0.0000
-0.3172 0.3172 0.0000
-0.3697 0.3697 0.0000
-0.4222 0.4222 0.0000
-0.4748 0.4748 0.0000
-0.5273 0.5273 0.0000
-0.5798 0.5798 0.0000
-0.6323 0.6323 0.0000
-0.6849 0.6849 0.0000
-0.7374 0.7374 0.0000
-0.7899 0.7899 0.0000
-0.8424 0.8424 0.0000
-0.8950 0.8950 0.0000
-0.9475 0.9475 0.0000
-1.0000 1.0000 0.0000
-0.2305 0.1921 0.0000
-0.2818 0.2348 0.0000
-0.3331 0.2776 0.0000
-0.3844 0.3203 0.0000
-0.4357 0.3631 0.0000
-0.4870 0.4058 0.0000
-0.5383 0.4486 0.0000
-0.5896 0.4913 0.0000
-0.6409 0.5341 0.0000
-0.6922 0.5768 0.0000
-0.7435 0.6196 0.0000
-0.7948 0.6623 0.0000
-0.8461 0.7051 0.0000
-0.8974 0.7478 0.0000
-0.9487 0.7906 0.0000
-1.0000 0.8333 0.0000
-0.2496 0.1664 0.0000
-0.2996 0.1998 0.0000
-0.3497 0.2331 0.0000
-0.3997 0.2665 0.0000
-0.4497 0.2998 0.0000
-0.4997 0.3332 0.0000
-0.5498 0.3665 0.0000
-0.5998 0.3999 0.0000
-0.6498 0.4332 0.0000
-0.6998 0.4666 0.0000
-0.7499 0.4999 0.0000
-0.7999 0.5333 0.0000
-0.8499 0.5666 0.0000
-0.8999 0.6000 0.0000
-0.9500 0.6333 0.0000
-1.0000 0.6667 0.0000
-0.2683 0.1342 0.0000
-0.3171 0.1586 0.0000
-0.3659 0.1829 0.0000
-0.4147 0.2073 0.0000
-0.4634 0.2317 0.0000
-0.5122 0.2561 0.0000
-0.5610 0.2805 0.0000
-0.6098 0.3049 0.0000
-0.6586 0.3293 0.0000
-0.7073 0.3537 0.0000
-0.7561 0.3781 0.0000
-0.8049 0.4024 0.0000
-0.8537 0.4268 0.0000
-0.9024 0.4512 0.0000
-0.9512 0.4756 0.0000
-1.0000 0.5000 0.0000
-0.2846 0.0949 0.0000
-0.3323 0.1108 0.0000
-0.3800 0.1267 0.0000
-0.4277 0.1426 0.0000
-0.4754 0.1585 0.0000
-0.5231 0.1744 0.0000
-0.5708 0.1903 0.0000
-0.6185 0.2062 0.0000
-0.6661 0.2220 0.0000
-0.7138 0.2379 0.0000
-0.7615 0.2538 0.0000
-0.8092 0.2697 0.0000
-0.8569 0.2856 0.0000
-0.9046 0.3015 0.0000
-0.9523 0.3174 0.0000
-1.0000 0.3333 0.0000
-0.2959 0.0493 0.0000
-0.3429 0.0571 0.0000
-0.3898 0.0650 0.0000
-0.4367 0.0728 0.0000
-0.4837 0.0806 0.0000
-0.5306 0.0884 0.0000
-0.5776 0.0963 0.0000
-0.6245 0.1041 0.0000
-0.6714 0.1119 0.0000
-0.7184 0.1197 0.0000
-0.7653 0.1276 0.0000
-0.8122 0.1354 0.0000
-0.8592 0.1432 0.0000
-0.9061 0.1510 0.0000
-0.9531 0.1588 0.0000
-1.0000 0.1667 0.0000
-0.3000 0.0000 0.0000
-0.3467 0.0000 0.0000
-0.3933 0.0000 0.0000
-0.4400 0.0000 0.0000
-0.4867 0.0000 0.0000
-0.5333 0.0000 0.0000
-0.5800 0.0000 0.0000
-0.6267 0.0000 0.0000
-0.6733 0.0000 0.0000
-0.7200 0.0000 0.0000
-0.7667 0.0000 0.0000
-0.8133 0.0000 0.0000
-0.8600 0.0000 0.0000
-0.9067 0.0000 0.0000
-0.9533 0.0000 0.0000
-1.0000 0.0000 0.0000
-0.2959 -0.0493 0.0000
-0.3429 -0.0571 0.0000
-0.3898 -0.0650 0.0000
-0.4367 -0.0728 0.0000
-0.4837 -0.0806 0.0000
-0.5306 -0.0884 0.0000
-0.5776 -0.0963 0.0000
-0.6245 -0.1041 0.0000
-0.6714 -0.1119 0.0000
-0.7184 -0.1197 0.0000
-0.7653 -0.1276 0.0000
-0.8122 -0.1354 0.0000
-0.8592 -0.1432 0.0000
-0.9061 -0.1510 0.0000
-0.9531 -0.1588 0.0000
-1.0000 -0.1667 0.0000
-0.2846 -0.0949 0.0000
-0.3323 -0.1108 0.0000
-0.3800 -0.1267 0.0000
-0.4277 -0.1426 0.0000
-0.4754 -0.1585 0.0000
-0.5231 -0.1744 0.0000
-0.5708 -0.1903 0.0000
-0.6185 -0.2062 0.0000
-0.6661 -0.2220 0.0000
-0.7138 -0.2379 0.0000
-0.7615 -0.2538 0.0000
-0.8092 -0.2697 0.0000
-0.8569 -0.2856 0.0000
-0.9046 -0.3015 0.0000
-0.9523 -0.3174 0.0000
-1.0000 -0.3333 0.0000
-0.2683 -0.1342 0.0000
-0.3171 -0.1586 0.0000
-0.3659 -0.1829 0.0000
-0.4147 -0.2073 0.0000
-0.4634 -0.2317 0.0000
-0.5122 -0.2561 0.0000
-0.5610 -0.2805 0.0000
-0.6098 -0.3049 0.0000
-0.6586 -0.3293 0.0000
-0.7073 -0.3537 0.0000
-0.7561 -0.3781 0.0000
-0.8049 -0.4024 0.0000
-0.8537 -0.4268 0.0000
-0.9024 -0.4512 0.0000
-0.9512 -0.4756 0.0000
-1.0000 -0.5000 0.0000
-0.2496 -0.1664 0.0000
-0.2996 -0.1998 0.0000
-0.3497 -0.2331 0.0000
-0.3997 -0.2665 0.0000
-0.4497 -0.2998 0.0000
-0.4997 -0.3332 0.0000
-0.5498 -0.3665 0.0000
-0.5998 -0.3999 0.0000
-0.6498 -0.4332 0.0000
-0.6998 -0.4666 0.0000
-0.7499 -0.4999 0.0000
-0.7999 -0.5333 0.0000
-0.8499 -0.5666 0.0000
-0.8999 -0.6000 0.0000
-0.9500 -0.6333 0.0000
-1.0000 -0.6667 0.0000
-0.2305 -0.1921 0.0000
-0.2818 -0.2348 0.0000
-0.3331 -0.2776 0.0000
-0.3844 -0.3203 0.0000
-0.4357 -0.3631 0.0000
-0.4870 -0.4058 0.0000
-0.5383 -0.4486 0.0000
-0.5896 -0.4913 0.0000
-0.6409 -0.5341 0.0000
-0.6922 -0.5768 0.0000
-0.7435 -0.6196 0.0000
-0.7948 -0.6623 0.0000
-0.8461 -0.7051 0.0000
-0.8974 -0.7478 0.0000
-0.9487 -0.7906 0.0000
-1.0000 -0.8333 0.0000
-0.2121 -0.2121 0.0000
-0.2647 -0.2647 0.0000
-0.3172 -0.3172 0.0000
-0.3697 -0.3697 0.0000
-0.4222 -0.4222 0.0000
-0.4748 -0.4748 0.0000
-0.5273 -0.5273 0.0000
-0.5798 -0.5798 0.0000
-0.6323 -0.6323 0.0000
-0.6849 -0.6849 0.0000
-0.7374 -0.7374 0.0000
-0.7899 -0.7899 0.0000
-0.8424 -0.8424 0.0000
-0.8950 -0.8950 0.0000
-0.9475 -0.9475 0.0000
-1.0000 -1.0000 0.0000
-0.1921 -0.2305 0.0000
-0.2348 -0.2818 0.0000
-0.2776 -0.3331 0.0000
-0.3203 -0.3844 0.0000
-0.3631 -0.4357 0.0000
-0.4058 -0.4870 0.0000
-0.4486 -0.5383 0.0000
-0.4913 -0.5896 0.0000
-0.5341 -0.6409 0.0000
-0.5768 -0.6922 0.0000
-0.6196 -0.7435 0.0000
-0.6623 -0.7948 0.0000
-0.7051 -0.8461 0.0000
-0.7478 -0.8974 0.0000
-0.7906 -0.9487 0.0000
-0.8333 -1.0000 0.0000
-0.1664 -0.2496 0.0000
-0.1998 -0.2996 0.0000
-0.2331 -0.3497 0.0000
-0.2665 -0.3997 0.0000
-0.2998 -0.4497 0.0000
-0.3332 -0.4997 0.0000
-0.3665 -0.5498 0.0000
-0.3999 -0.5998 0.0000
-0.4332 -0.6498 0.0000
-0.4666 -0.6998 0.0000
-0.4999 -0.7499 0.0000
-0.5333 -0.7999 0.0000
-0.5666 -0.8499 0.0000
-0.6000 -0.8999 0.0000
-0.6333 -0.9500 0.0000
-0.6667 -1.0000 0.0000
-0.1342 -0.2683 0.0000
-0.1586 -0.3171 0.0000
-0.1829 -0.3659 0.0000
-0.2073 -0.4147 0.0000
-0.2317 -0.4634 0.0000
-0.2561 -0.5122 0.0000
-0.2805 -0.5610 0.0000
[...]
         <PointData>
            <DataArray Name="fValues" NumberOfComponents="3" format="ascii" type="Float64">
-4.82212e-02  1.80931e-01        00000 
-5.10891e-02  1.85633e-01        00000 
-5.42126e-02  1.90676e-01        00000 
-5.75533e-02  1.92393e-01        00000 
-5.88347e-02  1.89446e-01        00000 
-5.76403e-02  1.82029e-01        00000 
-5.32896e-02  1.67671e-01        00000 
-4.52777e-02  1.55915e-01        00000 
-4.35915e-02  1.41662e-01        00000 
-4.42976e-02  1.27346e-01        00000 
-4.29472e-02  1.08141e-01        00000 
-3.97426e-02  8.77263e-02        00000 
-3.49488e-02  7.03661e-02        00000 
-3.37635e-02  5.03188e-02        00000 
-3.20690e-02  2.65971e-02        00000 
-3.40310e-02  2.55588e-03        00000 
-4.66523e-02  1.62771e-01        00000 
-5.02369e-02  1.68109e-01        00000 
-5.44428e-02  1.72850e-01        00000 
-5.83865e-02  1.73257e-01        00000 
-5.98520e-02  1.68726e-01        00000 
-6.03300e-02  1.63968e-01        00000 
-5.93885e-02  1.52808e-01        00000 
-5.41530e-02  1.40762e-01        00000 
-4.97162e-02  1.26476e-01        00000 
-4.64508e-02  1.10474e-01        00000 
-4.46050e-02  9.50989e-02        00000 
-4.22287e-02  8.02623e-02        00000 
-3.87549e-02  6.38247e-02        00000 
-3.27352e-02  4.38256e-02        00000 
-2.97340e-02  2.26752e-02        00000 
-3.08619e-02  3.26891e-03        00000 
-4.43855e-02  1.44562e-01        00000 
-4.82047e-02  1.47292e-01        00000 
-5.30574e-02  1.51155e-01        00000 
-5.80899e-02  1.49484e-01        00000 
-5.98940e-02  1.47806e-01        00000 
-6.13503e-02  1.45602e-01        00000 
-6.23965e-02  1.38899e-01        00000 
-5.95184e-02  1.27432e-01        00000 
-5.48044e-02  1.13461e-01        00000 
-5.18177e-02  1.01042e-01        00000 
-4.72854e-02  8.44440e-02        00000 
-4.14787e-02  6.72413e-02        00000 
-3.71817e-02  5.64073e-02        00000 
-3.05419e-02  3.75313e-02        00000 
-2.69802e-02  2.07749e-02        00000 
-2.29390e-02  1.63188e-03        00000 
-4.11965e-02  1.24475e-01        00000 
-4.51449e-02  1.24275e-01        00000 
-5.04098e-02  1.24693e-01        00000 
-5.59325e-02  1.26504e-01        00000 
-5.96158e-02  1.26604e-01        00000 
-6.09464e-02  1.24801e-01        00000 
-6.18250e-02  1.21163e-01        00000 
-6.07110e-02  1.13338e-01        00000 
-5.61535e-02  1.00535e-01        00000 
-5.08640e-02  8.85732e-02        00000 
-4.57171e-02  7.53631e-02        00000 
-4.14861e-02  5.86868e-02        00000 
-3.82657e-02  4.42576e-02        00000 
-3.13784e-02  2.92021e-02        00000 
-2.41997e-02  1.46279e-02        00000 
-1.93853e-02  3.10325e-03        00000 
-3.67112e-02  1.00290e-01        00000 
-4.09592e-02  1.00071e-01        00000 
-4.82331e-02  1.03105e-01        00000 
-5.34810e-02  1.04961e-01        00000 
-5.73792e-02  1.03395e-01        00000 
-5.99539e-02  1.01967e-01        00000 
-6.05028e-02  9.93065e-02        00000 
-5.99311e-02  9.42336e-02        00000 
-5.75025e-02  8.49817e-02        00000 
-5.30563e-02  7.48162e-02        00000 
-4.79682e-02  6.26243e-02        00000 
-4.16282e-02  4.81517e-02        00000 
-3.71788e-02  3.64947e-02        00000 
-2.84235e-02  2.50959e-02        00000 
-1.89479e-02  1.20775e-02        00000 
-1.36252e-02  5.47601e-04        00000 
-3.36700e-02  8.22013e-02        00000 
-3.87294e-02  8.22120e-02        00000 
-4.36954e-02  8.30837e-02        00000 
-4.86081e-02  8.41302e-02        00000 
-5.25479e-02  8.22727e-02        00000 
-5.55541e-02  7.96352e-02        00000 
-5.63508e-02  7.64124e-02        00000 
-5.58121e-02  7.10899e-02        00000 
-5.45441e-02  6.58399e-02        00000 
-5.14221e-02  5.69894e-02        00000 
-4.56305e-02  4.64900e-02        00000 
-3.95681e-02  3.56303e-02        00000 
-3.20518e-02  2.85723e-02        00000 
-2.43605e-02  2.25748e-02        00000 
-1.40712e-02  1.56272e-02        00000 
-5.39113e-03  2.16997e-03        00000 
-3.14041e-02  6.97364e-02        00000 
-3.59621e-02  6.87040e-02        00000 
-4.03711e-02  6.90408e-02        00000 
-4.39493e-02  6.96823e-02        00000 
-4.65968e-02  6.76285e-02        00000 
-4.95141e-02  6.33670e-02        00000 
-4.99964e-02  5.58265e-02        00000 
-4.86827e-02  5.14563e-02        00000 
-4.74419e-02  4.63001e-02        00000 
-4.27768e-02  4.00706e-02        00000 
-3.65757e-02  3.34339e-02        00000 
-3.06219e-02  2.71996e-02        00000 
-2.37575e-02  1.95084e-02        00000 
-1.52144e-02  1.24402e-02        00000 
-7.44543e-03  7.46571e-03        00000 
-2.99362e-03  2.65751e-03        00000 
-2.78389e-02  5.92943e-02        00000 
-3.17608e-02  5.80280e-02        00000 
-3.60603e-02  5.82391e-02        00000 
-3.93388e-02  5.91068e-02        00000 
-4.06622e-02  5.72483e-02        00000 
-4.19086e-02  5.14183e-02        00000 
-4.19243e-02  4.80912e-02        00000 
-4.06359e-02  4.44324e-02        00000 
-3.88894e-02  3.89118e-02        00000 
-3.44741e-02  3.24000e-02        00000 
-2.82631e-02  2.66787e-02        00000 
-2.11433e-02  2.02641e-02        00000 
-1.44120e-02  1.42396e-02        00000 
-8.32287e-03  8.03865e-03        00000 
-2.79722e-03  3.20764e-03        00000 
 2.69521e-03 -5.14944e-04        00000 
-2.46264e-02  5.21044e-02        00000 
-2.82558e-02  5.10766e-02        00000 
-3.25981e-02  5.18818e-02        00000 
-3.50159e-02  5.29054e-02        00000 
-3.56552e-02  4.85923e-02        00000 
-3.59403e-02  4.43621e-02        00000 
-3.39480e-02  4.00554e-02        00000 
-3.05103e-02  3.65965e-02        00000 
-2.69954e-02  3.11268e-02        00000 
-2.28888e-02  2.53377e-02        00000 
-2.06485e-02  2.08194e-02        00000 
-1.55922e-02  1.64725e-02        00000 
-8.65992e-03  1.35559e-02        00000 
-5.16401e-04  9.26554e-03        00000 
 6.57280e-03  3.65505e-03        00000 
 9.32602e-03 -1.82542e-03        00000 
-2.12686e-02  5.00836e-02        00000 
-2.46880e-02  4.72652e-02        00000 
-2.93661e-02  4.77236e-02        00000 
-3.15591e-02  4.52946e-02        00000 
-3.08151e-02  4.34708e-02        00000 
-2.85587e-02  3.92799e-02        00000 
-2.58078e-02  3.49802e-02        00000 
-2.08843e-02  3.03391e-02        00000 
-1.64036e-02  2.44207e-02        00000 
-1.24095e-02  1.98921e-02        00000 
-9.97463e-03  1.53544e-02        00000 
-4.70246e-03  1.20897e-02        00000 
 1.53197e-03  9.72550e-03        00000 
 7.16335e-03  5.67894e-03        00000 
 1.29476e-02  2.16428e-03        00000 
 1.83664e-02  7.72504e-05        00000 
-1.90182e-02  5.19723e-02        00000 
-2.21099e-02  4.77062e-02        00000 
-2.61796e-02  4.71163e-02        00000 
-2.72731e-02  4.39405e-02        00000 
-2.54829e-02  4.07795e-02        00000 
-2.26477e-02  3.65896e-02        00000 
-1.84363e-02  3.14756e-02        00000 
-1.49804e-02  2.65518e-02        00000 
-1.23736e-02  2.25643e-02        00000 
-7.29880e-03  1.70571e-02        00000 
-1.47741e-03  1.20018e-02        00000 
 3.60898e-03  6.09992e-03        00000 
 7.31401e-03  5.80547e-03        00000 
 1.19744e-02  4.82939e-03        00000 
 1.59916e-02  3.03716e-04        00000 
 2.41041e-02 -3.86831e-03        00000 
-1.85315e-02  5.46333e-02        00000 
-2.04415e-02  5.08995e-02        00000 
-2.36600e-02  4.86200e-02        00000 
-2.42587e-02  4.35195e-02        00000 
-2.23656e-02  3.92454e-02        00000 
-1.89641e-02  3.49880e-02        00000 
-1.35296e-02  2.96569e-02        00000 
-9.87857e-03  2.40018e-02        00000 
-5.89383e-03  2.02662e-02        00000 
-2.19590e-03  1.50644e-02        00000 
 1.98752e-03  1.12103e-02        00000 
 7.26793e-03  8.78661e-03        00000 
 1.11552e-02  5.31973e-03        00000 
 1.64869e-02 -2.72170e-04        00000 
 2.50573e-02  6.72707e-04        00000 
 2.89132e-02  1.44872e-03        00000 
-1.94102e-02  5.89026e-02        00000 
-1.83485e-02  5.42909e-02        00000 
-2.22608e-02  5.02387e-02        00000 
-2.22502e-02  4.54751e-02        00000 
-1.90969e-02  3.98597e-02        00000 
-1.37034e-02  3.40342e-02        00000 
-8.15567e-03  2.88520e-02        00000 
-6.15506e-03  2.24905e-02        00000 
-3.71285e-03  1.77864e-02        00000 
 9.36221e-04  1.48202e-02        00000 
 5.82194e-03  1.16435e-02        00000 
 1.11671e-02  9.08035e-03        00000 
 1.76606e-02 -1.60965e-03        00000 
 2.59653e-02 -3.57329e-04        00000 
 2.52256e-02 -4.79448e-05        00000 
 3.05764e-02 -1.90266e-03        00000 
-2.05601e-02  6.33484e-02        00000 
-1.94049e-02  5.87357e-02        00000 
-2.11023e-02  5.39248e-02        00000 
-2.12036e-02  5.05662e-02        00000 
-1.84702e-02  4.58476e-02        00000 
-1.44376e-02  4.05318e-02        00000 
-1.01018e-02  3.63535e-02        00000 
-6.36805e-03  3.03493e-02        00000 
-4.22419e-03  2.54486e-02        00000 
-1.88640e-03  2.08344e-02        00000 
 5.25009e-04  1.74281e-02        00000 
 6.29811e-03  1.51257e-02        00000 
 8.80006e-03  7.79306e-03        00000 
 1.77917e-02  1.75821e-03        00000 
 2.51512e-02 -2.93303e-03        00000 
 3.13759e-02 -5.61172e-03        00000 
-2.37225e-02  6.78704e-02        00000 
-2.09114e-02  6.25737e-02        00000 
-2.18110e-02  6.00612e-02        00000 
-2.16797e-02  5.71779e-02        00000 
-1.96710e-02  5.36292e-02        00000 
-1.64820e-02  4.94753e-02        00000 
-1.29271e-02  4.42224e-02        00000 
-8.47844e-03  3.83343e-02        00000 
-5.18661e-03  3.12322e-02        00000 
-2.16389e-03  2.78036e-02        00000 
-7.85625e-04  2.24060e-02        00000 
 1.57801e-03  1.66481e-02        00000 
 6.24156e-03  1.16716e-02        00000 
 6.92376e-03  4.91081e-03        00000 
 1.48012e-02  5.91182e-04        00000 
 2.27614e-02 -2.27868e-03        00000 
-2.78845e-02  7.39929e-02        00000 
-2.41725e-02  6.90413e-02        00000 
-2.34948e-02  6.60753e-02        00000 
-2.34389e-02  6.58754e-02        00000 
-2.33785e-02  6.29758e-02        00000 
-2.20337e-02  6.00249e-02        00000 
-1.89720e-02  5.51807e-02        00000 
-1.45731e-02  4.77936e-02        00000 
-1.21000e-02  4.18933e-02        00000 
-9.52338e-03  3.73426e-02        00000 
-6.47458e-03  3.10455e-02        00000 
-2.65417e-03  2.32052e-02        00000 
 4.18124e-04  1.52994e-02        00000 
 6.29001e-03  7.29226e-03        00000 
 1.13584e-02  3.38562e-03        00000 
 1.92681e-02 -2.07913e-03        00000 
-3.44976e-02  8.38323e-02        00000 
-3.13331e-02  8.03532e-02        00000 
-2.84309e-02  7.76330e-02        00000 
-2.78005e-02  7.69414e-02        00000 
-2.73830e-02  7.53395e-02        00000 
-2.75008e-02  7.11664e-02        00000 
-2.48861e-02  6.53717e-02        00000 
-2.11207e-02  5.71076e-02        00000 
-1.82052e-02  4.85437e-02        00000 
-1.59807e-02  4.35425e-02        00000 
-1.40513e-02  3.64955e-02        00000 
-1.35343e-02  2.80321e-02        00000 
-7.39594e-03  1.95564e-02        00000 
 1.47612e-03  1.22497e-02        00000 
 5.93786e-03  4.64636e-03        00000 
 1.26115e-02 -1.84024e-03        00000 
-4.40416e-02  9.87062e-02        00000 
-4.07685e-02  9.61185e-02        00000 
-3.85825e-02  9.30327e-02        00000 
-3.72729e-02  8.97805e-02        00000 
-3.62268e-02  8.76917e-02        00000 
-3.54888e-02  8.46800e-02        00000 
-3.29083e-02  7.72395e-02        00000 
-2.88375e-02  6.73498e-02        00000 
-2.50610e-02  5.69920e-02        00000 
-2.26257e-02  4.98857e-02        00000 
-2.05231e-02  4.27262e-02        00000 
-1.88957e-02  3.29684e-02        00000 
-1.35607e-02  2.35078e-02        00000 
-5.82802e-03  1.83434e-02        00000 
 7.11409e-04  1.02914e-02        00000 
 7.77782e-03 -1.52800e-03        00000 
-5.50149e-02  1.15753e-01        00000 
-5.34602e-02  1.14128e-01        00000 
-5.21745e-02  1.11019e-01        00000 
-5.12169e-02  1.06904e-01        00000 
-4.92728e-02  1.02728e-01        00000 
-4.68696e-02  9.52818e-02        00000 
-4.46540e-02  8.74615e-02        00000 
-4.19028e-02  7.67643e-02        00000 
-3.67603e-02  6.64472e-02        00000 
-3.21048e-02  5.85275e-02        00000 
-2.82435e-02  4.95678e-02        00000 
-2.43516e-02  3.94711e-02        00000 
-1.81351e-02  2.99392e-02        00000 
-1.09136e-02  2.03971e-02        00000 
-7.09098e-03  1.23414e-02        00000 
 2.51483e-03  7.49438e-04        00000 
-6.55446e-02  1.36610e-01        00000 
-6.41600e-02  1.34106e-01        00000 
-6.34276e-02  1.30021e-01        00000 
-6.38108e-02  1.24529e-01        00000 
-6.18547e-02  1.17321e-01        00000 
-5.95662e-02  1.08531e-01        00000 
-5.65464e-02  9.81110e-02        00000 
-5.37236e-02  8.67457e-02        00000 
-4.80012e-02  7.62138e-02        00000 
-4.28717e-02  6.82583e-02        00000 
-3.84116e-02  5.79410e-02        00000 
-3.29158e-02  4.44763e-02        00000 
-2.49220e-02  3.29988e-02        00000 
-1.74269e-02  2.16159e-02        00000 
-1.19517e-02  9.74679e-03        00000 
-1.12730e-03 -3.38420e-03        00000 
-7.70912e-02  1.61701e-01        00000 
-7.50608e-02  1.56774e-01        00000 
-7.43110e-02  1.50756e-01        00000 
-7.23075e-02  1.40270e-01        00000 
-6.94903e-02  1.30314e-01        00000 
-6.68889e-02  1.22264e-01        00000 
-6.41947e-02  1.12022e-01        00000 
-6.16491e-02  1.00751e-01        00000 
-5.54168e-02  8.86333e-02        00000 
-4.91561e-02  7.66774e-02        00000 
-4.35846e-02  6.56726e-02        00000 
-3.72494e-02  5.09828e-02        00000 
-2.97037e-02  3.88992e-02        00000 
-2.42609e-02  2.61297e-02        00000 
-1.81757e-02  1.52679e-02        00000 
-8.54882e-03  3.10208e-03        00000 
-8.53631e-02  1.86254e-01        00000 
-8.38332e-02  1.79895e-01        00000 
-8.13212e-02  1.71506e-01        00000 
-7.82866e-02  1.60025e-01        00000 
-7.34123e-02  1.46279e-01        00000 
-6.93366e-02  1.35734e-01        00000 
-6.66980e-02  1.23505e-01        00000 
-6.35650e-02  1.12264e-01        00000 
-5.72427e-02  9.97545e-02        00000 
-5.05405e-02  8.54217e-02        00000 
-4.57150e-02  7.28504e-02        00000 
-4.10274e-02  6.11014e-02        00000 
-3.24517e-02  4.88126e-02        00000 
-2.59188e-02  3.23706e-02        00000 
-1.82886e-02  1.77606e-02        00000 
-1.13376e-02  1.32358e-03        00000 
-9.13741e-02  2.09100e-01        00000 
-8.90446e-02  2.01136e-01        00000 
-8.50140e-02  1.90235e-01        00000 
-8.04302e-02  1.76844e-01        00000 
-7.53135e-02  1.63456e-01        00000 
-7.00346e-02  1.50906e-01        00000 
-6.70096e-02  1.39435e-01        00000 
-6.37346e-02  1.28727e-01        00000 
-5.80212e-02  1.12585e-01        00000 
-5.25017e-02  9.93245e-02        00000 
-4.69665e-02  8.22420e-02        00000 
-4.07561e-02  6.88732e-02        00000 
-3.44723e-02  5.40164e-02        00000 
-2.90152e-02  3.25515e-02        00000 
-2.41300e-02  1.61578e-02        00000 
-1.78957e-02  8.69822e-04        00000 
-9.72230e-02  2.32063e-01        00000 
-9.20559e-02  2.19807e-01        00000 
-8.45421e-02  2.06746e-01        00000 
-7.88390e-02  1.92968e-01        00000 
-7.33126e-02  1.78361e-01        00000 
-6.79303e-02  1.66545e-01        00000 
-6.31454e-02  1.54541e-01        00000 
-6.03857e-02  1.43177e-01        00000 
-5.54331e-02  1.27699e-01        00000 
-5.00598e-02  1.11182e-01        00000 
-4.64757e-02  9.52017e-02        00000 
-4.16488e-02  7.68966e-02        00000 
-3.49296e-02  5.93319e-02        00000 
-3.15530e-02  4.05411e-02        00000 
-2.96484e-02  2.56559e-02        00000 
-2.45016e-02  4.91109e-04        00000 
-1.02063e-01  2.53436e-01        00000 
-9.35758e-02  2.38919e-01        00000 
-8.26719e-02  2.23425e-01        00000 
-7.46494e-02  2.06925e-01        00000 
-6.77212e-02  1.91480e-01        00000 
-6.26870e-02  1.79792e-01        00000 
-5.95604e-02  1.68625e-01        00000 
-5.41819e-02  1.54859e-01        00000 
-5.11044e-02  1.41037e-01        00000 
-4.70035e-02  1.27203e-01        00000 
-4.11638e-02  1.08640e-01        00000 
-3.38649e-02  9.16664e-02        00000 
-3.35208e-02  7.03481e-02        00000 
-3.27631e-02  5.12714e-02        00000 
-3.17230e-02  2.54855e-02        00000 
-3.62624e-02  4.12157e-03        00000 
-1.05371e-01  2.73870e-01        00000 
-9.65158e-02  2.61814e-01        00000 
-8.50864e-02  2.48362e-01        00000 
-7.63189e-02  2.35623e-01        00000 
-6.91688e-02  2.22802e-01        00000 
-6.20170e-02  2.10638e-01        00000 
-5.81773e-02  2.00631e-01        00000 
-5.44320e-02  1.92275e-01        00000 
-5.05128e-02  1.80258e-01        00000 
-4.74062e-02  1.68332e-01        00000 
-4.35295e-02  1.55346e-01        00000 
-3.99729e-02  1.45640e-01        00000 
-3.74448e-02  1.33341e-01        00000 
-3.35348e-02  1.16413e-01        00000 
-3.05394e-02  1.02033e-01        00000 
-2.59840e-02  8.59818e-02        00000 
-1.09044e-01  2.98929e-01        00000 
-9.94405e-02  2.88434e-01        00000 
-8.92747e-02  2.79410e-01        00000 
-7.78832e-02  2.68752e-01        00000 
-6.91417e-02  2.58776e-01        00000 
-6.38867e-02  2.50764e-01        00000 
-5.82313e-02  2.41543e-01        00000 
-5.54742e-02  2.36839e-01        00000 
-5.18412e-02  2.28741e-01        00000 
-4.67196e-02  2.20488e-01        00000 
-4.10142e-02  2.12677e-01        00000 
-3.72936e-02  2.04229e-01        00000 
-3.41987e-02  1.94890e-01        00000 
-2.85783e-02  1.84472e-01        00000 
-2.46547e-02  1.76730e-01        00000 
-2.33663e-02  1.70446e-01        00000 
-1.12905e-01  3.26583e-01        00000 
-1.02965e-01  3.20168e-01        00000 
-9.21893e-02  3.11540e-01        00000 
-7.97837e-02  3.04492e-01        00000 
-6.93100e-02  2.98421e-01        00000 
-6.27115e-02  2.92577e-01        00000 
-5.94246e-02  2.85890e-01        00000 
-5.66518e-02  2.81889e-01        00000 
-5.18672e-02  2.78949e-01        00000 
-4.67740e-02  2.74711e-01        00000 
-4.19156e-02  2.72595e-01        00000 
-3.50363e-02  2.67407e-01        00000 
-3.00655e-02  2.62935e-01        00000 
-2.52156e-02  2.59394e-01        00000 
-2.06485e-02  2.55818e-01        00000 
-1.65567e-02  2.52024e-01        00000 
-1.16870e-01  3.58389e-01        00000 
-1.06154e-01  3.53643e-01        00000 
-9.54776e-02  3.46055e-01        00000 
-8.41012e-02  3.42287e-01        00000 
-7.22394e-02  3.37478e-01        00000 
-6.28282e-02  3.33601e-01        00000 
-5.69275e-02  3.30356e-01        00000 
-5.47162e-02  3.28938e-01        00000 
-5.18211e-02  3.27880e-01        00000 
-4.70902e-02  3.31927e-01        00000 
-3.97945e-02  3.35025e-01        00000 
-3.23968e-02  3.31954e-01        00000 
-2.52216e-02  3.30273e-01        00000 
-1.93597e-02  3.34662e-01        00000 
-1.37977e-02  3.37723e-01        00000 
-9.75881e-03  3.28807e-01        00000 
-1.20217e-01  3.88366e-01        00000 
-1.10684e-01  3.87556e-01        00000 
-9.90405e-02  3.86090e-01        00000 
-8.68759e-02  3.84697e-01        00000 
-7.53447e-02  3.83657e-01        00000 
-6.46273e-02  3.82534e-01        00000 
-5.77277e-02  3.85084e-01        00000 
-5.19261e-02  3.85442e-01        00000 
-4.76041e-02  3.87366e-01        00000 
-4.32525e-02  3.90038e-01        00000 
-3.87346e-02  3.96368e-01        00000 
-3.28763e-02  4.00337e-01        00000 
-2.44251e-02  4.01805e-01        00000 
-1.74354e-02  4.08378e-01        00000 
-1.08719e-02  4.14136e-01        00000 
-5.11747e-03  4.13861e-01        00000 
-1.20899e-01  4.19361e-01        00000 
-1.11535e-01  4.24001e-01        00000 
-1.00294e-01  4.26533e-01        00000 
-8.91985e-02  4.27030e-01        00000 
-7.76071e-02  4.28606e-01        00000 
-6.83762e-02  4.31739e-01        00000 
-6.23298e-02  4.36215e-01        00000 
-5.61444e-02  4.41073e-01        00000 
-5.02736e-02  4.47982e-01        00000 
-4.39844e-02  4.54520e-01        00000 
-3.89841e-02  4.62278e-01        00000 
-3.36530e-02  4.67688e-01        00000 
-2.45158e-02  4.72443e-01        00000 
-1.35400e-02  4.82243e-01        00000 
-5.65624e-03  4.97098e-01        00000 
 1.43711e-03  5.02306e-01        00000 
-1.20537e-01  4.47102e-01        00000 