<?xml version="1.0" encoding="utf-8"?>
<VTKFile byte_order="LittleEndian" type="UnstructuredGrid" version="0.1">
   <UnstructuredGrid>
      <Piece NumberOfCells="720" NumberOfPoints="768">
         <Points>
            <DataArray Name="Points" NumberOfComponents="3" format="ascii" type="Float32">
0.2121 0.2121 0.0000
0.2647 0.2647 0.0000
0.3172 0.3172 0.0000
0.3697 0.3697 0.0000
0.4222 0.4222 0.0000
0.4748 0.4748 0.0000
0.5273 0.5273 0.0000
0.5798 0.5798 0.0000
0.6323 0.6323 0.0000
0.6849 0.6849 0.0000
0.7374 0.7374 0.0000
0.7899 0.7899 0.0000
0.8424 0.8424 0.0000
0.8950 0.8950 0.0000
0.9475 0.9475 0.0000
1.0000 1.0000 0.0000
0.1921 0.2305 0.0000
0.2348 0.2818 0.0000
0.2776 0.3331 0.0000
0.3203 0.3844 0.0000
0.3631 0.4357 0.0000
0.4058 0.4870 0.0000
0.4486 0.5383 0.0000
0.4913 0.5896 0.0000
0.5341 0.6409 0.0000
0.5768 0.6922 0.0000
0.6196 0.7435 0.0000
0.6623 0.7948 0.0000
0.7051 0.8461 0.0000
0.7478 0.8974 0.0000
0.7906 0.9487 0.0000
0.8333 1.0000 0.0000
0.1664 0.2496 0.0000
0.1998 0.2996 0.0000
0.2331 0.3497 0.0000
0.2665 0.3997 0.0000
0.2998 0.4497 0.0000
0.3332 0.4997 0.0000
0.3665 0.5498 0.0000
0.3999 0.5998 0.0000
0.4332 0.6498 0.0000
0.4666 0.6998 0.0000
0.4999 0.7499 0.0000
0.5333 0.7999 0.0000
0.5666 0.8499 0.0000
0.6000 0.8999 0.0000
0.6333 0.9500 0.0000
0.6667 1.0000 0.0000
0.1342 0.2683 0.0000
0.1586 0.3171 0.0000
0.1829 0.3659 0.0000
0.2073 0.4147 0.0000
0.2317 0.4634 0.0000
0.2561 0.5122 0.0000
0.2805 0.5610 0.0000
0.3049 0.6098 0.0000
0.3293 0.6586 0.0000
0.3537 0.7073 0.0000
0.3781 0.7561 0.0000
0.4024 0.8049 0.0000
0.4268 0.8537 0.0000
0.4512 0.9024 0.0000
0.4756 0.9512 0.0000
0.5000 1.0000 0.0000
0.0949 0.2846 0.0000
0.1108 0.3323 0.0000
0.1267 0.3800 0.0000
0.1426 0.4277 0.0000
0.1585 0.4754 0.0000
0.1744 0.5231 0.0000
0.1903 0.5708 0.0000
0.2062 0.6185 0.0000
0.2220 0.6661 0.0000
0.2379 0.7138 0.0000
0.2538 0.7615 0.0000
0.2697 0.8092 0.0000
0.2856 0.8569 0.0000
0.3015 0.9046 0.0000
0.3174 0.9523 0.0000
0.3333 1.0000 0.0000
0.0493 0.2959 0.0000
0.0571 0.3429 0.0000
0.0650 0.3898 0.0000
0.0728 0.4367 0.0000
0.0806 0.4837 0.0000
0.0884 0.5306 0.0000
0.0963 0.5776 0.0000
0.1041 0.6245 0.0000
0.1119 0.6714 0.0000
0.1197 0.7184 0.0000
0.1276 0.7653 0.0000
0.1354 0.8122 0.0000
0.1432 0.8592 0.0000
0.1510 0.9061 0.0000
0.1588 0.9531 0.0000
0.1667 1.0000 0.0000
0.0000 0.3000 0.0000
0.0000 0.3467 0.0000
0.0000 0.3933 0.0000
0.0000 0.4400 0.0000
0.0000 0.4867 0.0000
0.0000 0.5333 0.0000
0.0000 0.5800 0.0000
0.0000 0.6267 0.0000
0.0000 0.6733 0.0000
0.0000 0.7200 0.0000
0.0000 0.7667 0.0000
0.0000 0.8133 0.0000
0.0000 0.8600 0.0000
0.0000 0.9067 0.0000
0.0000 0.9533 0.0000
0.0000 1.0000 0.0000
-0.0493 0.2959 0.0000
-0.0571 0.3429 0.0000
-0.0650 0.3898 0.0000
-0.0728 0.4367 0.0000
-0.0806 0.4837 0.0000
-0.0884 0.5306 0.0000
-0.0963 0.5776 0.0000
-0.1041 0.6245 0.0000
-0.1119 0.6714 0.0000
-0.1197 0.7184 0.0000
-0.1276 0.7653 0.0000
-0.1354 0.8122 0.0000
-0.1432 0.8592 0.0000
-0.1510 0.9061 0.0000
-0.1588 0.9531 0.0000
-0.1667 1.0000 0.0000
-0.0949 0.2846 0.0000
-0.1108 0.3323 0.0000
-0.1267 0.3800 0.0000
-0.1426 0.4277 0.0000
-0.1585 0.4754 0.0000
-0.1744 0.5231 0.0000
-0.1903 0.5708 0.0000
-0.2062 0.6185 0.0000
-0.2220 0.6661 0.0000
-0.2379 0.7138 0.0000
-0.2538 0.7615 0.0000
-0.2697 0.8092 0.0000
-0.2856 0.8569 0.0000
-0.3015 0.9046 0.0000
-0.3174 0.9523 0.0000
-0.3333 1.0000 0.0000
-0.1342 0.2683 0.0000
-0.1586 0.3171 0.0000
-0.1829 0.3659 0.0000
-0.2073 0.4147 0.0000
-0.2317 0.4634 0.0000
-0.2561 0.5122 0.0000
-0.2805 0.5610 0.0000
-0.3049 0.6098 0.0000
-0.3293 0.6586 0.0000
-0.3537 0.7073 0.0000
-0.3781 0.7561 0.0000
-0.4024 0.8049 0.0000
-0.4268 0.8537 0.0000
-0.4512 0.9024 0.0000
-0.4756 0.9512 0.0000
-0.5000 1.0000 0.0000
-0.1664 0.2496 0.0000
-0.1998 0.2996 0.0000
-0.2331 0.3497 0.0000
-0.2665 0.3997 0.0000
-0.2998 0.4497 0.0000
-0.3332 0.4997 0.0000
-0.3665 0.5498 0.0000
-0.3999 0.5998 0.0000
-0.4332 0.6498 0.0000
-0.4666 0.6998 0.0000
-0.4999 0.7499 0.0000
-0.5333 0.7999 0.0000
-0.5666 0.8499 0.0000
-0.6000 0.8999 0.0000
-0.6333 0.9500 0.0000
-0.6667 1.0000 0.0000
-0.1921 0.2305 0.0000
-0.2348 0.2818 0.0000
-0.2776 0.3331 0.0000
-0.3203 0.3844 0.0000
-0.3631 0.4357 0.0000
-0.4058 0.4870 0.0000
-0.4486 0.5383 0.0000
-0.4913 0.5896 0.0000
-0.5341 0.6409 0.0000
-0.5768 0.6922 0.0000
-0.6196 0.7435 0.0000
-0.6623 0.7948 0.0000
-0.7051 0.8461 0.0000
-0.7478 0.8974 0.0000
-0.7906 0.9487 0.0000
-0.8333 1.0000 0.0000
-0.2121 0.2121 0.0000
-0.2647 0.2647 0.0000
-0.3172 0.3172 0.0000
-0.3697 0.3697 0.0000
-0.4222 0.4222 0.0000
-0.4748 0.4748 0.0000
-0.5273 0.5273 0.0000
-0.5798 0.5798 0.0000
-0.6323 0.6323 0.0000
-0.6849 0.6849 0.0000
-0.7374 0.7374 0.0000
-0.7899 0.7899 0.0000
-0.8424 0.8424 0.0000
-0.8950 0.8950 0.0000
-0.9475 0.9475 0.0000
-1.0000 1.0000 0.0000
-0.2305 0.1921 0.0000
-0.2818 0.2348 0.0000
-0.3331 0.2776 0.0000
-0.3844 0.3203 0.0000
-0.4357 0.3631 0.0000
-0.4870 0.4058 0.0000
-0.5383 0.4486 0.0000
-0.5896 0.4913 0.0000
-0.6409 0.5341 0.0000
-0.6922 0.5768 0.0000
-0.7435 0.6196 0.0000
-0.7948 0.6623 0.0000
-0.8461 0.7051 0.0000
-0.8974 0.7478 0.0000
-0.9487 0.7906 0.0000
-1.0000 0.8333 0.0000
-0.2496 0.1664 0.0000
-0.2996 0.1998 0.0000
-0.3497 0.2331 0.0000
-0.3997 0.2665 0.0000
-0.4497 0.2998 0.0000
-0.4997 0.3332 0.0000
-0.5498 0.3665 0.0000
-0.5998 0.3999 0.0000
-0.6498 0.4332 0.0000
-0.6998 0.4666 0.0000
-0.7499 0.4999 0.0000
-0.7999 0.5333 0.0000
-0.8499 0.5666 0.0000
-0.8999 0.6000 0.0000
-0.9500 0.6333 0.0000
-1.0000 0.6667 0.0000
-0.2683 0.1342 0.0000
-0.3171 0.1586 0.0000
-0.3659 0.1829 0.0000
-0.4147 0.2073 0.0000
-0.4634 0.2317 0.0000
-0.5122 0.2561 0.0000
-0.5610 0.2805 0.0000
-0.6098 0.3049 0.0000
-0.6586 0.3293 0.0000
-0.7073 0.3537 0.0000
-0.7561 0.3781 0.0000
-0.8049 0.4024 0.0000
-0.8537 0.4268 0.0000
-0.9024 0.4512 0.0000
-0.9512 0.4756 0.0000
-1.0000 0.5000 0.0000
-0.2846 0.0949 0.0000
-0.3323 0.1108 0.0000
-0.3800 0.1267 0.0000
-0.4277 0.1426 0.0000
-0.4754 0.1585 0.0000
-0.5231 0.1744 0.0000
-0.5708 0.1903 0.0000
-0.6185 0.2062 0.0000
-0.6661 0.2220 0.0000
-0.7138 0.2379 0.0000
-0.7615 0.2538 0.0000
-0.8092 0.2697 0.0000
-0.8569 0.2856 0.0000
-0.9046 0.3015 0.0000
-0.9523 0.3174 0.0000
-1.0000 0.3333 0.0000
-0.2959 0.0493 0.0000
-0.3429 0.0571 0.0000
-0.3898 0.0650 0.0000
-0.4367 0.0728 0.0000
-0.4837 0.0806 0.0000
-0.5306 0.0884 0.0000
-0.5776 0.0963 0.0000
-0.6245 0.1041 0.0000
-0.6714 0.1119 0.0000
-0.7184 0.1197 0.0000
-0.7653 0.1276 0.0000
-0.8122 0.1354 0.0000
-0.8592 0.1432 0.0000
-0.9061 0.1510 0.0000
-0.9531 0.1588 0.0000
-1.0000 0.1667 0.0000
-0.3000 0.0000 0.0000
-0.3467 0.0000 0.0000
-0.3933 0.0000 0.0000
-0.4400 0.0000 0.0000
-0.4867 0.0000 0.0000
-0.5333 0.0000 0.0000
-0.5800 0.0000 0.0000
-0.6267 0.0000 0.0000
-0.6733 0.0000 0.0000
-0.7200 0.0000 0.0000
-0.7667 0.0000 0.0000
-0.8133 0.0000 0.0000
-0.8600 0.0000 0.0000
-0.9067 0.0000 0.0000
-0.9533 0.0000 0.0000
-1.0000 0.0000 0.0000
-0.2959 -0.0493 0.0000
-0.3429 -0.0571 0.0000
-0.3898 -0.0650 0.0000
-0.4367 -0.0728 0.0000
-0.4837 -0.0806 0.0000
-0.5306 -0.0884 0.0000
-0.5776 -0.0963 0.0000
-0.6245 -0.1041 0.0000
-0.6714 -0.1119 0.0000
-0.7184 -0.1197 0.0000
-0.7653 -0.1276 0.0000
-0.8122 -0.1354 0.0000
-0.8592 -0.1432 0.0000
-0.9061 -0.1510 0.0000
-0.9531 -0.1588 0.0000
-1.0000 -0.1667 0.0000
-0.2846 -0.0949 0.0000
-0.3323 -0.1108 0.0000
-0.3800 -0.1267 0.0000
-0.4277 -0.1426 0.0000
-0.4754 -0.1585 0.0000
-0.5231 -0.1744 0.0000
-0.5708 -0.1903 0.0000
-0.6185 -0.2062 0.0000
-0.6661 -0.2220 0.0000
-0.7138 -0.2379 0.0000
-0.7615 -0.2538 0.0000
-0.8092 -0.2697 0.0000
-0.8569 -0.2856 0.0000
-0.9046 -0.3015 0.0000
-0.9523 -0.3174 0.0000
-1.0000 -0.3333 0.0000
-0.2683 -0.1342 0.0000
-0.3171 -0.1586 0.0000
-0.3659 -0.1829 0.0000
-0.4147 -0.2073 0.0000
-0.4634 -0.2317 0.0000
-0.5122 -0.2561 0.0000
-0.5610 -0.2805 0.0000
-0.6098 -0.3049 0.0000
-0.6586 -0.3293 0.0000
-0.7073 -0.3537 0.0000
-0.7561 -0.3781 0.0000
-0.8049 -0.4024 0.0000
-0.8537 -0.4268 0.0000
-0.9024 -0.4512 0.0000
-0.9512 -0.4756 0.0000
-1.0000 -0.5000 0.0000
-0.2496 -0.1664 0.0000
-0.2996 -0.1998 0.0000
-0.3497 -0.2331 0.0000
-0.3997 -0.2665 0.0000
-0.4497 -0.2998 0.0000
-0.4997 -0.3332 0.0000
-0.5498 -0.3665 0.0000
-0.5998 -0.3999 0.0000
-0.6498 -0.4332 0.0000
-0.6998 -0.4666 0.0000
-0.7499 -0.4999 0.0000
-0.7999 -0.5333 0.0000
-0.8499 -0.5666 0.0000
-0.8999 -0.6000 0.0000
-0.9500 -0.6333 0.0000
-1.0000 -0.6667 0.0000
-0.2305 -0.1921 0.0000
-0.2818 -0.2348 0.0000
-0.3331 -0.2776 0.0000
-0.3844 -0.3203 0.0000
-0.4357 -0.3631 0.0000
-0.4870 -0.4058 0.0000
-0.5383 -0.4486 0.0000
-0.5896 -0.4913 0.0000
-0.6409 -0.5341 0.0000
-0.6922 -0.5768 0.0000
-0.7435 -0.6196 0.0000
-0.7948 -0.6623 0.0000
-0.8461 -0.7051 0.0000
-0.8974 -0.7478 0.0000
-0.9487 -0.7906 0.0000
-1.0000 -0.8333 0.0000
-0.2121 -0.2121 0.0000
-0.2647 -0.2647 0.0000
-0.3172 -0.3172 0.0000
-0.3697 -0.3697 0.0000
-0.4222 -0.4222 0.0000
-0.4748 -0.4748 0.0000
-0.5273 -0.5273 0.0000
-0.5798 -0.5798 0.0000
-0.6323 -0.6323 0.0000
-0.6849 -0.6849 0.0000
-0.7374 -0.7374 0.0000
-0.7899 -0.7899 0.0000
-0.8424 -0.8424 0.0000
-0.8950 -0.8950 0.0000
-0.9475 -0.9475 0.0000
-1.0000 -1.0000 0.0000
-0.1921 -0.2305 0.0000
-0.2348 -0.2818 0.0000
-0.2776 -0.3331 0.0000
-0.3203 -0.3844 0.0000
-0.3631 -0.4357 0.0000
-0.4058 -0.4870 0.0000
-0.4486 -0.5383 0.0000
-0.4913 -0.5896 0.0000
-0.5341 -0.6409 0.0000
-0.5768 -0.6922 0.0000
-0.6196 -0.7435 0.0000
-0.6623 -0.7948 0.0000
-0.7051 -0.8461 0.0000
-0.7478 -0.8974 0.0000
-0.7906 -0.9487 0.0000
-0.8333 -1.0000 0.0000
-0.1664 -0.2496 0.0000
-0.1998 -0.2996 0.0000
-0.2331 -0.3497 0.0000
-0.2665 -0.3997 0.0000
-0.2998 -0.4497 0.0000
-0.3332 -0.4997 0.0000
-0.3665 -0.5498 0.0000
-0.3999 -0.5998 0.0000
-0.4332 -0.6498 0.0000
-0.4666 -0.6998 0.0000
-0.4999 -0.7499 0.0000
-0.5333 -0.7999 0.0000
-0.5666 -0.8499 0.0000
-0.6000 -0.8999 0.0000
-0.6333 -0.9500 0.0000
-0.6667 -1.0000 0.0000
-0.1342 -0.2683 0.0000
-0.1586 -0.3171 0.0000
-0.1829 -0.3659 0.0000
-0.2073 -0.4147 0.0000
-0.2317 -0.4634 0.0000
-0.2561 -0.5122 0.0000
-0.2805 -0.5610 0.0000
[...]
         <PointData>
            <DataArray Name="fValues" NumberOfComponents="3" format="ascii" type="Float64">
 4.86991e-01  1.12946e-01        00000 
 4.95285e-01  1.04812e-01        00000 
 5.02678e-01  9.49728e-02        00000 
 5.20854e-01  8.46032e-02        00000 
 5.46699e-01  7.44529e-02        00000 
 5.75647e-01  6.49828e-02        00000 
 6.08948e-01  5.51382e-02        00000 
 6.43495e-01  4.51488e-02        00000 
 6.82177e-01  3.55263e-02        00000 
 7.22406e-01  2.61083e-02        00000 
 7.62231e-01  1.33083e-02        00000 
 8.09255e-01 -2.19544e-03        00000 
 8.51657e-01 -9.08959e-03        00000 
 8.96019e-01 -1.83755e-02        00000 
 9.46753e-01 -2.79117e-02        00000 
 9.93434e-01 -3.44970e-02        00000 
 4.81957e-01  1.10018e-01        00000 
 4.89000e-01  1.02537e-01        00000 
 4.95388e-01  9.41819e-02        00000 
 5.09812e-01  8.42303e-02        00000 
 5.30989e-01  7.50721e-02        00000 
 5.55058e-01  6.69173e-02        00000 
 5.83895e-01  5.81290e-02        00000 
 6.14390e-01  4.94134e-02        00000 
 6.47490e-01  4.04890e-02        00000 
 6.83313e-01  3.12898e-02        00000 
 7.16938e-01  2.31302e-02        00000 
 7.54447e-01  1.22595e-02        00000 
 7.93618e-01 -9.44892e-04        00000 
 8.30660e-01 -9.88499e-03        00000 
 8.71078e-01 -1.61693e-02        00000 
 9.12059e-01 -2.73714e-02        00000 
 4.71226e-01  1.06394e-01        00000 
 4.78808e-01  9.93793e-02        00000 
 4.84325e-01  9.19105e-02        00000 
 4.97586e-01  8.28781e-02        00000 
 5.12687e-01  7.42594e-02        00000 
 5.33934e-01  6.71236e-02        00000 
 5.56455e-01  5.88510e-02        00000 
 5.81536e-01  5.10565e-02        00000 
 6.10384e-01  4.37969e-02        00000 
 6.37871e-01  3.52034e-02        00000 
 6.66514e-01  2.67263e-02        00000 
 6.98947e-01  2.01867e-02        00000 
 7.32167e-01  1.05915e-02        00000 
 7.62822e-01 -3.64485e-03        00000 
 7.93119e-01 -1.42539e-02        00000 
 8.29105e-01 -1.96691e-02        00000 
 4.55393e-01  1.01788e-01        00000 
 4.63299e-01  9.55916e-02        00000 
 4.68074e-01  8.72688e-02        00000 
 4.78769e-01  7.93665e-02        00000 
 4.91626e-01  7.17487e-02        00000 
 5.07055e-01  6.51675e-02        00000 
 5.24615e-01  5.69204e-02        00000 
 5.43053e-01  4.94075e-02        00000 
 5.68505e-01  4.36156e-02        00000 
 5.90354e-01  3.70549e-02        00000 
 6.12812e-01  3.09953e-02        00000 
 6.39591e-01  2.41133e-02        00000 
 6.69981e-01  1.58374e-02        00000 
 6.94644e-01  6.61072e-03        00000 
 7.20708e-01 -4.43569e-03        00000 
 7.47097e-01 -1.68052e-02        00000 
 4.33551e-01  9.65485e-02        00000 
 4.39662e-01  9.11765e-02        00000 
 4.46401e-01  8.33205e-02        00000 
 4.54937e-01  7.53533e-02        00000 
 4.66607e-01  6.77579e-02        00000 
 4.77333e-01  6.03195e-02        00000 
 4.88884e-01  5.28040e-02        00000 
 5.06752e-01  4.60058e-02        00000 
 5.26427e-01  4.17585e-02        00000 
 5.44611e-01  3.75935e-02        00000 
 5.61717e-01  3.21799e-02        00000 
 5.81001e-01  2.61927e-02        00000 
 6.01680e-01  1.82394e-02        00000 
 6.21697e-01  9.64422e-03        00000 
 6.42721e-01  1.00882e-03        00000 
 6.62078e-01 -7.38147e-03        00000 
 4.03387e-01  8.78166e-02        00000 
 4.10544e-01  8.49611e-02        00000 
 4.16812e-01  7.90018e-02        00000 
 4.22805e-01  7.09684e-02        00000 
 4.31130e-01  6.35119e-02        00000 
 4.41034e-01  5.67661e-02        00000 
 4.53408e-01  5.05104e-02        00000 
 4.65991e-01  4.51841e-02        00000 
 4.80518e-01  4.04557e-02        00000 
 4.92556e-01  3.61023e-02        00000 
 5.05783e-01  3.18043e-02        00000 
 5.20601e-01  2.56801e-02        00000 
 5.35491e-01  1.86284e-02        00000 
 5.48254e-01  1.12749e-02        00000 
 5.63420e-01  2.83558e-03        00000 
 5.76995e-01 -5.66852e-03        00000 
 3.68118e-01  7.97767e-02        00000 
 3.72392e-01  7.64140e-02        00000 
 3.76984e-01  7.11009e-02        00000 
 3.80978e-01  6.58361e-02        00000 
 3.86596e-01  6.05456e-02        00000 
 3.94947e-01  5.53452e-02        00000 
 4.06356e-01  5.07595e-02        00000 
 4.14731e-01  4.62752e-02        00000 
 4.26702e-01  4.12500e-02        00000 
 4.35139e-01  3.58379e-02        00000 
 4.43700e-01  3.06664e-02        00000 
 4.54114e-01  2.52375e-02        00000 
 4.65149e-01  1.90131e-02        00000 
 4.77496e-01  1.22052e-02        00000 
 4.86067e-01  5.85819e-03        00000 
 4.96355e-01 -8.76385e-04        00000 
 3.28273e-01  7.25543e-02        00000 
 3.31936e-01  6.97214e-02        00000 
 3.36043e-01  6.53009e-02        00000 
 3.38834e-01  6.09905e-02        00000 
 3.41670e-01  5.69616e-02        00000 
 3.48177e-01  5.43208e-02        00000 
 3.54794e-01  5.02216e-02        00000 
 3.61758e-01  4.57588e-02        00000 
 3.69921e-01  4.11677e-02        00000 
 3.77544e-01  3.61712e-02        00000 
 3.83407e-01  3.11261e-02        00000 
 3.88888e-01  2.61991e-02        00000 
 3.95505e-01  2.16776e-02        00000 
 4.00620e-01  1.61608e-02        00000 
 4.08502e-01  9.82478e-03        00000 
 4.15550e-01  5.91030e-03        00000 
 2.92011e-01  6.81307e-02        00000 
 2.91214e-01  6.50451e-02        00000 
 2.94209e-01  6.11655e-02        00000 
 2.99095e-01  5.80326e-02        00000 
 3.03897e-01  5.59807e-02        00000 
 3.06986e-01  5.32011e-02        00000 
 3.09480e-01  5.08296e-02        00000 
 3.11562e-01  4.75314e-02        00000 
 3.14846e-01  4.25231e-02        00000 
 3.19736e-01  3.77141e-02        00000 
 3.24523e-01  3.41767e-02        00000 
 3.24908e-01  3.06483e-02        00000 
 3.25950e-01  2.69110e-02        00000 
 3.28663e-01  2.06675e-02        00000 
 3.27714e-01  1.37926e-02        00000 
 3.29476e-01  7.76738e-03        00000 
 2.57989e-01  6.49422e-02        00000 
 2.56657e-01  6.21048e-02        00000 
 2.59335e-01  5.94447e-02        00000 
 2.64127e-01  5.81622e-02        00000 
 2.66590e-01  5.62312e-02        00000 
 2.66105e-01  5.35838e-02        00000 
 2.64104e-01  5.05524e-02        00000 
 2.64105e-01  4.84142e-02        00000 
 2.67432e-01  4.62931e-02        00000 
 2.68503e-01  4.20413e-02        00000 
 2.65278e-01  3.85840e-02        00000 
 2.59563e-01  3.53333e-02        00000 
 2.57177e-01  3.07293e-02        00000 
 2.57293e-01  2.52985e-02        00000 
 2.51226e-01  1.82924e-02        00000 
 2.44946e-01  1.32809e-02        00000 
 2.27488e-01  6.18167e-02        00000 
 2.25582e-01  5.98695e-02        00000 
 2.28190e-01  5.84310e-02        00000 
 2.31969e-01  5.81501e-02        00000 
 2.31332e-01  5.69462e-02        00000 
 2.28479e-01  5.53444e-02        00000 
 2.26369e-01  5.38259e-02        00000 
 2.25116e-01  5.18531e-02        00000 
 2.21157e-01  4.89627e-02        00000 
 2.13666e-01  4.61879e-02        00000 
 2.07391e-01  4.34276e-02        00000 
 1.98582e-01  3.93268e-02        00000 
 1.92072e-01  3.49871e-02        00000 
 1.85297e-01  3.05211e-02        00000 
 1.71763e-01  2.49187e-02        00000 
 1.64901e-01  2.21077e-02        00000 
 2.00588e-01  5.78951e-02        00000 
 1.96802e-01  5.68653e-02        00000 
 2.00455e-01  5.72514e-02        00000 
 2.04633e-01  5.77367e-02        00000 
 2.02859e-01  5.70206e-02        00000 
 1.99169e-01  5.66319e-02        00000 
 1.93403e-01  5.57431e-02        00000 
 1.86277e-01  5.42578e-02        00000 
 1.75882e-01  5.13787e-02        00000 
 1.66212e-01  4.85202e-02        00000 
 1.55355e-01  4.35339e-02        00000 
 1.42266e-01  4.03901e-02        00000 
 1.30378e-01  3.78478e-02        00000 
 1.10156e-01  3.43726e-02        00000 
 1.01381e-01  3.20365e-02        00000 
 8.91553e-02  2.99179e-02        00000 
 1.79373e-01  5.39551e-02        00000 
 1.75567e-01  5.47802e-02        00000 
 1.81171e-01  5.71292e-02        00000 
 1.82153e-01  5.81345e-02        00000 
 1.78001e-01  5.80873e-02        00000 
 1.71886e-01  5.71184e-02        00000 
 1.61137e-01  5.55165e-02        00000 
 1.50560e-01  5.41076e-02        00000 
 1.38773e-01  5.06857e-02        00000 
 1.24549e-01  4.55213e-02        00000 
 1.07777e-01  4.20748e-02        00000 
 8.65574e-02  3.98037e-02        00000 
 6.56956e-02  3.56836e-02        00000 
 4.86834e-02  3.33506e-02        00000 
 3.00911e-02  3.62257e-02        00000 
 1.80492e-03  3.84445e-02        00000 
 1.60608e-01  5.04537e-02        00000 
 1.57525e-01  5.22891e-02        00000 
 1.62563e-01  5.58379e-02        00000 
 1.64245e-01  5.83540e-02        00000 
 1.60503e-01  5.85576e-02        00000 
 1.54579e-01  5.84177e-02        00000 
 1.43501e-01  5.71075e-02        00000 
 1.29300e-01  5.56313e-02        00000 
 1.19113e-01  5.40086e-02        00000 
 1.07638e-01  5.05602e-02        00000 
 9.46181e-02  4.53945e-02        00000 
 7.66900e-02  4.11782e-02        00000 
 5.76274e-02  3.73815e-02        00000 
 4.50430e-02  3.29924e-02        00000 
 2.29461e-02  2.87497e-02        00000 
 1.21387e-03  2.62838e-02        00000 
 1.40785e-01  4.69770e-02        00000 
 1.40868e-01  4.93896e-02        00000 
 1.42388e-01  5.22590e-02        00000 
 1.43645e-01  5.51206e-02        00000 
 1.40762e-01  5.70988e-02        00000 
 1.35267e-01  5.77800e-02        00000 
 1.24566e-01  5.65990e-02        00000 
 1.15290e-01  5.59974e-02        00000 
 1.06601e-01  5.50292e-02        00000 
 9.45925e-02  5.26355e-02        00000 
 8.27521e-02  4.95976e-02        00000 
 6.60982e-02  4.35395e-02        00000 
 4.90721e-02  3.80606e-02        00000 
 3.17974e-02  3.37278e-02        00000 
 2.30936e-02  2.78145e-02        00000 
 4.75494e-03  2.50595e-02        00000 
 1.21369e-01  4.33362e-02        00000 
 1.22077e-01  4.54593e-02        00000 
 1.21947e-01  4.89334e-02        00000 
 1.20544e-01  5.12134e-02        00000 
 1.18711e-01  5.27635e-02        00000 
 1.14541e-01  5.44819e-02        00000 
 1.07573e-01  5.40640e-02        00000 
 9.96874e-02  5.36627e-02        00000 
 9.05377e-02  5.31562e-02        00000 
 8.06464e-02  5.15274e-02        00000 
 6.90619e-02  4.79517e-02        00000 
 5.47712e-02  4.35367e-02        00000 
 4.54518e-02  3.87011e-02        00000 
 3.21825e-02  3.36536e-02        00000 
 1.83768e-02  2.64028e-02        00000 
 9.06641e-04  2.17684e-02        00000 
 1.02826e-01  3.95071e-02        00000 
 1.01086e-01  4.06971e-02        00000 
 1.00845e-01  4.48517e-02        00000 
 1.00455e-01  4.74138e-02        00000 
 9.61409e-02  4.81478e-02        00000 
 9.36345e-02  4.92607e-02        00000 
 9.00806e-02  5.04186e-02        00000 
 8.27027e-02  5.04253e-02        00000 
 7.51837e-02  4.93833e-02        00000 
 6.60342e-02  4.67058e-02        00000 
 5.71885e-02  4.35966e-02        00000 
 5.05475e-02  3.96492e-02        00000 
 3.91537e-02  3.43046e-02        00000 
 2.61908e-02  2.74265e-02        00000 
 1.32821e-02  2.03893e-02        00000 
-1.55375e-03  1.42395e-02        00000 
 8.25305e-02  3.51011e-02        00000 
 8.04501e-02  3.64735e-02        00000 
 8.14509e-02  3.90647e-02        00000 
 8.21062e-02  4.24756e-02        00000 
 7.82348e-02  4.37812e-02        00000 
 7.47265e-02  4.48661e-02        00000 
 7.12215e-02  4.49385e-02        00000 
 6.72430e-02  4.53406e-02        00000 
 6.25473e-02  4.37818e-02        00000 
 5.57177e-02  4.05272e-02        00000 
 4.64409e-02  3.68382e-02        00000 
 3.84738e-02  3.23417e-02        00000 
 2.93749e-02  2.71216e-02        00000 
 1.97283e-02  2.01905e-02        00000 
 9.51323e-03  1.05379e-02        00000 
-3.82242e-03  4.62693e-03        00000 
 6.47041e-02  3.07473e-02        00000 
 6.30931e-02  3.12588e-02        00000 
 6.43908e-02  3.25223e-02        00000 
 6.74038e-02  3.57078e-02        00000 
 6.48983e-02  3.85827e-02        00000 
 6.20183e-02  3.97707e-02        00000 
 5.81179e-02  3.96597e-02        00000 
 5.45172e-02  3.93094e-02        00000 
 5.08935e-02  3.78813e-02        00000 
 4.36406e-02  3.42161e-02        00000 
 3.59143e-02  3.02543e-02        00000 
 2.64267e-02  2.41831e-02        00000 
 2.12609e-02  1.82971e-02        00000 
 1.64384e-02  1.06865e-02        00000 
 4.12575e-03  4.14935e-04        00000 
-3.02066e-03 -4.00736e-03        00000 
 5.24580e-02  2.63056e-02        00000 
 4.99590e-02  2.65297e-02        00000 
 5.10468e-02  2.78305e-02        00000 
 5.52997e-02  3.00506e-02        00000 
 5.49110e-02  3.15059e-02        00000 
 5.28153e-02  3.33700e-02        00000 
 5.00942e-02  3.36452e-02        00000 
 4.74896e-02  3.26502e-02        00000 
 4.36058e-02  3.12675e-02        00000 
 3.72238e-02  2.78889e-02        00000 
 2.99607e-02  2.26978e-02        00000 
 2.37554e-02  1.75710e-02        00000 
 1.78911e-02  1.25931e-02        00000 
 1.22980e-02  5.26910e-03        00000 
 6.51057e-03 -2.79985e-03        00000 
 1.73767e-03 -7.84962e-03        00000 
 4.59514e-02  2.21622e-02        00000 
 4.24232e-02  2.26332e-02        00000 
 4.27334e-02  2.36391e-02        00000 
 4.65363e-02  2.63945e-02        00000 
 4.70122e-02  2.82626e-02        00000 
 4.56310e-02  2.90289e-02        00000 
 4.32684e-02  2.88835e-02        00000 
 3.86565e-02  2.68518e-02        00000 
 3.51177e-02  2.50549e-02        00000 
 3.06666e-02  2.15235e-02        00000 
 2.56459e-02  1.68461e-02        00000 
 2.11915e-02  1.18177e-02        00000 
 1.24306e-02  5.26054e-03        00000 
 6.82547e-03 -1.22297e-03        00000 
 4.26392e-03 -8.57330e-03        00000 
 1.19130e-03 -1.32276e-02        00000 
 4.35560e-02  1.97039e-02        00000 
 4.21954e-02  2.03875e-02        00000 
 4.28829e-02  2.13916e-02        00000 
 4.43361e-02  2.34428e-02        00000 
 4.45894e-02  2.52624e-02        00000 
 4.09664e-02  2.58577e-02        00000 
 3.89193e-02  2.60688e-02        00000 
 3.45891e-02  2.32558e-02        00000 
 3.15723e-02  2.07372e-02        00000 
 2.69090e-02  1.69397e-02        00000 
 2.14630e-02  1.13159e-02        00000 
 1.57928e-02  5.56897e-03        00000 
 1.02551e-02  1.11680e-04        00000 
 3.53384e-03 -5.47527e-03        00000 
 4.17854e-04 -1.11641e-02        00000 
-1.47056e-05 -1.45549e-02        00000 
 4.50507e-02  1.96334e-02        00000 
 4.29710e-02  1.97212e-02        00000 
 4.43158e-02  2.13137e-02        00000 
 4.61662e-02  2.33340e-02        00000 
 4.52946e-02  2.42007e-02        00000 
 4.07574e-02  2.43019e-02        00000 
 3.63126e-02  2.31997e-02        00000 
 3.11782e-02  1.99636e-02        00000 
 2.70218e-02  1.64984e-02        00000 
 1.83519e-02  1.03858e-02        00000 
 1.46224e-02  5.46237e-03        00000 
 1.08505e-02  1.26894e-03        00000 
 1.24633e-02 -3.15003e-03        00000 
 7.65256e-03 -1.01674e-02        00000 
 2.17500e-05 -1.81661e-02        00000 
 1.02789e-04 -2.01511e-02        00000 
 4.71680e-02  2.04633e-02        00000 
 4.56844e-02  2.05469e-02        00000 
 4.69394e-02  2.23925e-02        00000 
 4.81220e-02  2.39958e-02        00000 
 4.41492e-02  2.38082e-02        00000 
 3.79804e-02  2.25651e-02        00000 
 3.16340e-02  2.06946e-02        00000 
 2.59890e-02  1.61652e-02        00000 
 2.35043e-02  1.19950e-02        00000 
 1.61308e-02  6.01736e-03        00000 
 1.19313e-02  1.07142e-03        00000 
 9.42779e-03 -4.36749e-03        00000 
 5.47406e-03 -1.00580e-02        00000 
 1.28688e-03 -1.80521e-02        00000 
-3.71802e-03 -2.48332e-02        00000 
-2.72595e-03 -2.42716e-02        00000 
 4.93373e-02  2.15412e-02        00000 
 4.87278e-02  2.19390e-02        00000 
 4.89295e-02  2.38200e-02        00000 
 4.96244e-02  2.51053e-02        00000 
 4.30441e-02  2.40736e-02        00000 
 3.58536e-02  2.18773e-02        00000 
 2.85994e-02  1.82632e-02        00000 
 2.62482e-02  1.34464e-02        00000 
 2.02651e-02  6.60183e-03        00000 
 1.09792e-02 -1.32544e-03        00000 
 6.66947e-03 -7.52041e-03        00000 
 4.28130e-03 -1.25960e-02        00000 
 2.24300e-03 -1.86199e-02        00000 
-2.00545e-03 -2.52655e-02        00000 
-3.72148e-03 -2.71028e-02        00000 
-3.62587e-03 -2.77603e-02        00000 
 5.29681e-02  2.32438e-02        00000 
 5.15239e-02  2.31813e-02        00000 
 5.13696e-02  2.47635e-02        00000 
 5.05995e-02  2.59734e-02        00000 
 4.71679e-02  2.53358e-02        00000 
 4.18027e-02  2.46768e-02        00000 
 3.59014e-02  2.14305e-02        00000 
 3.04441e-02  1.78234e-02        00000 
 2.50736e-02  1.20069e-02        00000 
 1.87021e-02  4.40663e-03        00000 
 1.21917e-02 -3.46691e-03        00000 
 1.08959e-02 -8.98693e-03        00000 
 4.21422e-03 -1.55373e-02        00000 
 8.40154e-04 -2.00919e-02        00000 
-1.63541e-03 -2.29296e-02        00000 
-4.49179e-03 -2.70807e-02        00000 
 5.79079e-02  2.51301e-02        00000 
 5.56698e-02  2.53238e-02        00000 
 5.55687e-02  2.65249e-02        00000 
 5.25930e-02  2.70735e-02        00000 
 5.01699e-02  2.66325e-02        00000 
 4.60144e-02  2.59391e-02        00000 
 3.99374e-02  2.44955e-02        00000 
 3.34043e-02  2.00832e-02        00000 
 2.72322e-02  1.57490e-02        00000 
 2.53074e-02  1.17399e-02        00000 
 1.88062e-02  3.76370e-03        00000 
 1.18289e-02 -3.32744e-03        00000 
 7.98064e-03 -9.70245e-03        00000 
 5.87906e-03 -1.44766e-02        00000 
 3.24228e-03 -1.85387e-02        00000 
-1.06037e-03 -2.49891e-02        00000 
 6.60744e-02  2.88789e-02        00000 
 6.22277e-02  2.92099e-02        00000 
 6.06218e-02  2.99650e-02        00000 
 5.77730e-02  3.04101e-02        00000 
 5.64234e-02  3.11150e-02        00000 
 5.28222e-02  3.03168e-02        00000 
 4.86659e-02  2.81533e-02        00000 
 4.14765e-02  2.46875e-02        00000 
 3.34575e-02  2.00083e-02        00000 
 2.82590e-02  1.61502e-02        00000 
 2.49631e-02  1.17478e-02        00000 
 1.68531e-02  5.22284e-03        00000 
 8.31486e-03 -2.36447e-03        00000 
 5.58807e-03 -6.49075e-03        00000 
 2.65694e-03 -1.04021e-02        00000 
-1.01559e-03 -1.44143e-02        00000 
 7.68639e-02  3.45750e-02        00000 
 7.40934e-02  3.49651e-02        00000 
 7.05554e-02  3.46656e-02        00000 
 6.81566e-02  3.49812e-02        00000 
 6.43984e-02  3.56392e-02        00000 
 6.09910e-02  3.53771e-02        00000 
 5.38213e-02  3.30195e-02        00000 
 4.89349e-02  2.99031e-02        00000 
 4.27372e-02  2.57152e-02        00000 
 3.66295e-02  2.09629e-02        00000 
 3.02776e-02  1.64629e-02        00000 
 2.30982e-02  1.16188e-02        00000 
 1.64790e-02  5.43082e-03        00000 
 1.05919e-02 -3.25482e-04        00000 
 5.20539e-03 -3.79628e-03        00000 
-1.85511e-03 -7.40248e-03        00000 
 9.54184e-02  4.26391e-02        00000 
 9.07754e-02  4.22564e-02        00000 
 8.72823e-02  4.17691e-02        00000 
 8.42770e-02  4.16135e-02        00000 
 8.19476e-02  4.18788e-02        00000 
 7.53267e-02  4.12456e-02        00000 
 6.37575e-02  3.83463e-02        00000 
 5.48123e-02  3.54384e-02        00000 
 4.77374e-02  3.12841e-02        00000 
 4.22923e-02  2.65290e-02        00000 
 3.56323e-02  2.03805e-02        00000 
 2.71125e-02  1.51970e-02        00000 
 1.91821e-02  1.13696e-02        00000 
 1.43711e-02  6.49191e-03        00000 
 7.52102e-03  7.33046e-04        00000 
 1.44441e-04 -2.81042e-03        00000 
 1.15775e-01  5.25906e-02        00000 
 1.09163e-01  5.15935e-02        00000 
 1.04940e-01  5.10872e-02        00000 
 1.00388e-01  4.99198e-02        00000 
 9.69018e-02  4.88496e-02        00000 
 9.01477e-02  4.66530e-02        00000 
 7.97319e-02  4.36697e-02        00000 
 6.92855e-02  4.04608e-02        00000 
 5.89537e-02  3.57932e-02        00000 
 5.05633e-02  3.04053e-02        00000 
 4.12476e-02  2.43878e-02        00000 
 3.25412e-02  1.90901e-02        00000 
 2.68990e-02  1.65151e-02        00000 
 1.74540e-02  1.15826e-02        00000 
 7.46606e-03  6.66720e-03        00000 
-2.32101e-03  1.18338e-03        00000 
 1.38597e-01  6.27169e-02        00000 