<?xml version="1.0" encoding="utf-8"?>
<VTKFile byte_order="LittleEndian" type="UnstructuredGrid" version="0.1">
   <UnstructuredGrid>
      <Piece NumberOfCells="720" NumberOfPoints="768">
         <Points>
            <DataArray Name="Points" NumberOfComponents="3" format="ascii" type="Float32">
0.2121 0.2121 0.0000
0.2647 0.2647 0.0000
0.3172 0.3172 0.0000
0.3697 0.3697 0.0000
0.4222 0.4222 0.0000
0.4748 0.4748 0.0000
0.5273 0.5273 0.0000
0.5798 0.5798 0.0000
0.6323 0.6323 0.0000
0.6849 0.6849 0.0000
0.7374 0.7374 0.0000
0.7899 0.7899 0.0000
0.8424 0.8424 0.0000
0.8950 0.8950 0.0000
0.9475 0.9475 0.0000
1.0000 1.0000 0.0000
0.1921 0.2305 0.0000
0.2348 0.2818 0.0000
0.2776 0.3331 0.0000
0.3203 0.3844 0.0000
0.3631 0.4357 0.0000
0.4058 0.4870 0.0000
0.4486 0.5383 0.0000
0.4913 0.5896 0.0000
0.5341 0.6409 0.0000
0.5768 0.6922 0.0000
0.6196 0.7435 0.0000
0.6623 0.7948 0.0000
0.7051 0.8461 0.0000
0.7478 0.8974 0.0000
0.7906 0.9487 0.0000
0.8333 1.0000 0.0000
0.1664 0.2496 0.0000
0.1998 0.2996 0.0000
0.2331 0.3497 0.0000
0.2665 0.3997 0.0000
0.2998 0.4497 0.0000
0.3332 0.4997 0.0000
0.3665 0.5498 0.0000
0.3999 0.5998 0.0000
0.4332 0.6498 0.0000
0.4666 0.6998 0.0000
0.4999 0.7499 0.0000
0.5333 0.7999 0.0000
0.5666 0.8499 0.0000
0.6000 0.8999 0.0000
0.6333 0.9500 0.0000
0.6667 1.0000 0.0000
0.1342 0.2683 0.0000
0.1586 0.3171 0.0000
0.1829 0.3659 0.0000
0.2073 0.4147 0.0000
0.2317 0.4634 0.0000
0.2561 0.5122 0.0000
0.2805 0.5610 0.0000
0.3049 0.6098 0.0000
0.3293 0.6586 0.0000
0.3537 0.7073 0.0000
0.3781 0.7561 0.0000
0.4024 0.8049 0.0000
0.4268 0.8537 0.0000
0.4512 0.9024 0.0000
0.4756 0.9512 0.0000
0.5000 1.0000 0.0000
0.0949 0.2846 0.0000
0.1108 0.3323 0.0000
0.1267 0.3800 0.0000
0.1426 0.4277 0.0000
0.1585 0.4754 0.0000
0.1744 0.5231 0.0000
0.1903 0.5708 0.0000
0.2062 0.6185 0.0000
0.2220 0.6661 0.0000
0.2379 0.7138 0.0000
0.2538 0.7615 0.0000
0.2697 0.8092 0.0000
0.2856 0.8569 0.0000
0.3015 0.9046 0.0000
0.3174 0.9523 0.0000
0.3333 1.0000 0.0000
0.0493 0.2959 0.0000
0.0571 0.3429 0.0000
0.0650 0.3898 0.0000
0.0728 0.4367 0.0000
0.0806 0.4837 0.0000
0.0884 0.5306 0.0000
0.0963 0.5776 0.0000
0.1041 0.6245 0.0000
0.1119 0.6714 0.0000
0.1197 0.7184 0.0000
0.1276 0.7653 0.0000
0.1354 0.8122 0.0000
0.1432 0.8592 0.0000
0.1510 0.9061 0.0000
0.1588 0.9531 0.0000
0.1667 1.0000 0.0000
0.0000 0.3000 0.0000
0.0000 0.3467 0.0000
0.0000 0.3933 0.0000
0.0000 0.4400 0.0000
0.0000 0.4867 0.0000
0.0000 0.5333 0.0000
0.0000 0.5800 0.0000
0.0000 0.6267 0.0000
0.0000 0.6733 0.0000
0.0000 0.7200 0.0000
0.0000 0.7667 0.0000
0.0000 0.8133 0.0000
0.0000 0.8600 0.0000
0.0000 0.9067 0.0000
0.0000 0.9533 0.0000
0.0000 1.0000 0.0000
-0.0493 0.2959 0.0000
-0.0571 0.3429 0.0000
-0.0650 0.3898 0.0000
-0.0728 0.4367 0.0000
-0.0806 0.4837 0.0000
-0.0884 0.5306 0.0000
-0.0963 0.5776 0.0000
-0.1041 0.6245 0.0000
-0.1119 0.6714 0.0000
-0.1197 0.7184 0.0000
-0.1276 0.7653 0.0000
-0.1354 0.8122 0.0000
-0.1432 0.8592 0.0000
-0.1510 0.9061 0.0000
-0.1588 0.9531 0.0000
-0.1667 1.0000 0.0000
-0.0949 0.2846 0.0000
-0.1108 0.3323 0.0000
-0.1267 0.3800 0.0000
-0.1426 0.4277 0.0000
-0.1585 0.4754 0.0000
-0.1744 0.5231 0.0000
-0.1903 0.5708 0.0000
-0.2062 0.6185 0.0000
-0.2220 0.6661 0.0000
-0.2379 0.7138 0.0000
-0.2538 0.7615 0.0000
-0.2697 0.8092 0.0000
-0.2856 0.8569 0.0000
-0.3015 0.9046 0.0000
-0.3174 0.9523 0.0000
-0.3333 1.0000 0.0000
-0.1342 0.2683 0.0000
-0.1586 0.3171 0.0000
-0.1829 0.3659 0.0000
-0.2073 0.4147 0.0000
-0.2317 0.4634 0.0000
-0.2561 0.5122 0.0000
-0.2805 0.5610 0.0000
-0.3049 0.6098 0.0000
-0.3293 0.6586 0.0000
-0.3537 0.7073 0.0000
-0.3781 0.7561 0.0000
-0.4024 0.8049 0.0000
-0.4268 0.8537 0.0000
-0.4512 0.9024 0.0000
-0.4756 0.9512 0.0000
-0.5000 1.0000 0.0000
-0.1664 0.2496 0.0000
-0.1998 0.2996 0.0000
-0.2331 0.3497 0.0000
-0.2665 0.3997 0.0000
-0.2998 0.4497 0.0000
-0.3332 0.4997 0.0000
-0.3665 0.5498 0.0000
-0.3999 0.5998 0.0000
-0.4332 0.6498 0.0000
-0.4666 0.6998 0.0000
-0.4999 0.7499 0.0000
-0.5333 0.7999 0.0000
-0.5666 0.8499 0.0000
-0.6000 0.8999 0.0000
-0.6333 0.9500 0.0000
-0.6667 1.0000 0.0000
-0.1921 0.2305 0.0000
-0.2348 0.2818 0.0000
-0.2776 0.3331 0.0000
-0.3203 0.3844 0.0000
-0.3631 0.4357 0.0000
-0.4058 0.4870 0.0000
-0.4486 0.5383 0.0000
-0.4913 0.5896 0.0000
-0.5341 0.6409 0.0000
-0.5768 0.6922 0.0000
-0.6196 0.7435 0.0000
-0.6623 0.7948 0.0000
-0.7051 0.8461 0.0000
-0.7478 0.8974 0.0000
-0.7906 0.9487 0.0000
-0.8333 1.0000 0.0000
-0.2121 0.2121 0.0000
-0.2647 0.2647 0.0000
-0.3172 0.3172 0.0000
-0.3697 0.3697 0.0000
-0.4222 0.4222 0.0000
-0.4748 0.4748 0.0000
-0.5273 0.5273 0.0000
-0.5798 0.5798 0.0000
-0.6323 0.6323 0.0000
-0.6849 0.6849 0.0000
-0.7374 0.7374 0.0000
-0.7899 0.7899 0.0000
-0.8424 0.8424 0.0000
-0.8950 0.8950 0.0000
-0.9475 0.9475 0.0000
-1.0000 1.0000 0.0000
-0.2305 0.1921 0.0000
-0.2818 0.2348 0.0000
-0.3331 0.2776 0.0000
-0.3844 0.3203 0.0000
-0.4357 0.3631 0.0000
-0.4870 0.4058 0.0000
-0.5383 0.4486 0.0000
-0.5896 0.4913 0.0000
-0.6409 0.5341 0.0000
-0.6922 0.5768 0.0000
-0.7435 0.6196 0.0000
-0.7948 0.6623 0.0000
-0.8461 0.7051 0.0000
-0.8974 0.7478 0.0000
-0.9487 0.7906 0.0000
-1.0000 0.8333 0.0000
-0.2496 0.1664 0.0000
-0.2996 0.1998 0.0000
-0.3497 0.2331 0.0000
-0.3997 0.2665 0.0000
-0.4497 0.2998 0.0000
-0.4997 0.3332 0.0000
-0.5498 0.3665 0.0000
-0.5998 0.3999 0.0000
-0.6498 0.4332 0.0000
-0.6998 0.4666 0.0000
-0.7499 0.4999 0.0000
-0.7999 0.5333 0.0000
-0.8499 0.5666 0.0000
-0.8999 0.6000 0.0000
-0.9500 0.6333 0.0000
-1.0000 0.6667 0.0000
-0.2683 0.1342 0.0000
-0.3171 0.1586 0.0000
-0.3659 0.1829 0.0000
-0.4147 0.2073 0.0000
-0.4634 0.2317 0.0000
-0.5122 0.2561 0.0000
-0.5610 0.2805 0.0000
-0.6098 0.3049 0.0000
-0.6586 0.3293 0.0000
-0.7073 0.3537 0.0000
-0.7561 0.3781 0.0000
-0.8049 0.4024 0.0000
-0.8537 0.4268 0.0000
-0.9024 0.4512 0.0000
-0.9512 0.4756 0.0000
-1.0000 0.5000 0.0000
-0.2846 0.0949 0.0000
-0.3323 0.1108 0.0000
-0.3800 0.1267 0.0000
-0.4277 0.1426 0.0000
-0.4754 0.1585 0.0000
-0.5231 0.1744 0.0000
-0.5708 0.1903 0.0000
-0.6185 0.2062 0.0000
-0.6661 0.2220 0.0000
-0.7138 0.2379 0.0000
-0.7615 0.2538 0.0000
-0.8092 0.2697 0.0000
-0.8569 0.2856 0.0000
-0.9046 0.3015 0.0000
-0.9523 0.3174 0.0000
-1.0000 0.3333 0.0000
-0.2959 0.0493 0.0000
-0.3429 0.0571 0.0000
-0.3898 0.0650 0.0000
-0.4367 0.0728 0.0000
-0.4837 0.0806 0.0000
-0.5306 0.0884 0.0000
-0.5776 0.0963 0.0000
-0.6245 0.1041 0.0000
-0.6714 0.1119 0.0000
-0.7184 0.1197 0.0000
-0.7653 0.1276 0.0000
-0.8122 0.1354 0.0000
-0.8592 0.1432 0.0000
-0.9061 0.1510 0.0000
-0.9531 0.1588 0.0000
-1.0000 0.1667 0.0000
-0.3000 0.0000 0.0000
-0.3467 0.0000 0.0000
-0.3933 0.0000 0.0000
-0.4400 0.0000 0.0000
-0.4867 0.0000 0.0000
-0.5333 0.0000 0.0000
-0.5800 0.0000 0.0000
-0.6267 0.0000 0.0000
-0.6733 0.0000 0.0000
-0.7200 0.0000 0.0000
-0.7667 0.0000 0.0000
-0.8133 0.0000 0.0000
-0.8600 0.0000 0.0000
-0.9067 0.0000 0.0000
-0.9533 0.0000 0.0000
-1.0000 0.0000 0.0000
-0.2959 -0.0493 0.0000
-0.3429 -0.0571 0.0000
-0.3898 -0.0650 0.0000
-0.4367 -0.0728 0.0000
-0.4837 -0.0806 0.0000
-0.5306 -0.0884 0.0000
-0.5776 -0.0963 0.0000
-0.6245 -0.1041 0.0000
-0.6714 -0.1119 0.0000
-0.7184 -0.1197 0.0000
-0.7653 -0.1276 0.0000
-0.8122 -0.1354 0.0000
-0.8592 -0.1432 0.0000
-0.9061 -0.1510 0.0000
-0.9531 -0.1588 0.0000
-1.0000 -0.1667 0.0000
-0.2846 -0.0949 0.0000
-0.3323 -0.1108 0.0000
-0.3800 -0.1267 0.0000
-0.4277 -0.1426 0.0000
-0.4754 -0.1585 0.0000
-0.5231 -0.1744 0.0000
-0.5708 -0.1903 0.0000
-0.6185 -0.2062 0.0000
-0.6661 -0.2220 0.0000
-0.7138 -0.2379 0.0000
-0.7615 -0.2538 0.0000
-0.8092 -0.2697 0.0000
-0.8569 -0.2856 0.0000
-0.9046 -0.3015 0.0000
-0.9523 -0.3174 0.0000
-1.0000 -0.3333 0.0000
-0.2683 -0.1342 0.0000
-0.3171 -0.1586 0.0000
-0.3659 -0.1829 0.0000
-0.4147 -0.2073 0.0000
-0.4634 -0.2317 0.0000
-0.5122 -0.2561 0.0000
-0.5610 -0.2805 0.0000
-0.6098 -0.3049 0.0000
-0.6586 -0.3293 0.0000
-0.7073 -0.3537 0.0000
-0.7561 -0.3781 0.0000
-0.8049 -0.4024 0.0000
-0.8537 -0.4268 0.0000
-0.9024 -0.4512 0.0000
-0.9512 -0.4756 0.0000
-1.0000 -0.5000 0.0000
-0.2496 -0.1664 0.0000
-0.2996 -0.1998 0.0000
-0.3497 -0.2331 0.0000
-0.3997 -0.2665 0.0000
-0.4497 -0.2998 0.0000
-0.4997 -0.3332 0.0000
-0.5498 -0.3665 0.0000
-0.5998 -0.3999 0.0000
-0.6498 -0.4332 0.0000
-0.6998 -0.4666 0.0000
-0.7499 -0.4999 0.0000
-0.7999 -0.5333 0.0000
-0.8499 -0.5666 0.0000
-0.8999 -0.6000 0.0000
-0.9500 -0.6333 0.0000
-1.0000 -0.6667 0.0000
-0.2305 -0.1921 0.0000
-0.2818 -0.2348 0.0000
-0.3331 -0.2776 0.0000
-0.3844 -0.3203 0.0000
-0.4357 -0.3631 0.0000
-0.4870 -0.4058 0.0000
-0.5383 -0.4486 0.0000
-0.5896 -0.4913 0.0000
-0.6409 -0.5341 0.0000
-0.6922 -0.5768 0.0000
-0.7435 -0.6196 0.0000
-0.7948 -0.6623 0.0000
-0.8461 -0.7051 0.0000
-0.8974 -0.7478 0.0000
-0.9487 -0.7906 0.0000
-1.0000 -0.8333 0.0000
-0.2121 -0.2121 0.0000
-0.2647 -0.2647 0.0000
-0.3172 -0.3172 0.0000
-0.3697 -0.3697 0.0000
-0.4222 -0.4222 0.0000
-0.4748 -0.4748 0.0000
-0.5273 -0.5273 0.0000
-0.5798 -0.5798 0.0000
-0.6323 -0.6323 0.0000
-0.6849 -0.6849 0.0000
-0.7374 -0.7374 0.0000
-0.7899 -0.7899 0.0000
-0.8424 -0.8424 0.0000
-0.8950 -0.8950 0.0000
-0.9475 -0.9475 0.0000
-1.0000 -1.0000 0.0000
-0.1921 -0.2305 0.0000
-0.2348 -0.2818 0.0000
-0.2776 -0.3331 0.0000
-0.3203 -0.3844 0.0000
-0.3631 -0.4357 0.0000
-0.4058 -0.4870 0.0000
-0.4486 -0.5383 0.0000
-0.4913 -0.5896 0.0000
-0.5341 -0.6409 0.0000
-0.5768 -0.6922 0.0000
-0.6196 -0.7435 0.0000
-0.6623 -0.7948 0.0000
-0.7051 -0.8461 0.0000
-0.7478 -0.8974 0.0000
-0.7906 -0.9487 0.0000
-0.8333 -1.0000 0.0000
-0.1664 -0.2496 0.0000
-0.1998 -0.2996 0.0000
-0.2331 -0.3497 0.0000
-0.2665 -0.3997 0.0000
-0.2998 -0.4497 0.0000
-0.3332 -0.4997 0.0000
-0.3665 -0.5498 0.0000
-0.3999 -0.5998 0.0000
-0.4332 -0.6498 0.0000
-0.4666 -0.6998 0.0000
-0.4999 -0.7499 0.0000
-0.5333 -0.7999 0.0000
-0.5666 -0.8499 0.0000
-0.6000 -0.8999 0.0000
-0.6333 -0.9500 0.0000
-0.6667 -1.0000 0.0000
-0.1342 -0.2683 0.0000
-0.1586 -0.3171 0.0000
-0.1829 -0.3659 0.0000
-0.2073 -0.4147 0.0000
-0.2317 -0.4634 0.0000
-0.2561 -0.5122 0.0000
-0.2805 -0.5610 0.0000
[...]
         <PointData>
            <DataArray Name="fValues" NumberOfComponents="3" format="ascii" type="Float64">
 1.13192e-01  4.84811e-01        00000 
 1.08140e-01  4.93653e-01        00000 
 1.01237e-01  5.01785e-01        00000 
 9.16440e-02  5.18584e-01        00000 
 8.00507e-02  5.43616e-01        00000 
 7.11771e-02  5.73175e-01        00000 
 6.35013e-02  6.09314e-01        00000 
 5.31314e-02  6.46105e-01        00000 
 4.00128e-02  6.82963e-01        00000 
 2.76675e-02  7.19462e-01        00000 
 1.32330e-02  7.59785e-01        00000 
-1.73091e-03  8.07434e-01        00000 
-8.28968e-03  8.48082e-01        00000 
-1.66309e-02  8.93399e-01        00000 
-2.46356e-02  9.46033e-01        00000 
-3.27116e-02  9.90850e-01        00000 
 1.17554e-01  4.87884e-01        00000 
 1.12090e-01  4.94947e-01        00000 
 1.05600e-01  5.01026e-01        00000 
 9.69132e-02  5.15017e-01        00000 
 8.77748e-02  5.35400e-01        00000 
 7.90550e-02  5.57740e-01        00000 
 6.94133e-02  5.86403e-01        00000 
 6.04863e-02  6.18784e-01        00000 
 4.98755e-02  6.52859e-01        00000 
 3.83440e-02  6.87987e-01        00000 
 2.76333e-02  7.18938e-01        00000 
 1.60574e-02  7.56376e-01        00000 
 2.54704e-03  7.92792e-01        00000 
-8.01227e-03  8.28532e-01        00000 
-1.55351e-02  8.69602e-01        00000 
-2.77543e-02  9.15311e-01        00000 
 1.21219e-01  4.85800e-01        00000 
 1.15962e-01  4.93620e-01        00000 
 1.09652e-01  4.97894e-01        00000 
 1.02001e-01  5.11142e-01        00000 
 9.30809e-02  5.24878e-01        00000 
 8.30343e-02  5.42323e-01        00000 
 7.32933e-02  5.63847e-01        00000 
 6.43416e-02  5.89139e-01        00000 
 5.69479e-02  6.18751e-01        00000 
 4.71840e-02  6.46589e-01        00000 
 3.64145e-02  6.74513e-01        00000 
 2.73460e-02  7.04342e-01        00000 
 1.64926e-02  7.35336e-01        00000 
 2.55418e-03  7.68495e-01        00000 
-1.17365e-02  7.96784e-01        00000 
-2.05128e-02  8.34934e-01        00000 
 1.23852e-01  4.79712e-01        00000 
 1.19739e-01  4.88093e-01        00000 
 1.13481e-01  4.92840e-01        00000 
 1.02998e-01  4.99669e-01        00000 
 9.29273e-02  5.09105e-01        00000 
 8.48105e-02  5.22328e-01        00000 
 7.51480e-02  5.39700e-01        00000 
 6.56909e-02  5.56879e-01        00000 
 5.82325e-02  5.81777e-01        00000 
 5.17590e-02  6.03554e-01        00000 
 4.32465e-02  6.24521e-01        00000 
 3.39908e-02  6.50042e-01        00000 
 2.30682e-02  6.77477e-01        00000 
 9.77866e-03  6.97356e-01        00000 
-3.90554e-03  7.21825e-01        00000 
-1.83329e-02  7.51548e-01        00000 
 1.26135e-01  4.68623e-01        00000 
 1.21223e-01  4.73997e-01        00000 
 1.12026e-01  4.78036e-01        00000 
 1.01354e-01  4.82466e-01        00000 
 9.14117e-02  4.89711e-01        00000 
 8.26061e-02  4.98117e-01        00000 
 7.45027e-02  5.09809e-01        00000 
 6.53233e-02  5.24680e-01        00000 
 5.78296e-02  5.41629e-01        00000 
 5.29875e-02  5.59107e-01        00000 
 4.60313e-02  5.75737e-01        00000 
 3.64047e-02  5.92347e-01        00000 
 2.50726e-02  6.09012e-01        00000 
 1.37510e-02  6.25208e-01        00000 
 1.84882e-03  6.42569e-01        00000 
-9.32784e-03  6.62922e-01        00000 
 1.23392e-01  4.50034e-01        00000 
 1.17088e-01  4.51976e-01        00000 
 1.08399e-01  4.53048e-01        00000 
 9.82197e-02  4.55873e-01        00000 
 8.85735e-02  4.61119e-01        00000 
 8.00092e-02  4.68010e-01        00000 
 7.19639e-02  4.77852e-01        00000 
 6.39126e-02  4.87153e-01        00000 
 5.70352e-02  4.99083e-01        00000 
 5.03608e-02  5.09140e-01        00000 
 4.16357e-02  5.19214e-01        00000 
 3.15229e-02  5.31359e-01        00000 
 2.22346e-02  5.42471e-01        00000 
 1.47437e-02  5.53571e-01        00000 
 5.48467e-03  5.65718e-01        00000 
-4.35167e-03  5.79179e-01        00000 
 1.18594e-01  4.23820e-01        00000 
 1.09938e-01  4.22540e-01        00000 
 1.00103e-01  4.21484e-01        00000 
 9.10563e-02  4.19050e-01        00000 
 8.29447e-02  4.18921e-01        00000 
 7.54685e-02  4.23244e-01        00000 
 6.87683e-02  4.32014e-01        00000 
 6.20875e-02  4.37491e-01        00000 
 5.40858e-02  4.46885e-01        00000 
 4.66412e-02  4.52689e-01        00000 
 3.94267e-02  4.58719e-01        00000 
 3.17452e-02  4.67014e-01        00000 
 2.15125e-02  4.73953e-01        00000 
 1.23688e-02  4.83223e-01        00000 
 6.48734e-03  4.90868e-01        00000 
 1.51007e-03  5.00204e-01        00000 
 1.12899e-01  3.91950e-01        00000 
 1.04017e-01  3.88267e-01        00000 
 9.38774e-02  3.84698e-01        00000 
 8.42953e-02  3.80062e-01        00000 
 7.68519e-02  3.75756e-01        00000 
 7.09129e-02  3.75339e-01        00000 
 6.42046e-02  3.77896e-01        00000 
 5.68288e-02  3.82151e-01        00000 
 4.96966e-02  3.88738e-01        00000 
 4.31655e-02  3.93940e-01        00000 
 3.66094e-02  3.96543e-01        00000 
 2.83231e-02  3.98911e-01        00000 
 2.19296e-02  4.02034e-01        00000 
 1.51777e-02  4.05789e-01        00000 
 8.46598e-03  4.14943e-01        00000 
 5.44723e-03  4.18237e-01        00000 
 1.09527e-01  3.59648e-01        00000 
 1.00121e-01  3.50982e-01        00000 
 9.00393e-02  3.45362e-01        00000 
 8.07064e-02  3.40752e-01        00000 
 7.28084e-02  3.37498e-01        00000 
 6.60238e-02  3.33302e-01        00000 
 6.03205e-02  3.30167e-01        00000 
 5.38881e-02  3.27860e-01        00000 
 4.69740e-02  3.29842e-01        00000 
 4.07800e-02  3.34000e-01        00000 
 3.42362e-02  3.35048e-01        00000 
 2.78091e-02  3.31020e-01        00000 
 2.28960e-02  3.28617e-01        00000 
 1.78278e-02  3.32909e-01        00000 
 1.19148e-02  3.33436e-01        00000 
 7.40374e-03  3.33683e-01        00000 
 1.08487e-01  3.28642e-01        00000 
 9.86669e-02  3.19105e-01        00000 
 8.77088e-02  3.10686e-01        00000 
 7.83506e-02  3.04250e-01        00000 
 7.03079e-02  2.97308e-01        00000 
 6.40187e-02  2.90298e-01        00000 
 5.79677e-02  2.83286e-01        00000 
 5.23992e-02  2.77943e-01        00000 
 4.74587e-02  2.77236e-01        00000 
 4.24390e-02  2.76958e-01        00000 
 3.63423e-02  2.71321e-01        00000 
 3.18149e-02  2.63337e-01        00000 
 2.74116e-02  2.58527e-01        00000 
 2.20878e-02  2.58188e-01        00000 
 1.72955e-02  2.56763e-01        00000 
 1.54075e-02  2.53529e-01        00000 
 1.07738e-01  3.00260e-01        00000 
 9.77590e-02  2.88670e-01        00000 
 8.63779e-02  2.78273e-01        00000 
 7.66857e-02  2.69105e-01        00000 
 6.94305e-02  2.58292e-01        00000 
 6.36480e-02  2.48394e-01        00000 
 5.91758e-02  2.41090e-01        00000 
 5.48276e-02  2.35760e-01        00000 
 4.91467e-02  2.27330e-01        00000 
 4.36814e-02  2.16318e-01        00000 
 3.88279e-02  2.07107e-01        00000 
 3.40221e-02  1.98908e-01        00000 
 3.22488e-02  1.92511e-01        00000 
 2.86041e-02  1.87528e-01        00000 
 2.30449e-02  1.79012e-01        00000 
 2.18636e-02  1.72200e-01        00000 
 1.05550e-01  2.74809e-01        00000 
 9.54780e-02  2.59355e-01        00000 
 8.39468e-02  2.47767e-01        00000 
 7.37780e-02  2.37624e-01        00000 
 6.72078e-02  2.25651e-01        00000 
 6.18920e-02  2.14945e-01        00000 
 5.75669e-02  2.04319e-01        00000 
 5.37377e-02  1.92536e-01        00000 
 4.80405e-02  1.78369e-01        00000 
 4.41458e-02  1.66212e-01        00000 
 4.14098e-02  1.57444e-01        00000 
 3.87093e-02  1.44575e-01        00000 
 3.42332e-02  1.32793e-01        00000 
 2.92798e-02  1.12942e-01        00000 
 3.08259e-02  1.02320e-01        00000 
 2.83534e-02  9.04912e-02        00000 
 1.01066e-01  2.52979e-01        00000 
 9.39528e-02  2.37312e-01        00000 
 8.15938e-02  2.23796e-01        00000 
 7.22890e-02  2.09491e-01        00000 
 6.60199e-02  1.95429e-01        00000 
 6.02983e-02  1.84031e-01        00000 
 5.50661e-02  1.69296e-01        00000 
 4.93260e-02  1.53857e-01        00000 
 4.62873e-02  1.40734e-01        00000 
 4.54523e-02  1.28477e-01        00000 
 4.30750e-02  1.13544e-01        00000 
 3.80473e-02  8.63847e-02        00000 
 3.09208e-02  6.44364e-02        00000 
 2.98014e-02  4.52846e-02        00000 
 2.94270e-02  2.73102e-02        00000 
 3.66195e-02  1.27317e-03        00000 
 9.62409e-02  2.32493e-01        00000 
 9.24367e-02  2.19198e-01        00000 
 8.38028e-02  2.08543e-01        00000 
 7.52698e-02  1.94273e-01        00000 
 6.91733e-02  1.80489e-01        00000 
 6.42583e-02  1.68347e-01        00000 
 5.92888e-02  1.52968e-01        00000 
 5.38923e-02  1.35082e-01        00000 
 4.90139e-02  1.22195e-01        00000 
 4.73737e-02  1.11125e-01        00000 
 4.51606e-02  9.94705e-02        00000 
 4.28146e-02  8.11634e-02        00000 
 3.65427e-02  5.55412e-02        00000 
 3.19079e-02  4.11954e-02        00000 
 2.76153e-02  2.04924e-02        00000 
 2.96650e-02  3.58834e-03        00000 
 9.06482e-02  2.09529e-01        00000 
 8.83265e-02  2.01453e-01        00000 
 8.30741e-02  1.90989e-01        00000 
 7.61832e-02  1.78252e-01        00000 
 7.08328e-02  1.63705e-01        00000 
 6.69442e-02  1.51563e-01        00000 
 6.26758e-02  1.36823e-01        00000 
 5.87107e-02  1.23492e-01        00000 
 5.32424e-02  1.11365e-01        00000 
 4.97164e-02  9.90349e-02        00000 
 4.68179e-02  8.65850e-02        00000 
 4.25786e-02  6.94744e-02        00000 
 3.67661e-02  5.11984e-02        00000 
 2.57249e-02  2.75240e-02        00000 
 2.01880e-02  2.03688e-02        00000 
 2.13262e-02  5.48669e-03        00000 
 8.41152e-02  1.86259e-01        00000 
 8.27834e-02  1.80652e-01        00000 
 7.97357e-02  1.70424e-01        00000 
 7.62402e-02  1.58826e-01        00000 
 7.13983e-02  1.46375e-01        00000 
 6.70428e-02  1.33269e-01        00000 
 6.26864e-02  1.21259e-01        00000 
 5.79459e-02  1.09176e-01        00000 
 5.33656e-02  9.61256e-02        00000 
 4.95293e-02  8.48687e-02        00000 
 4.63327e-02  7.31332e-02        00000 
 4.32849e-02  5.77093e-02        00000 
 3.66911e-02  4.64294e-02        00000 
 2.85446e-02  2.84182e-02        00000 
 1.86729e-02  1.52002e-02        00000 
 1.75373e-02 -3.05176e-03        00000 
 7.50358e-02  1.63109e-01        00000 
 7.51096e-02  1.56333e-01        00000 
 7.53984e-02  1.47989e-01        00000 
 7.51300e-02  1.40446e-01        00000 
 7.25240e-02  1.29672e-01        00000 
 6.69066e-02  1.18583e-01        00000 
 6.26192e-02  1.08049e-01        00000 
 5.72478e-02  9.58098e-02        00000 
 5.19940e-02  8.41710e-02        00000 
 4.74417e-02  7.31449e-02        00000 
 4.27748e-02  6.26232e-02        00000 
 3.69407e-02  5.41133e-02        00000 
 3.15744e-02  3.94016e-02        00000 
 2.49095e-02  2.31800e-02        00000 
 1.50806e-02  8.96315e-03        00000 
 1.31093e-02 -3.40372e-03        00000 
 6.45942e-02  1.37637e-01        00000 
 6.62977e-02  1.32148e-01        00000 
 6.77363e-02  1.28517e-01        00000 
 6.79171e-02  1.21855e-01        00000 
 6.70377e-02  1.13214e-01        00000 
 6.48921e-02  1.04299e-01        00000 
 6.02635e-02  9.53014e-02        00000 
 5.45865e-02  8.49626e-02        00000 
 5.02601e-02  7.63843e-02        00000 
 4.52240e-02  6.62364e-02        00000 
 3.98896e-02  5.40144e-02        00000 
 3.32102e-02  4.33138e-02        00000 
 2.74540e-02  3.13376e-02        00000 
 2.08564e-02  1.73266e-02        00000 
 1.23342e-02  1.02957e-02        00000 
 8.59835e-03 -2.41163e-04        00000 
 5.45425e-02  1.13945e-01        00000 
 5.51911e-02  1.10179e-01        00000 
 5.56278e-02  1.08673e-01        00000 
 5.60410e-02  1.05802e-01        00000 
 5.76968e-02  9.89641e-02        00000 
 5.60257e-02  9.21932e-02        00000 
 5.07009e-02  8.31230e-02        00000 
 4.56261e-02  7.33367e-02        00000 
 4.30045e-02  6.61557e-02        00000 
 4.02315e-02  5.72944e-02        00000 
 3.68604e-02  4.74916e-02        00000 
 3.18171e-02  3.64063e-02        00000 
 2.72733e-02  3.07363e-02        00000 
 2.03645e-02  2.24663e-02        00000 
 6.56703e-03  6.65979e-03        00000 
 2.17094e-03  9.39182e-04        00000 
 4.43256e-02  9.54166e-02        00000 
 4.40832e-02  9.14256e-02        00000 
 4.45529e-02  8.98212e-02        00000 
 4.46180e-02  9.04747e-02        00000 
 4.49565e-02  8.74399e-02        00000 
 4.33293e-02  8.02879e-02        00000 
 4.01696e-02  7.40378e-02        00000 
 3.58127e-02  6.57956e-02        00000 
 3.32386e-02  5.74753e-02        00000 
 3.09975e-02  4.95641e-02        00000 
 2.65142e-02  4.01514e-02        00000 
 2.19764e-02  3.33581e-02        00000 
 1.87661e-02  2.66060e-02        00000 
 1.04961e-02  1.72194e-02        00000 
-9.70648e-04  4.89866e-03        00000 
-6.04511e-03 -1.93561e-03        00000 
 3.43945e-02  8.15950e-02        00000 
 3.35059e-02  7.62950e-02        00000 
 3.27736e-02  7.42822e-02        00000 
 3.30977e-02  7.49478e-02        00000 
 3.41903e-02  7.29189e-02        00000 
 3.37317e-02  6.92480e-02        00000 
 3.21179e-02  6.32203e-02        00000 
 2.95151e-02  5.45982e-02        00000 
 2.63021e-02  4.64179e-02        00000 
 2.08904e-02  3.84694e-02        00000 
 1.67434e-02  3.21559e-02        00000 
 1.25636e-02  2.73204e-02        00000 
 7.35178e-03  1.90931e-02        00000 
 3.88750e-04  1.11274e-02        00000 
-6.94661e-03  4.06401e-03        00000 
-8.58196e-03 -2.98098e-03        00000 
 2.85574e-02  7.10307e-02        00000 
 2.65331e-02  6.70193e-02        00000 
 2.53268e-02  6.57889e-02        00000 
 2.45655e-02  6.43866e-02        00000 
 2.48498e-02  6.29400e-02        00000 
 2.42643e-02  5.89172e-02        00000 
 2.19389e-02  5.24641e-02        00000 
 1.81606e-02  4.50578e-02        00000 
 1.53505e-02  3.90963e-02        00000 
 1.13915e-02  3.23400e-02        00000 
 7.83309e-03  2.81095e-02        00000 
 3.04092e-03  2.06092e-02        00000 
-8.11698e-04  1.41562e-02        00000 
-4.92156e-03  6.42838e-03        00000 
-1.06976e-02 -3.87748e-05        00000 
-1.61236e-02 -4.61689e-03        00000 
 2.54101e-02  6.25433e-02        00000 
 2.23717e-02  5.89660e-02        00000 
 2.13492e-02  5.89103e-02        00000 
 1.96555e-02  5.84875e-02        00000 
 1.84517e-02  5.66419e-02        00000 
 1.77824e-02  5.22753e-02        00000 
 1.47548e-02  4.45866e-02        00000 
 1.11196e-02  3.75926e-02        00000 
 7.71948e-03  3.25470e-02        00000 
 3.20557e-03  2.51757e-02        00000 
 4.03014e-04  2.07639e-02        00000 
-2.79353e-03  1.39344e-02        00000 
-5.77287e-03  1.16000e-02        00000 
-1.14908e-02  6.49387e-03        00000 
-1.89231e-02 -3.06287e-03        00000 
-2.56770e-02 -4.45538e-03        00000 
 2.17257e-02  5.47018e-02        00000 
 2.00761e-02  5.32641e-02        00000 
 1.90977e-02  5.41075e-02        00000 
 1.77428e-02  5.42917e-02        00000 
 1.54886e-02  5.04323e-02        00000 
 1.39756e-02  4.43727e-02        00000 
 1.15943e-02  3.58892e-02        00000 
 8.07837e-03  2.98633e-02        00000 
 5.23686e-03  2.72876e-02        00000 
 6.02035e-04  1.94196e-02        00000 
-3.65464e-03  1.34595e-02        00000 
-8.70285e-03  8.45871e-03        00000 
-8.93582e-03  6.02836e-03        00000 
-1.28975e-02  1.40628e-03        00000 
-2.21277e-02 -2.95244e-03        00000 
-3.07709e-02 -4.61085e-03        00000 
 1.84597e-02  4.85854e-02        00000 
 1.63309e-02  4.88468e-02        00000 
 1.70546e-02  4.98874e-02        00000 
 1.70734e-02  5.01880e-02        00000 
 1.52114e-02  4.49823e-02        00000 
 1.25439e-02  3.73524e-02        00000 
 9.91985e-03  2.98077e-02        00000 
 6.40658e-03  2.76470e-02        00000 
 8.01175e-04  2.15054e-02        00000 
-4.18773e-03  1.19982e-02        00000 
-8.97732e-03  5.76250e-03        00000 
-9.31094e-03  4.27117e-03        00000 
-1.48813e-02  1.81761e-03        00000 
-2.19546e-02 -1.61887e-03        00000 
-2.85033e-02 -3.24438e-03        00000 
-3.58710e-02 -4.44056e-03        00000 
 1.65442e-02  4.47920e-02        00000 
 1.37725e-02  4.36318e-02        00000 
 1.48356e-02  4.55850e-02        00000 
 1.50511e-02  4.51827e-02        00000 
 1.38985e-02  4.31232e-02        00000 
 1.35675e-02  3.94706e-02        00000 
 1.14381e-02  3.28814e-02        00000 
 9.61582e-03  2.72991e-02        00000 
 6.79978e-03  2.38886e-02        00000 
 2.12023e-03  1.87862e-02        00000 
-3.50216e-03  1.21296e-02        00000 
-7.52493e-03  9.06733e-03        00000 
-1.38220e-02  1.52428e-03        00000 
-1.70256e-02  1.59536e-03        00000 
-2.20937e-02 -4.99215e-04        00000 
-2.56274e-02 -5.34361e-03        00000 
 1.52106e-02  4.14904e-02        00000 
 1.25699e-02  3.90805e-02        00000 
 1.31451e-02  4.02633e-02        00000 
 1.39587e-02  3.99798e-02        00000 
 1.35228e-02  4.04760e-02        00000 
 1.23197e-02  3.73315e-02        00000 
 1.16399e-02  3.32320e-02        00000 
 8.01429e-03  2.71208e-02        00000 
 6.82828e-03  2.21594e-02        00000 
 5.94260e-03  2.06724e-02        00000 
 1.63080e-03  1.69418e-02        00000 
-3.01303e-03  1.04868e-02        00000 
-6.88179e-03  7.00539e-03        00000 
-9.19521e-03  4.37307e-03        00000 
-1.63422e-02  1.67006e-03        00000 
-2.26433e-02  9.56452e-04        00000 
 1.76141e-02  4.26303e-02        00000 
 1.52484e-02  3.78499e-02        00000 
 1.47637e-02  3.75778e-02        00000 
 1.63982e-02  3.84978e-02        00000 
 1.81007e-02  4.00843e-02        00000 
 1.75191e-02  3.88368e-02        00000 
 1.61174e-02  3.66692e-02        00000 
 1.29139e-02  3.10453e-02        00000 
 1.01344e-02  2.43363e-02        00000 
 8.99583e-03  1.99229e-02        00000 
 6.04030e-03  1.74392e-02        00000 
 1.58381e-03  1.13817e-02        00000 
-3.48558e-03  7.11458e-03        00000 
-6.52612e-03  4.59921e-03        00000 
-1.09347e-02  6.77396e-04        00000 
-1.38489e-02 -1.23170e-03        00000 
 2.34245e-02  4.65196e-02        00000 
 2.26186e-02  4.41961e-02        00000 
 2.18835e-02  4.31832e-02        00000 
 2.27106e-02  4.32332e-02        00000 
 2.46557e-02  4.19436e-02        00000 
 2.62021e-02  4.17923e-02        00000 
 2.52150e-02  3.78337e-02        00000 
 2.24610e-02  3.46716e-02        00000 
 1.90595e-02  3.05179e-02        00000 
 1.54879e-02  2.56945e-02        00000 
 1.35287e-02  2.20608e-02        00000 
 1.04480e-02  1.72555e-02        00000 
 4.12362e-03  1.14139e-02        00000 
-5.84691e-04  8.63790e-03        00000 
-4.36088e-03  5.55607e-03        00000 
-1.17402e-02 -2.35277e-03        00000 
 2.56347e-02  5.36844e-02        00000 
 2.77430e-02  5.19820e-02        00000 
 3.11469e-02  5.29228e-02        00000 
 3.49121e-02  5.40398e-02        00000 
 3.79935e-02  5.53555e-02        00000 
 3.89816e-02  5.17197e-02        00000 
 3.70550e-02  4.42980e-02        00000 
 3.40309e-02  3.76194e-02        00000 
 3.07516e-02  3.30214e-02        00000 
 2.68459e-02  3.06540e-02        00000 
 2.19897e-02  2.72223e-02        00000 
 1.70906e-02  2.03217e-02        00000 
 1.38870e-02  1.37260e-02        00000 
 9.31850e-03  1.05826e-02        00000 
 2.32139e-03  6.45747e-03        00000 
-7.76765e-03 -1.40034e-03        00000 
 3.08408e-02  6.37170e-02        00000 
 3.38231e-02  6.02469e-02        00000 
 3.81808e-02  6.08005e-02        00000 
 4.25137e-02  6.18267e-02        00000 
 4.60671e-02  6.36142e-02        00000 
 4.68882e-02  6.23695e-02        00000 
 4.61165e-02  5.67641e-02        00000 
 4.50858e-02  5.06119e-02        00000 
 4.28086e-02  4.49125e-02        00000 
 3.91507e-02  4.07943e-02        00000 
 3.32563e-02  3.45415e-02        00000 
 2.72704e-02  2.78953e-02        00000 
 2.30256e-02  2.23576e-02        00000 
 1.64882e-02  1.47127e-02        00000 
 7.88928e-03  4.11089e-03        00000 
-2.16477e-04 -2.69983e-03        00000 
 3.70973e-02  7.83308e-02        00000 