<?xml version="1.0" encoding="utf-8"?>
<VTKFile byte_order="LittleEndian" type="UnstructuredGrid" version="0.1">
   <UnstructuredGrid>
      <Piece NumberOfCells="504" NumberOfPoints="735">
         <Points>
            <DataArray Name="Points" NumberOfComponents="3" format="ascii" type="Float32">
0.0000 0.0000 0.0000
0.0000 0.1667 0.0000
0.0000 0.3333 0.0000
0.0000 0.5000 0.0000
0.0000 0.6667 0.0000
0.0000 0.8333 0.0000
0.0000 1.0000 0.0000
0.1429 0.0000 0.0000
0.1429 0.1667 0.0000
0.1429 0.3333 0.0000
0.1429 0.5000 0.0000
0.1429 0.6667 0.0000
0.1429 0.8333 0.0000
0.1429 1.0000 0.0000
0.2857 0.0000 0.0000
0.2857 0.1667 0.0000
0.2857 0.3333 0.0000
0.2857 0.5000 0.0000
0.2857 0.6667 0.0000
0.2857 0.8333 0.0000
0.2857 1.0000 0.0000
0.4286 0.0000 0.0000
0.4286 0.1667 0.0000
0.4286 0.3333 0.0000
0.4286 0.5000 0.0000
0.4286 0.6667 0.0000
0.4286 0.8333 0.0000
0.4286 1.0000 0.0000
0.5714 0.0000 0.0000
0.5714 0.1667 0.0000
0.5714 0.3333 0.0000
0.5714 0.5000 0.0000
0.5714 0.6667 0.0000
0.5714 0.8333 0.0000
0.5714 1.0000 0.0000
0.7143 0.0000 0.0000
0.7143 0.1667 0.0000
0.7143 0.3333 0.0000
0.7143 0.5000 0.0000
0.7143 0.6667 0.0000
0.7143 0.8333 0.0000
0.7143 1.0000 0.0000
0.8571 0.0000 0.0000
0.8571 0.1667 0.0000
0.8571 0.3333 0.0000
0.8571 0.5000 0.0000
0.8571 0.6667 0.0000
0.8571 0.8333 0.0000
0.8571 1.0000 0.0000
1.0000 0.0000 0.0000
1.0000 0.1667 0.0000
1.0000 0.3333 0.0000
1.0000 0.5000 0.0000
1.0000 0.6667 0.0000
1.0000 0.8333 0.0000
1.0000 1.0000 0.0000
1.1429 0.0000 0.0000
1.1429 0.1667 0.0000
1.1429 0.3333 0.0000
1.1429 0.5000 0.0000
1.1429 0.6667 0.0000
1.1429 0.8333 0.0000
1.1429 1.0000 0.0000
1.2857 0.0000 0.0000
1.2857 0.1667 0.0000
1.2857 0.3333 0.0000
1.2857 0.5000 0.0000
1.2857 0.6667 0.0000
1.2857 0.8333 0.0000
1.2857 1.0000 0.0000
1.4286 0.0000 0.0000
1.4286 0.1667 0.0000
1.4286 0.3333 0.0000
1.4286 0.5000 0.0000
1.4286 0.6667 0.0000
1.4286 0.8333 0.0000
1.4286 1.0000 0.0000
1.5714 0.0000 0.0000
1.5714 0.1667 0.0000
1.5714 0.3333 0.0000
1.5714 0.5000 0.0000
1.5714 0.6667 0.0000
1.5714 0.8333 0.0000
1.5714 1.0000 0.0000
1.7143 0.0000 0.0000
1.7143 0.1667 0.0000
1.7143 0.3333 0.0000
1.7143 0.5000 0.0000
1.7143 0.6667 0.0000
1.7143 0.8333 0.0000
1.7143 1.0000 0.0000
1.8571 0.0000 0.0000
1.8571 0.1667 0.0000
1.8571 0.3333 0.0000
1.8571 0.5000 0.0000
1.8571 0.6667 0.0000
1.8571 0.8333 0.0000
1.8571 1.0000 0.0000
2.0000 0.0000 0.0000
2.0000 0.1667 0.0000
2.0000 0.3333 0.0000
2.0000 0.5000 0.0000
2.0000 0.6667 0.0000
2.0000 0.8333 0.0000
2.0000 1.0000 0.0000
0.0000 0.0000 0.1667
0.0000 0.1667 0.1667
0.0000 0.3333 0.1667
0.0000 0.5000 0.1667
0.0000 0.6667 0.1667
0.0000 0.8333 0.1667
0.0000 1.0000 0.1667
0.1429 0.0000 0.1667
0.1429 0.1667 0.1667
0.1429 0.3333 0.1667
0.1429 0.5000 0.1667
0.1429 0.6667 0.1667
0.1429 0.8333 0.1667
0.1429 1.0000 0.1667
0.2857 0.0000 0.1667
0.2857 0.1667 0.1667
0.2857 0.3333 0.1667
0.2857 0.5000 0.1667
0.2857 0.6667 0.1667
0.2857 0.8333 0.1667
0.2857 1.0000 0.1667
0.4286 0.0000 0.1667
0.4286 0.1667 0.1667
0.4286 0.3333 0.1667
0.4286 0.5000 0.1667
0.4286 0.6667 0.1667
0.4286 0.8333 0.1667
0.4286 1.0000 0.1667
0.5714 0.0000 0.1667
0.5714 0.1667 0.1667
0.5714 0.3333 0.1667
0.5714 0.5000 0.1667
0.5714 0.6667 0.1667
0.5714 0.8333 0.1667
0.5714 1.0000 0.1667
0.7143 0.0000 0.1667
0.7143 0.1667 0.1667
0.7143 0.3333 0.1667
0.7143 0.5000 0.1667
0.7143 0.6667 0.1667
0.7143 0.8333 0.1667
0.7143 1.0000 0.1667
0.8571 0.0000 0.1667
0.8571 0.1667 0.1667
0.8571 0.3333 0.1667
0.8571 0.5000 0.1667
0.8571 0.6667 0.1667
0.8571 0.8333 0.1667
0.8571 1.0000 0.1667
1.0000 0.0000 0.1667
1.0000 0.1667 0.1667
1.0000 0.3333 0.1667
1.0000 0.5000 0.1667
1.0000 0.6667 0.1667
1.0000 0.8333 0.1667
1.0000 1.0000 0.1667
1.1429 0.0000 0.1667
1.1429 0.1667 0.1667
1.1429 0.3333 0.1667
1.1429 0.5000 0.1667
1.1429 0.6667 0.1667
1.1429 0.8333 0.1667
1.1429 1.0000 0.1667
1.2857 0.0000 0.1667
1.2857 0.1667 0.1667
1.2857 0.3333 0.1667
1.2857 0.5000 0.1667
1.2857 0.6667 0.1667
1.2857 0.8333 0.1667
1.2857 1.0000 0.1667
1.4286 0.0000 0.1667
1.4286 0.1667 0.1667
1.4286 0.3333 0.1667
1.4286 0.5000 0.1667
1.4286 0.6667 0.1667
1.4286 0.8333 0.1667
1.4286 1.0000 0.1667
1.5714 0.0000 0.1667
1.5714 0.1667 0.1667
1.5714 0.3333 0.1667
1.5714 0.5000 0.1667
1.5714 0.6667 0.1667
1.5714 0.8333 0.1667
1.5714 1.0000 0.1667
1.7143 0.0000 0.1667
1.7143 0.1667 0.1667
1.7143 0.3333 0.1667
1.7143 0.5000 0.1667
1.7143 0.6667 0.1667
1.7143 0.8333 0.1667
1.7143 1.0000 0.1667
1.8571 0.0000 0.1667
1.8571 0.1667 0.1667
1.8571 0.3333 0.1667
1.8571 0.5000 0.1667
1.8571 0.6667 0.1667
1.8571 0.8333 0.1667
1.8571 1.0000 0.1667
2.0000 0.0000 0.1667
2.0000 0.1667 0.1667
2.0000 0.3333 0.1667
2.0000 0.5000 0.1667
2.0000 0.6667 0.1667
2.0000 0.8333 0.1667
2.0000 1.0000 0.1667
0.0000 0.0000 0.3333
0.0000 0.1667 0.3333
0.0000 0.3333 0.3333
0.0000 0.5000 0.3333
0.0000 0.6667 0.3333
0.0000 0.8333 0.3333
0.0000 1.0000 0.3333
0.1429 0.0000 0.3333
0.1429 0.1667 0.3333
0.1429 0.3333 0.3333
0.1429 0.5000 0.3333
0.1429 0.6667 0.3333
0.1429 0.8333 0.3333
0.1429 1.0000 0.3333
0.2857 0.0000 0.3333
0.2857 0.1667 0.3333
0.2857 0.3333 0.3333
0.2857 0.5000 0.3333
0.2857 0.6667 0.3333
0.2857 0.8333 0.3333
0.2857 1.0000 0.3333
0.4286 0.0000 0.3333
0.4286 0.1667 0.3333
0.4286 0.3333 0.3333
0.4286 0.5000 0.3333
0.4286 0.6667 0.3333
0.4286 0.8333 0.3333
0.4286 1.0000 0.3333
0.5714 0.0000 0.3333
0.5714 0.1667 0.3333
0.5714 0.3333 0.3333
0.5714 0.5000 0.3333
0.5714 0.6667 0.3333
0.5714 0.8333 0.3333
0.5714 1.0000 0.3333
0.7143 0.0000 0.3333
0.7143 0.1667 0.3333
0.7143 0.3333 0.3333
0.7143 0.5000 0.3333
0.7143 0.6667 0.3333
0.7143 0.8333 0.3333
0.7143 1.0000 0.3333
0.8571 0.0000 0.3333
0.8571 0.1667 0.3333
0.8571 0.3333 0.3333
0.8571 0.5000 0.3333
0.8571 0.6667 0.3333
0.8571 0.8333 0.3333
0.8571 1.0000 0.3333
1.0000 0.0000 0.3333
1.0000 0.1667 0.3333
1.0000 0.3333 0.3333
1.0000 0.5000 0.3333
1.0000 0.6667 0.3333
1.0000 0.8333 0.3333
1.0000 1.0000 0.3333
1.1429 0.0000 0.3333
1.1429 0.1667 0.3333
1.1429 0.3333 0.3333
1.1429 0.5000 0.3333
1.1429 0.6667 0.3333
1.1429 0.8333 0.3333
1.1429 1.0000 0.3333
1.2857 0.0000 0.3333
1.2857 0.1667 0.3333
1.2857 0.3333 0.3333
1.2857 0.5000 0.3333
1.2857 0.6667 0.3333
1.2857 0.8333 0.3333
1.2857 1.0000 0.3333
1.4286 0.0000 0.3333
1.4286 0.1667 0.3333
1.4286 0.3333 0.3333
1.4286 0.5000 0.3333
1.4286 0.6667 0.3333
1.4286 0.8333 0.3333
1.4286 1.0000 0.3333
1.5714 0.0000 0.3333
1.5714 0.1667 0.3333
1.5714 0.3333 0.3333
1.5714 0.5000 0.3333
1.5714 0.6667 0.3333
1.5714 0.8333 0.3333
1.5714 1.0000 0.3333
1.7143 0.0000 0.3333
1.7143 0.1667 0.3333
1.7143 0.3333 0.3333
1.7143 0.5000 0.3333
1.7143 0.6667 0.3333
1.7143 0.8333 0.3333
1.7143 1.0000 0.3333
1.8571 0.0000 0.3333
1.8571 0.1667 0.3333
1.8571 0.3333 0.3333
1.8571 0.5000 0.3333
1.8571 0.6667 0.3333
1.8571 0.8333 0.3333
1.8571 1.0000 0.3333
2.0000 0.0000 0.3333
2.0000 0.1667 0.3333
2.0000 0.3333 0.3333
2.0000 0.5000 0.3333
2.0000 0.6667 0.3333
2.0000 0.8333 0.3333
2.0000 1.0000 0.3333
0.0000 0.0000 0.5000
0.0000 0.1667 0.5000
0.0000 0.3333 0.5000
0.0000 0.5000 0.5000
0.0000 0.6667 0.5000
0.0000 0.8333 0.5000
0.0000 1.0000 0.5000
0.1429 0.0000 0.5000
0.1429 0.1667 0.5000
0.1429 0.3333 0.5000
0.1429 0.5000 0.5000
0.1429 0.6667 0.5000
0.1429 0.8333 0.5000
0.1429 1.0000 0.5000
0.2857 0.0000 0.5000
0.2857 0.1667 0.5000
0.2857 0.3333 0.5000
0.2857 0.5000 0.5000
0.2857 0.6667 0.5000
0.2857 0.8333 0.5000
0.2857 1.0000 0.5000
0.4286 0.0000 0.5000
0.4286 0.1667 0.5000
0.4286 0.3333 0.5000
0.4286 0.5000 0.5000
0.4286 0.6667 0.5000
0.4286 0.8333 0.5000
0.4286 1.0000 0.5000
0.5714 0.0000 0.5000
0.5714 0.1667 0.5000
0.5714 0.3333 0.5000
0.5714 0.5000 0.5000
0.5714 0.6667 0.5000
0.5714 0.8333 0.5000
0.5714 1.0000 0.5000
0.7143 0.0000 0.5000
0.7143 0.1667 0.5000
0.7143 0.3333 0.5000
0.7143 0.5000 0.5000
0.7143 0.6667 0.5000
0.7143 0.8333 0.5000
0.7143 1.0000 0.5000
0.8571 0.0000 0.5000
0.8571 0.1667 0.5000
0.8571 0.3333 0.5000
0.8571 0.5000 0.5000
0.8571 0.6667 0.5000
0.8571 0.8333 0.5000
0.8571 1.0000 0.5000
1.0000 0.0000 0.5000
1.0000 0.1667 0.5000
1.0000 0.3333 0.5000
1.0000 0.5000 0.5000
1.0000 0.6667 0.5000
1.0000 0.8333 0.5000
1.0000 1.0000 0.5000
1.1429 0.0000 0.5000
1.1429 0.1667 0.5000
1.1429 0.3333 0.5000
1.1429 0.5000 0.5000
1.1429 0.6667 0.5000
1.1429 0.8333 0.5000
1.1429 1.0000 0.5000
1.2857 0.0000 0.5000
1.2857 0.1667 0.5000
1.2857 0.3333 0.5000
1.2857 0.5000 0.5000
1.2857 0.6667 0.5000
1.2857 0.8333 0.5000
1.2857 1.0000 0.5000
1.4286 0.0000 0.5000
1.4286 0.1667 0.5000
1.4286 0.3333 0.5000
1.4286 0.5000 0.5000
1.4286 0.6667 0.5000
1.4286 0.8333 0.5000
1.4286 1.0000 0.5000
1.5714 0.0000 0.5000
1.5714 0.1667 0.5000
1.5714 0.3333 0.5000
1.5714 0.5000 0.5000
1.5714 0.6667 0.5000
1.5714 0.8333 0.5000
1.5714 1.0000 0.5000
1.7143 0.0000 0.5000
1.7143 0.1667 0.5000
1.7143 0.3333 0.5000
1.7143 0.5000 0.5000
1.7143 0.6667 0.5000
1.7143 0.8333 0.5000
1.7143 1.0000 0.5000
1.8571 0.0000 0.5000
1.8571 0.1667 0.5000
1.8571 0.3333 0.5000
1.8571 0.5000 0.5000
1.8571 0.6667 0.5000
1.8571 0.8333 0.5000
1.8571 1.0000 0.5000
2.0000 0.0000 0.5000
2.0000 0.1667 0.5000
2.0000 0.3333 0.5000
2.0000 0.5000 0.5000
2.0000 0.6667 0.5000
2.0000 0.8333 0.5000
2.0000 1.0000 0.5000
0.0000 0.0000 0.6667
0.0000 0.1667 0.6667
0.0000 0.3333 0.6667
0.0000 0.5000 0.6667
0.0000 0.6667 0.6667
0.0000 0.8333 0.6667
0.0000 1.0000 0.6667
0.1429 0.0000 0.6667
0.1429 0.1667 0.6667
0.1429 0.3333 0.6667
0.1429 0.5000 0.6667
0.1429 0.6667 0.6667
0.1429 0.8333 0.6667
0.1429 1.0000 0.6667
0.2857 0.0000 0.6667
0.2857 0.1667 0.6667
0.2857 0.3333 0.6667
0.2857 0.5000 0.6667
0.2857 0.6667 0.6667
0.2857 0.8333 0.6667
0.2857 1.0000 0.6667
0.4286 0.0000 0.6667
0.4286 0.1667 0.6667
0.4286 0.3333 0.6667
0.4286 0.5000 0.6667
0.4286 0.6667 0.6667
0.4286 0.8333 0.6667
0.4286 1.0000 0.6667
0.5714 0.0000 0.6667
0.5714 0.1667 0.6667
0.5714 0.3333 0.6667
0.5714 0.5000 0.6667
0.5714 0.6667 0.6667
0.5714 0.8333 0.6667
0.5714 1.0000 0.6667
0.7143 0.0000 0.6667
0.7143 0.1667 0.6667
0.7143 0.3333 0.6667
0.7143 0.5000 0.6667
0.7143 0.6667 0.6667
0.7143 0.8333 0.6667
[...]
         <PointData>
            <DataArray Name="fValues" NumberOfComponents="1" format="ascii" type="Float64">
-2.55439e+00 
-2.20718e+00 
-2.19794e+00 
-2.23291e+00 
-2.19794e+00 
-2.20718e+00 
-2.55438e+00 
-1.65171e+00 
-1.58029e+00 
-1.58450e+00 
-1.59433e+00 
-1.58450e+00 
-1.58029e+00 
-1.65171e+00 
-1.20840e+00 
-1.31037e+00 
-1.31834e+00 
-1.31078e+00 
-1.31834e+00 
-1.31037e+00 
-1.20839e+00 
-1.01149e+00 
-1.08946e+00 
-1.12745e+00 
-1.12847e+00 
-1.12745e+00 
-1.08945e+00 
-1.01148e+00 
-8.62467e-01 
-9.05685e-01 
-9.37816e-01 
-9.45084e-01 
-9.37810e-01 
-9.05673e-01 
-8.62453e-01 
-7.12986e-01 
-7.33185e-01 
-7.52904e-01 
-7.58929e-01 
-7.52895e-01 
-7.33169e-01 
-7.12967e-01 
-5.67821e-01 
-5.74608e-01 
-5.84284e-01 
-5.88015e-01 
-5.84272e-01 
-5.74586e-01 
-5.67795e-01 
-4.32056e-01 
-4.31947e-01 
-4.36200e-01 
-4.38633e-01 
-4.36186e-01 
-4.31920e-01 
-4.32022e-01 
-3.09235e-01 
-3.06395e-01 
-3.09704e-01 
-3.12506e-01 
-3.09690e-01 
-3.06363e-01 
-3.09193e-01 
-2.00754e-01 
-1.98282e-01 
-2.04732e-01 
-2.09582e-01 
-2.04722e-01 
-1.98250e-01 
-2.00705e-01 
-1.07600e-01 
-1.08286e-01 
-1.21099e-01 
-1.30146e-01 
-1.21100e-01 
-1.08263e-01 
-1.07553e-01 
-3.31332e-02 
-3.89946e-02 
-5.92368e-02 
-7.28451e-02 
-5.92519e-02 
-3.89932e-02 
-3.31052e-02 
 1.68869e-02 
 5.73324e-03 
-2.11681e-02 
-3.82772e-02 
-2.11887e-02 
 5.70955e-03 
 1.68879e-02 
 4.06257e-02 
 2.70050e-02 
-1.90439e-03 
-1.70217e-02 
-1.90825e-03 
 2.69846e-02 
 4.06105e-02 
 4.53679e-02 
 3.16997e-02 
 8.95723e-03 
-1.39293e-03 
 8.96892e-03 
 3.16951e-02 
 4.53524e-02 
-1.19098e+00 
-9.74371e-01 
-9.33148e-01 
-9.39780e-01 
-9.33148e-01 
-9.74369e-01 
-1.19098e+00 
-8.43048e-01 
-8.04770e-01 
-8.00528e-01 
-8.02715e-01 
-8.00527e-01 
-8.04768e-01 
-8.43045e-01 
-6.90789e-01 
-7.67458e-01 
-7.88515e-01 
-7.88657e-01 
-7.88513e-01 
-7.67455e-01 
-6.90785e-01 
-5.81703e-01 
-6.38833e-01 
-6.74384e-01 
-6.79367e-01 
-6.74381e-01 
-6.38828e-01 
-5.81698e-01 
-4.98390e-01 
-5.27522e-01 
-5.53250e-01 
-5.60291e-01 
-5.53246e-01 
-5.27515e-01 
-4.98383e-01 
-4.16172e-01 
-4.27223e-01 
-4.40371e-01 
-4.45022e-01 
-4.40366e-01 
-4.27214e-01 
-4.16161e-01 
-3.35585e-01 
-3.36333e-01 
-3.40470e-01 
-3.42624e-01 
-3.40464e-01 
-3.36321e-01 
-3.35571e-01 
-2.59212e-01 
-2.54802e-01 
-2.54151e-01 
-2.54897e-01 
-2.54143e-01 
-2.54787e-01 
-2.59193e-01 
-1.89422e-01 
-1.83155e-01 
-1.81357e-01 
-1.82006e-01 
-1.81349e-01 
-1.83138e-01 
-1.89398e-01 
-1.27316e-01 
-1.21873e-01 
-1.22450e-01 
-1.24526e-01 
-1.22443e-01 
-1.21854e-01 
-1.27287e-01 
-7.29389e-02 
-7.12572e-02 
-7.86413e-02 
-8.43111e-02 
-7.86401e-02 
-7.12398e-02 
-7.29059e-02 
-2.62080e-02 
-3.13991e-02 
-5.20166e-02 
-6.82562e-02 
-5.20282e-02 
-3.13959e-02 
-2.61835e-02 
 1.10193e-02 
-2.25121e-03 
-4.55562e-02 
-9.64498e-02 
-4.55882e-02 
-2.28548e-03 
 1.10159e-02 
 3.45748e-02 
 1.19126e-02 
-6.77131e-02 
-1.93377e-01 
-6.77427e-02 
 1.18699e-02 
 3.45520e-02 
 4.07300e-02 
 3.89478e-03 
-1.24614e-01 
-3.18776e-01 
-1.24639e-01 
 3.87235e-03 
 4.07106e-02 
-2.49313e-01 
-1.97230e-01 
-1.90282e-01 
-1.92681e-01 
-1.90282e-01 
-1.97230e-01 
-2.49313e-01 
-1.96052e-01 
-1.97222e-01 
-2.07919e-01 
-2.11790e-01 
-2.07918e-01 
-1.97221e-01 
-1.96051e-01 
-1.91398e-01 
-2.26851e-01 
-2.48970e-01 
-2.54371e-01 
-2.48969e-01 
-2.26851e-01 
-1.91398e-01 
-1.83172e-01 
-2.06577e-01 
-2.27261e-01 
-2.32850e-01 
-2.27261e-01 
-2.06577e-01 
-1.83171e-01 
-1.67665e-01 
-1.75816e-01 
-1.86381e-01 
-1.90276e-01 
-1.86381e-01 
-1.75815e-01 
-1.67665e-01 
-1.49376e-01 
-1.47402e-01 
-1.48944e-01 
-1.50296e-01 
-1.48944e-01 
-1.47402e-01 
-1.49376e-01 
-1.29477e-01 
-1.21958e-01 
-1.17763e-01 
-1.17234e-01 
-1.17763e-01 
-1.21958e-01 
-1.29478e-01 
-1.08983e-01 
-9.90643e-02 
-9.21420e-02 
-9.06455e-02 
-9.21420e-02 
-9.90645e-02 
-1.08984e-01 
-8.87155e-02 
-7.85815e-02 
-7.13493e-02 
-6.97602e-02 
-7.13495e-02 
-7.85821e-02 
-8.87167e-02 
-6.88258e-02 
-6.03797e-02 
-5.52184e-02 
-5.44130e-02 
-5.52190e-02 
-6.03803e-02 
-6.88272e-02 
-4.83180e-02 
-4.38876e-02 
-4.42365e-02 
-4.62678e-02 
-4.42388e-02 
-4.38879e-02 
-4.83168e-02 
-2.49018e-02 
-2.80230e-02 
-4.16015e-02 
-4.92756e-02 
-4.16142e-02 
-2.80309e-02 
-2.49004e-02 
 2.92602e-03 
-1.14444e-02 
-7.26415e-02 
-1.65729e-01 
-7.26872e-02 
-1.14944e-02 
 2.90514e-03 
 2.87247e-02 
-5.66903e-03 
-3.82914e-01 
-1.61336e+00 
-3.82956e-01 
-5.72381e-03 
 2.86924e-02 
 3.91179e-02 
-3.72050e-02 
-1.45651e+00 
-6.83286e+00 
-1.45650e+00 
-3.72313e-02 
 3.90914e-02 
 4.19351e-03 
 1.24542e-04 
-1.03779e-02 
-1.40982e-02 
-1.03781e-02 
 1.24356e-04 
 4.19349e-03 
-8.15692e-03 
-2.04711e-02 
-3.59875e-02 
-4.09167e-02 
-3.59878e-02 
-2.04714e-02 
-8.15713e-03 
-3.62323e-02 
-5.54302e-02 
-7.54018e-02 
-8.19101e-02 
-7.54024e-02 
-5.54310e-02 
-3.62331e-02 
-5.58983e-02 
-6.57475e-02 
-7.87565e-02 
-8.36714e-02 
-7.87575e-02 
-6.57490e-02 
-5.58999e-02 
-6.33261e-02 
-6.30527e-02 
-6.66489e-02 
-6.87396e-02 
-6.66502e-02 
-6.30550e-02 
-6.33287e-02 
-6.58708e-02 
-5.89341e-02 
-5.55034e-02 
-5.52563e-02 
-5.55053e-02 
-5.89374e-02 
-6.58749e-02 
-6.55851e-02 
-5.51640e-02 
-4.76760e-02 
-4.59683e-02 
-4.76784e-02 
-5.51688e-02 
-6.55912e-02 
-6.30409e-02 
-5.14089e-02 
-4.22363e-02 
-3.98583e-02 
-4.22394e-02 
-5.14154e-02 
-6.30497e-02 
-5.84331e-02 
-4.72574e-02 
-3.82025e-02 
-3.57612e-02 
-3.82062e-02 
-4.72658e-02 
-5.84454e-02 
-5.14020e-02 
-4.20650e-02 
-3.45990e-02 
-3.26880e-02 
-3.46030e-02 
-4.20750e-02 
-5.14178e-02 
-4.07405e-02 
-3.46713e-02 
-3.04274e-02 
-2.89812e-02 
-3.04321e-02 
-3.46804e-02 
-4.07549e-02 
-2.39528e-02 
-2.40446e-02 
-2.62451e-02 
-2.91066e-02 
-2.62566e-02 
-2.40561e-02 
-2.39607e-02 
 1.91427e-03 
-1.09211e-02 
-5.35158e-02 
-5.44386e-02 
-5.35601e-02 
-1.09613e-02 
 1.89517e-03 
 2.87237e-02 
-2.82427e-03 
-9.66537e-01 
-4.66543e+00 
-9.66533e-01 
-2.86379e-03 
 2.87029e-02 
 3.66831e-02 
-5.93275e-03 
-4.33613e+00 
-1.96439e+01 
-4.33593e+00 
-5.95756e-03 
 3.66589e-02 
-2.49313e-01 
-1.97231e-01 
-1.90282e-01 
-1.92681e-01 
-1.90282e-01 
-1.97230e-01 
-2.49313e-01 
-1.96052e-01 
-1.97222e-01 
-2.07918e-01 
-2.11790e-01 
-2.07918e-01 
-1.97221e-01 
-1.96051e-01 
-1.91398e-01 
-2.26851e-01 
-2.48970e-01 
-2.54371e-01 
-2.48970e-01 
-2.26851e-01 
-1.91398e-01 
-1.83172e-01 
-2.06577e-01 
-2.27261e-01 
-2.32850e-01 
-2.27261e-01 
-2.06577e-01 
-1.83171e-01 
-1.67665e-01 
-1.75816e-01 
-1.86381e-01 
-1.90276e-01 
-1.86381e-01 
-1.75815e-01 
-1.67665e-01 
-1.49376e-01 
-1.47402e-01 
-1.48944e-01 
-1.50296e-01 
-1.48944e-01 
-1.47402e-01 
-1.49376e-01 
-1.29476e-01 
-1.21957e-01 
-1.17762e-01 
-1.17233e-01 
-1.17762e-01 
-1.21957e-01 
-1.29477e-01 
-1.08981e-01 
-9.90627e-02 
-9.21407e-02 
-9.06444e-02 
-9.21410e-02 
-9.90635e-02 
-1.08982e-01 
-8.87124e-02 
-7.85791e-02 
-7.13476e-02 
-6.97588e-02 
-7.13480e-02 
-7.85803e-02 
-8.87146e-02 
-6.88212e-02 
-6.03763e-02 
-5.52166e-02 
-5.44117e-02 
-5.52174e-02 
-6.03778e-02 
-6.88239e-02 
-4.83132e-02 
-4.38844e-02 
-4.42354e-02 
-4.62675e-02 
-4.42379e-02 
-4.38851e-02 
-4.83126e-02 
-2.48978e-02 
-2.80202e-02 
-4.16008e-02 
-4.92762e-02 
-4.16138e-02 
-2.80289e-02 
-2.48970e-02 
 2.92792e-03 
-1.14394e-02 
-7.26363e-02 
-1.65727e-01 
-7.26811e-02 
-1.14889e-02 
 2.90691e-03 
 2.87240e-02 
-5.66734e-03 
-3.82914e-01 
-1.61338e+00 
-3.82951e-01 
-5.71808e-03 
 2.86933e-02 
 3.91161e-02 
-3.72078e-02 
-1.45654e+00 
-6.83298e+00 
-1.45651e+00 
-3.72300e-02 
 3.90900e-02 
-1.19098e+00 
-9.74371e-01 
-9.33148e-01 
-9.39780e-01 
-9.33147e-01 
-9.74369e-01 
-1.19098e+00 
-8.43048e-01 
-8.04770e-01 
-8.00528e-01 
-8.02715e-01 
-8.00527e-01 
-8.04768e-01 
-8.43045e-01 
-6.90789e-01 
-7.67458e-01 
-7.88514e-01 
-7.88657e-01 
-7.88513e-01 
-7.67455e-01 
-6.90785e-01 
-5.81703e-01 
-6.38833e-01 
-6.74384e-01 
-6.79366e-01 
-6.74381e-01 
-6.38828e-01 
-5.81698e-01 
-4.98390e-01 
-5.27521e-01 
-5.53250e-01 
-5.60291e-01 
-5.53246e-01 
-5.27515e-01 
-4.98383e-01 
-4.16172e-01 
-4.27223e-01 
-4.40371e-01 
-4.45022e-01 
-4.40366e-01 
-4.27214e-01 
-4.16161e-01 
-3.35585e-01 
-3.36333e-01 
-3.40470e-01 
-3.42624e-01 
-3.40464e-01 
-3.36321e-01 
-3.35571e-01 
-2.59212e-01 
-2.54802e-01 
-2.54151e-01 
-2.54896e-01 
-2.54143e-01 
-2.54787e-01 
-2.59194e-01 
-1.89423e-01 
-1.83156e-01 
-1.81357e-01 
-1.82005e-01 
-1.81349e-01 
-1.83138e-01 
-1.89399e-01 
-1.27318e-01 
-1.21874e-01 
-1.22448e-01 
-1.24523e-01 
-1.22443e-01 
-1.21855e-01 
-1.27289e-01 
-7.29417e-02 
-7.12587e-02 
-7.86392e-02 
-8.43079e-02 
-7.86390e-02 
-7.12417e-02 
-7.29080e-02 
-2.62058e-02 
-3.13961e-02 
-5.20125e-02 
-6.82533e-02 
-5.20259e-02 
-3.13972e-02 
-2.61852e-02 
 1.10281e-02 
-2.23652e-03 
-4.55451e-02 
-9.64477e-02 
-4.55779e-02 
-2.27612e-03 
 1.10166e-02 
 3.45827e-02 
 1.19251e-02 
-6.77068e-02 
-1.93381e-01 
-6.77321e-02 
 1.18869e-02 
 3.45607e-02 
 4.07380e-02 
 3.90211e-03 
-1.24618e-01 
-3.18786e-01 
-1.24638e-01 
 3.88603e-03 
 4.07191e-02 
-2.55439e+00 
-2.20718e+00 
-2.19794e+00 
-2.23291e+00 
-2.19794e+00 
-2.20718e+00 
-2.55438e+00 
-1.65171e+00 
-1.58029e+00 
-1.58450e+00 
-1.59433e+00 
-1.58450e+00 
-1.58029e+00 
-1.65171e+00 
-1.20840e+00 
-1.31037e+00 
-1.31834e+00 
-1.31078e+00 
-1.31834e+00 
-1.31037e+00 
-1.20839e+00 
-1.01149e+00 
-1.08946e+00 
-1.12745e+00 
-1.12847e+00 
-1.12745e+00 
-1.08945e+00 
-1.01148e+00 
-8.62467e-01 
-9.05685e-01 
-9.37816e-01 
-9.45084e-01 
-9.37810e-01 
-9.05673e-01 
-8.62453e-01 
-7.12987e-01 
-7.33186e-01 
-7.52905e-01 
-7.58929e-01 
-7.52895e-01 
-7.33169e-01 
-7.12967e-01 
-5.67823e-01 
-5.74609e-01 
-5.84285e-01 
-5.88015e-01 
-5.84273e-01 
-5.74587e-01 
-5.67796e-01 
-4.32060e-01 
-4.31950e-01 
-4.36201e-01 
-4.38633e-01 
-4.36187e-01 
-4.31922e-01 
-4.32025e-01 
-3.09244e-01 
-3.06401e-01 
-3.09706e-01 
-3.12506e-01 
-3.09691e-01 
-3.06367e-01 
-3.09198e-01 
-2.00769e-01 
-1.98292e-01 
-2.04733e-01 
-2.09579e-01 
-2.04723e-01 
-1.98258e-01 
-2.00715e-01 
-1.07620e-01 
-1.08299e-01 
-1.21097e-01 
-1.30139e-01 
-1.21099e-01 
-1.08274e-01 
-1.07567e-01 
-3.31453e-02 
-3.89983e-02 
-5.92292e-02 
-7.28368e-02 
-5.92470e-02 
-3.90014e-02 
-3.31188e-02 
 1.68894e-02 
 5.74629e-03 
-2.11577e-02 
-3.82764e-02 
-2.11792e-02 
 5.71520e-03 
 1.68808e-02 
 4.06370e-02 
 2.70185e-02 
-1.90226e-03 
-1.70310e-02 
-1.90465e-03 
 2.69994e-02 
 4.06220e-02 
 4.53823e-02 
 3.17116e-02 
 8.95569e-03 
-1.40248e-03 
 8.96767e-03 
 3.17107e-02 
 4.53682e-02 </DataArray>
         </PointData>
         <CellData/>
      </Piece>
   </UnstructuredGrid>
</VTKFile>