<?xml version="1.0" encoding="utf-8"?>
<VTKFile byte_order="LittleEndian" type="UnstructuredGrid" version="0.1">
   <UnstructuredGrid>
      <Piece NumberOfCells="3364" NumberOfPoints="1741">
         <Points>
            <DataArray Name="Points" NumberOfComponents="3" format="ascii" type="Float32">
0.0000 1.0000 0.0000
0.0000 1.0345 0.0000
0.0000 1.0690 0.0000
0.0000 1.1034 0.0000
0.0000 1.1379 0.0000
0.0000 1.1724 0.0000
0.0000 1.2069 0.0000
0.0000 1.2414 0.0000
0.0000 1.2759 0.0000
0.0000 1.3103 0.0000
0.0000 1.3448 0.0000
0.0000 1.3793 0.0000
0.0000 1.4138 0.0000
0.0000 1.4483 0.0000
0.0000 1.4828 0.0000
0.0000 1.5172 0.0000
0.0000 1.5517 0.0000
0.0000 1.5862 0.0000
0.0000 1.6207 0.0000
0.0000 1.6552 0.0000
0.0000 1.6897 0.0000
0.0000 1.7241 0.0000
0.0000 1.7586 0.0000
0.0000 1.7931 0.0000
0.0000 1.8276 0.0000
0.0000 1.8621 0.0000
0.0000 1.8966 0.0000
0.0000 1.9310 0.0000
0.0000 1.9655 0.0000
0.0000 2.0000 0.0000
0.0690 1.0000 0.0000
0.0690 1.0345 0.0000
0.0690 1.0690 0.0000
0.0690 1.1034 0.0000
0.0690 1.1379 0.0000
0.0690 1.1724 0.0000
0.0690 1.2069 0.0000
0.0690 1.2414 0.0000
0.0690 1.2759 0.0000
0.0690 1.3103 0.0000
0.0690 1.3448 0.0000
0.0690 1.3793 0.0000
0.0690 1.4138 0.0000
0.0690 1.4483 0.0000
0.0690 1.4828 0.0000
0.0690 1.5172 0.0000
0.0690 1.5517 0.0000
0.0690 1.5862 0.0000
0.0690 1.6207 0.0000
0.0690 1.6552 0.0000
0.0690 1.6897 0.0000
0.0690 1.7241 0.0000
0.0690 1.7586 0.0000
0.0690 1.7931 0.0000
0.0690 1.8276 0.0000
0.0690 1.8621 0.0000
0.0690 1.8966 0.0000
0.0690 1.9310 0.0000
0.0690 1.9655 0.0000
0.0690 2.0000 0.0000
0.1379 1.0000 0.0000
0.1379 1.0345 0.0000
0.1379 1.0690 0.0000
0.1379 1.1034 0.0000
0.1379 1.1379 0.0000
0.1379 1.1724 0.0000
0.1379 1.2069 0.0000
0.1379 1.2414 0.0000
0.1379 1.2759 0.0000
0.1379 1.3103 0.0000
0.1379 1.3448 0.0000
0.1379 1.3793 0.0000
0.1379 1.4138 0.0000
0.1379 1.4483 0.0000
0.1379 1.4828 0.0000
0.1379 1.5172 0.0000
0.1379 1.5517 0.0000
0.1379 1.5862 0.0000
0.1379 1.6207 0.0000
0.1379 1.6552 0.0000
0.1379 1.6897 0.0000
0.1379 1.7241 0.0000
0.1379 1.7586 0.0000
0.1379 1.7931 0.0000
0.1379 1.8276 0.0000
0.1379 1.8621 0.0000
0.1379 1.8966 0.0000
0.1379 1.9310 0.0000
0.1379 1.9655 0.0000
0.1379 2.0000 0.0000
0.2069 1.0000 0.0000
0.2069 1.0345 0.0000
0.2069 1.0690 0.0000
0.2069 1.1034 0.0000
0.2069 1.1379 0.0000
0.2069 1.1724 0.0000
0.2069 1.2069 0.0000
0.2069 1.2414 0.0000
0.2069 1.2759 0.0000
0.2069 1.3103 0.0000
0.2069 1.3448 0.0000
0.2069 1.3793 0.0000
0.2069 1.4138 0.0000
0.2069 1.4483 0.0000
0.2069 1.4828 0.0000
0.2069 1.5172 0.0000
0.2069 1.5517 0.0000
0.2069 1.5862 0.0000
0.2069 1.6207 0.0000
0.2069 1.6552 0.0000
0.2069 1.6897 0.0000
0.2069 1.7241 0.0000
0.2069 1.7586 0.0000
0.2069 1.7931 0.0000
0.2069 1.8276 0.0000
0.2069 1.8621 0.0000
0.2069 1.8966 0.0000
0.2069 1.9310 0.0000
0.2069 1.9655 0.0000
0.2069 2.0000 0.0000
0.2759 1.0000 0.0000
0.2759 1.0345 0.0000
0.2759 1.0690 0.0000
0.2759 1.1034 0.0000
0.2759 1.1379 0.0000
0.2759 1.1724 0.0000
0.2759 1.2069 0.0000
0.2759 1.2414 0.0000
0.2759 1.2759 0.0000
0.2759 1.3103 0.0000
0.2759 1.3448 0.0000
0.2759 1.3793 0.0000
0.2759 1.4138 0.0000
0.2759 1.4483 0.0000
0.2759 1.4828 0.0000
0.2759 1.5172 0.0000
0.2759 1.5517 0.0000
0.2759 1.5862 0.0000
0.2759 1.6207 0.0000
0.2759 1.6552 0.0000
0.2759 1.6897 0.0000
0.2759 1.7241 0.0000
0.2759 1.7586 0.0000
0.2759 1.7931 0.0000
0.2759 1.8276 0.0000
0.2759 1.8621 0.0000
0.2759 1.8966 0.0000
0.2759 1.9310 0.0000
0.2759 1.9655 0.0000
0.2759 2.0000 0.0000
0.3448 1.0000 0.0000
0.3448 1.0345 0.0000
0.3448 1.0690 0.0000
0.3448 1.1034 0.0000
0.3448 1.1379 0.0000
0.3448 1.1724 0.0000
0.3448 1.2069 0.0000
0.3448 1.2414 0.0000
0.3448 1.2759 0.0000
0.3448 1.3103 0.0000
0.3448 1.3448 0.0000
0.3448 1.3793 0.0000
0.3448 1.4138 0.0000
0.3448 1.4483 0.0000
0.3448 1.4828 0.0000
0.3448 1.5172 0.0000
0.3448 1.5517 0.0000
0.3448 1.5862 0.0000
0.3448 1.6207 0.0000
0.3448 1.6552 0.0000
0.3448 1.6897 0.0000
0.3448 1.7241 0.0000
0.3448 1.7586 0.0000
0.3448 1.7931 0.0000
0.3448 1.8276 0.0000
0.3448 1.8621 0.0000
0.3448 1.8966 0.0000
0.3448 1.9310 0.0000
0.3448 1.9655 0.0000
0.3448 2.0000 0.0000
0.4138 1.0000 0.0000
0.4138 1.0345 0.0000
0.4138 1.0690 0.0000
0.4138 1.1034 0.0000
0.4138 1.1379 0.0000
0.4138 1.1724 0.0000
0.4138 1.2069 0.0000
0.4138 1.2414 0.0000
0.4138 1.2759 0.0000
0.4138 1.3103 0.0000
0.4138 1.3448 0.0000
0.4138 1.3793 0.0000
0.4138 1.4138 0.0000
0.4138 1.4483 0.0000
0.4138 1.4828 0.0000
0.4138 1.5172 0.0000
0.4138 1.5517 0.0000
0.4138 1.5862 0.0000
0.4138 1.6207 0.0000
0.4138 1.6552 0.0000
0.4138 1.6897 0.0000
0.4138 1.7241 0.0000
0.4138 1.7586 0.0000
0.4138 1.7931 0.0000
0.4138 1.8276 0.0000
0.4138 1.8621 0.0000
0.4138 1.8966 0.0000
0.4138 1.9310 0.0000
0.4138 1.9655 0.0000
0.4138 2.0000 0.0000
0.4828 1.0000 0.0000
0.4828 1.0345 0.0000
0.4828 1.0690 0.0000
0.4828 1.1034 0.0000
0.4828 1.1379 0.0000
0.4828 1.1724 0.0000
0.4828 1.2069 0.0000
0.4828 1.2414 0.0000
0.4828 1.2759 0.0000
0.4828 1.3103 0.0000
0.4828 1.3448 0.0000
0.4828 1.3793 0.0000
0.4828 1.4138 0.0000
0.4828 1.4483 0.0000
0.4828 1.4828 0.0000
0.4828 1.5172 0.0000
0.4828 1.5517 0.0000
0.4828 1.5862 0.0000
0.4828 1.6207 0.0000
0.4828 1.6552 0.0000
0.4828 1.6897 0.0000
0.4828 1.7241 0.0000
0.4828 1.7586 0.0000
0.4828 1.7931 0.0000
0.4828 1.8276 0.0000
0.4828 1.8621 0.0000
0.4828 1.8966 0.0000
0.4828 1.9310 0.0000
0.4828 1.9655 0.0000
0.4828 2.0000 0.0000
0.5517 1.0000 0.0000
0.5517 1.0345 0.0000
0.5517 1.0690 0.0000
0.5517 1.1034 0.0000
0.5517 1.1379 0.0000
0.5517 1.1724 0.0000
0.5517 1.2069 0.0000
0.5517 1.2414 0.0000
0.5517 1.2759 0.0000
0.5517 1.3103 0.0000
0.5517 1.3448 0.0000
0.5517 1.3793 0.0000
0.5517 1.4138 0.0000
0.5517 1.4483 0.0000
0.5517 1.4828 0.0000
0.5517 1.5172 0.0000
0.5517 1.5517 0.0000
0.5517 1.5862 0.0000
0.5517 1.6207 0.0000
0.5517 1.6552 0.0000
0.5517 1.6897 0.0000
0.5517 1.7241 0.0000
0.5517 1.7586 0.0000
0.5517 1.7931 0.0000
0.5517 1.8276 0.0000
0.5517 1.8621 0.0000
0.5517 1.8966 0.0000
0.5517 1.9310 0.0000
0.5517 1.9655 0.0000
0.5517 2.0000 0.0000
0.6207 1.0000 0.0000
0.6207 1.0345 0.0000
0.6207 1.0690 0.0000
0.6207 1.1034 0.0000
0.6207 1.1379 0.0000
0.6207 1.1724 0.0000
0.6207 1.2069 0.0000
0.6207 1.2414 0.0000
0.6207 1.2759 0.0000
0.6207 1.3103 0.0000
0.6207 1.3448 0.0000
0.6207 1.3793 0.0000
0.6207 1.4138 0.0000
0.6207 1.4483 0.0000
0.6207 1.4828 0.0000
0.6207 1.5172 0.0000
0.6207 1.5517 0.0000
0.6207 1.5862 0.0000
0.6207 1.6207 0.0000
0.6207 1.6552 0.0000
0.6207 1.6897 0.0000
0.6207 1.7241 0.0000
0.6207 1.7586 0.0000
0.6207 1.7931 0.0000
0.6207 1.8276 0.0000
0.6207 1.8621 0.0000
0.6207 1.8966 0.0000
0.6207 1.9310 0.0000
0.6207 1.9655 0.0000
0.6207 2.0000 0.0000
0.6897 1.0000 0.0000
0.6897 1.0345 0.0000
0.6897 1.0690 0.0000
0.6897 1.1034 0.0000
0.6897 1.1379 0.0000
0.6897 1.1724 0.0000
0.6897 1.2069 0.0000
0.6897 1.2414 0.0000
0.6897 1.2759 0.0000
0.6897 1.3103 0.0000
0.6897 1.3448 0.0000
0.6897 1.3793 0.0000
0.6897 1.4138 0.0000
0.6897 1.4483 0.0000
0.6897 1.4828 0.0000
0.6897 1.5172 0.0000
0.6897 1.5517 0.0000
0.6897 1.5862 0.0000
0.6897 1.6207 0.0000
0.6897 1.6552 0.0000
0.6897 1.6897 0.0000
0.6897 1.7241 0.0000
0.6897 1.7586 0.0000
0.6897 1.7931 0.0000
0.6897 1.8276 0.0000
0.6897 1.8621 0.0000
0.6897 1.8966 0.0000
0.6897 1.9310 0.0000
0.6897 1.9655 0.0000
0.6897 2.0000 0.0000
0.7586 1.0000 0.0000
0.7586 1.0345 0.0000
0.7586 1.0690 0.0000
0.7586 1.1034 0.0000
0.7586 1.1379 0.0000
0.7586 1.1724 0.0000
0.7586 1.2069 0.0000
0.7586 1.2414 0.0000
0.7586 1.2759 0.0000
0.7586 1.3103 0.0000
0.7586 1.3448 0.0000
0.7586 1.3793 0.0000
0.7586 1.4138 0.0000
0.7586 1.4483 0.0000
0.7586 1.4828 0.0000
0.7586 1.5172 0.0000
0.7586 1.5517 0.0000
0.7586 1.5862 0.0000
0.7586 1.6207 0.0000
0.7586 1.6552 0.0000
0.7586 1.6897 0.0000
0.7586 1.7241 0.0000
0.7586 1.7586 0.0000
0.7586 1.7931 0.0000
0.7586 1.8276 0.0000
0.7586 1.8621 0.0000
0.7586 1.8966 0.0000
0.7586 1.9310 0.0000
0.7586 1.9655 0.0000
0.7586 2.0000 0.0000
0.8276 1.0000 0.0000
0.8276 1.0345 0.0000
0.8276 1.0690 0.0000
0.8276 1.1034 0.0000
0.8276 1.1379 0.0000
0.8276 1.1724 0.0000
0.8276 1.2069 0.0000
0.8276 1.2414 0.0000
0.8276 1.2759 0.0000
0.8276 1.3103 0.0000
0.8276 1.3448 0.0000
0.8276 1.3793 0.0000
0.8276 1.4138 0.0000
0.8276 1.4483 0.0000
0.8276 1.4828 0.0000
0.8276 1.5172 0.0000
0.8276 1.5517 0.0000
0.8276 1.5862 0.0000
0.8276 1.6207 0.0000
0.8276 1.6552 0.0000
0.8276 1.6897 0.0000
0.8276 1.7241 0.0000
0.8276 1.7586 0.0000
0.8276 1.7931 0.0000
0.8276 1.8276 0.0000
0.8276 1.8621 0.0000
0.8276 1.8966 0.0000
0.8276 1.9310 0.0000
0.8276 1.9655 0.0000
0.8276 2.0000 0.0000
0.8966 1.0000 0.0000
0.8966 1.0345 0.0000
0.8966 1.0690 0.0000
0.8966 1.1034 0.0000
0.8966 1.1379 0.0000
0.8966 1.1724 0.0000
0.8966 1.2069 0.0000
0.8966 1.2414 0.0000
0.8966 1.2759 0.0000
0.8966 1.3103 0.0000
0.8966 1.3448 0.0000
0.8966 1.3793 0.0000
0.8966 1.4138 0.0000
0.8966 1.4483 0.0000
0.8966 1.4828 0.0000
0.8966 1.5172 0.0000
0.8966 1.5517 0.0000
0.8966 1.5862 0.0000
0.8966 1.6207 0.0000
0.8966 1.6552 0.0000
0.8966 1.6897 0.0000
0.8966 1.7241 0.0000
0.8966 1.7586 0.0000
0.8966 1.7931 0.0000
0.8966 1.8276 0.0000
0.8966 1.8621 0.0000
0.8966 1.8966 0.0000
0.8966 1.9310 0.0000
0.8966 1.9655 0.0000
0.8966 2.0000 0.0000
0.9655 1.0000 0.0000
0.9655 1.0345 0.0000
0.9655 1.0690 0.0000
0.9655 1.1034 0.0000
0.9655 1.1379 0.0000
0.9655 1.1724 0.0000
0.9655 1.2069 0.0000
0.9655 1.2414 0.0000
0.9655 1.2759 0.0000
0.9655 1.3103 0.0000
0.9655 1.3448 0.0000
0.9655 1.3793 0.0000
0.9655 1.4138 0.0000
0.9655 1.4483 0.0000
0.9655 1.4828 0.0000
0.9655 1.5172 0.0000
0.9655 1.5517 0.0000
0.9655 1.5862 0.0000
0.9655 1.6207 0.0000
0.9655 1.6552 0.0000
0.9655 1.6897 0.0000
0.9655 1.7241 0.0000
0.9655 1.7586 0.0000
0.9655 1.7931 0.0000
0.9655 1.8276 0.0000
0.9655 1.8621 0.0000
0.9655 1.8966 0.0000
0.9655 1.9310 0.0000
0.9655 1.9655 0.0000
0.9655 2.0000 0.0000
1.0345 1.0000 0.0000
1.0345 1.0345 0.0000
1.0345 1.0690 0.0000
1.0345 1.1034 0.0000
1.0345 1.1379 0.0000
1.0345 1.1724 0.0000
1.0345 1.2069 0.0000
1.0345 1.2414 0.0000
1.0345 1.2759 0.0000
1.0345 1.3103 0.0000
1.0345 1.3448 0.0000
[...]
         <PointData>
            <DataArray Name="fValues" NumberOfComponents="3" format="ascii" type="Float64">
 2.46191e-30  2.17994e-29        00000 
-5.80832e-30 -5.69449e-29        00000 
 2.12079e-29  2.30284e-28        00000 
-6.89232e-29 -8.20870e-28        00000 
 1.96949e-28  2.56876e-27        00000 
-4.99425e-28 -7.08275e-27        00000 
 1.14431e-27  1.79580e-26        00000 
-2.38799e-27 -4.04911e-26        00000 
 4.54726e-27  8.09847e-26        00000 
-7.81521e-27 -1.41151e-25        00000 
 1.19324e-26  2.10972e-25        00000 
-1.60223e-26 -2.66300e-25        00000 
 1.89547e-26  2.77589e-25        00000 
-2.00302e-26 -2.26322e-25        00000 
 1.93306e-26  1.17011e-25        00000 
-1.74406e-26  2.29934e-26        00000 
 1.49098e-26 -1.54043e-25        00000 
-1.19976e-26  2.39281e-25        00000 
 8.84890e-27 -2.60865e-25        00000 
-5.76867e-27  2.27840e-25        00000 
 3.21274e-27 -1.68535e-25        00000 
-1.50102e-27  1.11535e-25        00000 
 3.40459e-28 -5.79801e-26        00000 
 1.41635e-28  2.58789e-26        00000 
-2.26584e-28 -1.00815e-26        00000 
 1.64596e-28  3.40889e-27        00000 
-8.85615e-29 -9.97506e-28        00000 
 3.94233e-29  2.47936e-28        00000 
-1.62960e-29 -4.94551e-29        00000 
 9.93388e-30  1.28987e-29        00000 
-2.86179e-30 -2.06386e-29        00000 
 8.56328e-30  7.50124e-29        00000 
-3.76583e-29 -3.74482e-28        00000 
 1.38299e-28  1.52219e-27        00000 
-4.32512e-28 -5.27428e-27        00000 
 1.18561e-27  1.59882e-26        00000 
-2.85612e-27 -4.26087e-26        00000 
 6.23513e-27  1.02632e-25        00000 
-1.24139e-26 -2.20059e-25        00000 
 2.23956e-26  4.09393e-25        00000 
-3.57284e-26 -6.45353e-25        00000 
 4.93631e-26  8.46063e-25        00000 
-5.89706e-26 -9.02168e-25        00000 
 6.20095e-26  7.43225e-25        00000 
-5.91481e-26 -3.84978e-25        00000 
 5.28523e-26 -7.83593e-26        00000 
-4.50748e-26  5.13136e-25        00000 
 3.62975e-26 -7.89692e-25        00000 
-2.65384e-26  8.42704e-25        00000 
 1.67439e-26 -7.09894e-25        00000 
-8.67346e-27  4.97866e-25        00000 
 3.61787e-27 -3.14487e-25        00000 
-2.94871e-28  1.49060e-25        00000 
-8.00566e-28 -6.17005e-26        00000 
 7.90507e-28  2.17824e-26        00000 
-4.84367e-28 -6.58815e-27        00000 
 2.29951e-28  1.68667e-27        00000 
-9.15729e-29 -3.46779e-28        00000 
 3.39723e-29  4.39218e-29        00000 
-1.92689e-29  3.08571e-30        00000 
 8.94495e-31 -2.04231e-29        00000 
-1.37738e-29 -8.05942e-29        00000 
 9.50031e-29  8.03367e-28        00000 
-4.39781e-28 -4.26539e-27        00000 
 1.60146e-27  1.75488e-26        00000 
-4.85758e-27 -6.02548e-26        00000 
 1.27680e-26  1.76524e-25        00000 
-2.95602e-26 -4.59010e-25        00000 
 6.16877e-26  1.07390e-24        00000 
-1.18093e-25 -2.18717e-24        00000 
 2.00807e-25  3.71026e-24        00000 
-2.89468e-25 -5.12189e-24        00000 
 3.50094e-25  5.61951e-24        00000 
-3.64815e-25 -4.67341e-24        00000 
 3.41959e-25  2.41949e-24        00000 
-3.01558e-25  5.00073e-25        00000 
 2.57220e-25 -3.27406e-24        00000 
-2.08538e-25  5.01314e-24        00000 
 1.51054e-25 -5.20881e-24        00000 
-9.08835e-26  4.17694e-24        00000 
 4.19854e-26 -2.74814e-24        00000 
-1.35840e-26  1.54182e-24        00000 
-3.20028e-27 -6.87625e-25        00000 
 6.60190e-27  2.50863e-25        00000 
-4.85110e-27 -7.67586e-26        00000 
 2.50082e-27  1.94994e-26        00000 
-1.02429e-27 -3.87588e-27        00000 
 3.56199e-28  4.53851e-28        00000 
-1.15803e-28  7.77756e-29        00000 
 5.97864e-29 -1.15622e-28        00000 
 2.11587e-29  2.93017e-28        00000 
-5.29099e-30 -2.49746e-28        00000 
-1.67965e-28 -9.38113e-28        00000 
 1.20016e-27  9.82967e-27        00000 
-5.60590e-27 -5.34359e-26        00000 
 1.96451e-26  2.17566e-25        00000 
-5.66136e-26 -7.23411e-25        00000 
 1.42663e-25  2.03592e-24        00000 
-3.09095e-25 -5.08825e-24        00000 
 6.17639e-25  1.16123e-23        00000 
-1.14431e-24 -2.16738e-23        00000 
 1.75800e-24  3.17977e-23        00000 
-2.14958e-24 -3.62081e-23        00000 
 2.20759e-24  3.01515e-23        00000 
-2.02383e-24 -1.54816e-23        00000 
 1.75371e-24 -3.11908e-24        00000 
-1.50410e-24  2.13169e-23        00000 
 1.24076e-24 -3.29742e-23        00000 
-8.92691e-25  3.32221e-23        00000 
 4.98406e-25 -2.48500e-23        00000 
-2.00457e-25  1.53426e-23        00000 
 2.96266e-26 -7.95307e-24        00000 
 4.47921e-26  3.04204e-24        00000 
-4.70216e-26 -9.56680e-25        00000 
 2.78184e-26  2.45757e-25        00000 
-1.21012e-26 -4.84701e-26        00000 
 4.26225e-27  5.37069e-27        00000 
-1.30451e-27  9.01512e-28        00000 
 3.75062e-28 -8.80211e-28        00000 
-1.77100e-28  6.23779e-28        00000 
-1.26002e-28 -1.42145e-27        00000 
 1.74306e-28  2.24146e-27        00000 
-9.05901e-29 -3.32285e-27        00000 
-2.02519e-27 -1.00418e-26        00000 
 1.55210e-26  1.22839e-25        00000 
-7.37074e-26 -6.86077e-25        00000 
 2.36012e-25  2.71567e-24        00000 
-6.54881e-25 -8.75882e-24        00000 
 1.58379e-24  2.29806e-23        00000 
-3.04055e-24 -5.56607e-23        00000 
 6.22349e-24  1.28160e-22        00000 
-1.09927e-23 -1.93335e-22        00000 
 1.32975e-23 -1.17764e-09        00000 
-1.33068e-23 -1.17764e-09        00000 
 1.21250e-23 -1.17764e-09        00000 
-9.84545e-24 -1.17764e-09        00000 
 9.03885e-24 -1.17764e-09        00000 
-7.17988e-24 -1.17764e-09        00000 
 5.72467e-24 -2.22974e-22        00000 
-2.28626e-24  1.34305e-22        00000 
 1.09708e-24 -9.07484e-23        00000 
 1.12140e-25  3.69694e-23        00000 
-4.03335e-25 -1.20380e-23        00000 
 3.01159e-25  3.14414e-24        00000 
-1.44475e-25 -6.19059e-25        00000 
 5.17559e-26  6.47497e-26        00000 
-1.58083e-26  1.32822e-26        00000 
 4.25364e-27 -1.06480e-26        00000 
-1.08359e-27  4.35093e-27        00000 
 4.70103e-28 -2.42815e-27        00000 
 4.79762e-28  4.97518e-27        00000 
-9.09201e-28 -9.89938e-27        00000 
 2.28545e-27  2.86441e-26        00000 
-2.28899e-27 -5.29089e-26        00000 
-2.45339e-26 -1.02565e-25        00000 
 2.06087e-25  1.56902e-24        00000 
-8.98924e-25 -8.75245e-24        00000 
 2.72195e-24  3.37367e-23        00000 
-7.60780e-24 -1.06935e-22        00000 
 1.70401e-23  2.75388e-22        00000 
-3.60042e-23 -6.64649e-22        00000 
-8.05756e-10 -1.26426e-08        00000 
-8.05756e-10 -7.81895e-08        00000 
 2.20978e-22 -9.08322e-08        00000 
-2.07521e-22 -9.08322e-08        00000 
 1.97084e-22 -9.08322e-08        00000 
-4.71923e-23 -9.08322e-08        00000 
 8.05756e-10 -7.81895e-08        00000 
 8.05756e-10 -1.26426e-08        00000 
 1.34659e-23 -8.50499e-22        00000 
-2.68019e-24  4.39830e-22        00000 
-2.68277e-24 -1.53029e-22        00000 
 3.18513e-24  4.00412e-23        00000 
-1.69646e-24 -7.98460e-24        00000 
 6.32722e-25  7.91872e-25        00000 
-1.94187e-25  1.97052e-25        00000 
 5.12223e-26 -1.44399e-25        00000 
-1.20505e-26  5.25662e-26        00000 
 2.74864e-27 -1.60337e-26        00000 
-1.11346e-27  7.75457e-27        00000 
-1.39968e-27 -1.39991e-26        00000 
 3.19827e-27  3.21918e-26        00000 
-1.15658e-26 -1.22334e-25        00000 
 3.29363e-26  4.00711e-25        00000 
-5.06310e-26 -8.45135e-25        00000 
-3.13811e-25 -1.01504e-24        00000 
 2.94758e-24  2.08268e-23        00000 
-1.19042e-23 -1.16912e-22        00000 
 2.93155e-23  4.15385e-22        00000 
-7.53767e-23 -1.16635e-21        00000 
-8.25185e-09 -5.84031e-08        00000 
-4.70153e-08 -6.66819e-07        00000 
-4.70153e-08 -2.39451e-06        00000 
-8.25185e-09 -3.00292e-06        00000 
-7.12607e-21 -3.06132e-06        00000 
 7.80914e-21 -3.06132e-06        00000 
 8.25185e-09 -3.00292e-06        00000 
 4.70153e-08 -2.39451e-06        00000 
 4.70153e-08 -6.66819e-07        00000 
 8.25185e-09 -5.84031e-08        00000 
 6.45934e-24 -2.01531e-21        00000 
 3.02499e-23  5.13752e-22        00000 
-2.05369e-23 -1.05523e-22        00000 
 7.88162e-24  1.01383e-23        00000 
-2.41485e-24  2.84221e-24        00000 
 6.25447e-25 -2.00926e-24        00000 
-1.39808e-25  6.86940e-25        00000 
 2.90591e-26 -1.88316e-25        00000 
-6.14643e-27  4.84891e-26        00000 
 2.39110e-27 -2.12284e-26        00000 
 3.27076e-27  3.30326e-26        00000 
-8.53931e-27 -8.36968e-26        00000 
 3.86876e-26  3.74858e-25        00000 
-1.57889e-25 -1.60604e-24        00000 
 4.61027e-25  5.66613e-24        00000 
-1.17033e-24 -1.36886e-23        00000 
-4.50111e-24 -9.24886e-24        00000 
 4.51490e-23  2.88561e-22        00000 
-1.60025e-22 -1.63023e-21        00000 
-3.60665e-08 -1.51653e-07        00000 
-3.71896e-07 -2.50295e-06        00000 
-1.20564e-06 -1.57108e-05        00000 
-1.20564e-06 -4.35127e-05        00000 
-3.71896e-07 -5.67206e-05        00000 
-3.60665e-08 -5.90719e-05        00000 
 3.60665e-08 -5.90719e-05        00000 
 3.71896e-07 -5.67206e-05        00000 
 1.20564e-06 -4.35127e-05        00000 
 1.20564e-06 -1.57108e-05        00000 
 3.71896e-07 -2.50295e-06        00000 
 3.60665e-08 -1.51653e-07        00000 
-2.51264e-22 -1.47617e-21        00000 
 9.66815e-23  1.30224e-22        00000 
-3.06241e-23  3.88665e-23        00000 
 7.78773e-24 -2.89085e-23        00000 
-1.61669e-24  9.11189e-24        00000 
 3.09788e-25 -2.32221e-24        00000 
-6.06688e-26  5.44433e-25        00000 
 1.25491e-26 -1.25354e-25        00000 
-4.77134e-27  5.10776e-26        00000 
-6.23879e-27 -6.73020e-26        00000 
 1.78753e-26  1.81569e-25        00000 
-9.38325e-26 -8.96572e-25        00000 
 4.85592e-25  4.46426e-24        00000 
-2.22837e-24 -2.12933e-23        00000 
 5.48604e-24  7.97970e-23        00000 
-3.11734e-23 -2.31570e-22        00000 
-8.82714e-23 -9.71686e-23        00000 
-8.76600e-08 -2.42585e-07        00000 
-1.27730e-06 -5.11132e-06        00000 
-7.16704e-06 -4.63976e-05        00000 
-1.75445e-05 -2.14708e-04        00000 
-1.75445e-05 -5.11667e-04        00000 
-7.16704e-06 -6.79978e-04        00000 
-1.18964e-06 -7.21021e-04        00000 
 1.18964e-06 -7.21021e-04        00000 
 7.16704e-06 -6.79978e-04        00000 
 1.75445e-05 -5.11667e-04        00000 
 1.75445e-05 -2.14708e-04        00000 
 7.16704e-06 -4.63976e-05        00000 
 1.27730e-06 -5.11132e-06        00000 
 8.76600e-08 -2.42585e-07        00000 
-3.91501e-22  4.05412e-22        00000 
 9.99124e-23 -4.43033e-22        00000 
-1.84963e-23  1.22372e-22        00000 
 3.09163e-24 -2.82328e-23        00000 
-5.87196e-25  6.28584e-24        00000 
 1.19195e-25 -1.33336e-24        00000 
-2.43936e-26  2.84352e-25        00000 
 8.76939e-27 -1.10308e-25        00000 
 8.96412e-27  1.21015e-25        00000 
-3.00073e-26 -3.40627e-25        00000 
 1.76297e-25  1.77556e-24        00000 
-1.00251e-24 -9.48579e-24        00000 
 5.95519e-24  5.06191e-23        00000 
-2.54414e-23 -2.73034e-22        00000 
 1.26278e-22  1.23121e-21        00000 
-1.29361e-07 -2.46342e-07        00000 
-2.32316e-06 -6.01281e-06        00000 
-1.84766e-05 -7.10898e-05        00000 
-7.57976e-05 -4.81938e-04        00000 
-1.56623e-04 -1.85860e-03        00000 
-1.56623e-04 -4.02587e-03        00000 
-7.56682e-05 -5.40229e-03        00000 
-1.61534e-05 -5.80737e-03        00000 
 1.61534e-05 -5.80737e-03        00000 
 7.56682e-05 -5.40229e-03        00000 
 1.56623e-04 -4.02587e-03        00000 
 1.56623e-04 -1.85860e-03        00000 
 7.57976e-05 -4.81938e-04        00000 
 1.84766e-05 -7.10898e-05        00000 
 2.32316e-06 -6.01281e-06        00000 
 1.29361e-07 -2.46342e-07        00000 
-9.87080e-23  1.86691e-21        00000 
 2.55581e-23 -3.27442e-22        00000 
-5.17732e-24  7.09626e-23        00000 
 1.15486e-24 -1.43799e-23        00000 
-2.35867e-25  2.84830e-24        00000 
 4.40208e-26 -5.80824e-25        00000 
-1.26431e-26  2.18350e-25        00000 
-6.59435e-27 -1.94668e-25        00000 
 3.47747e-26  5.69411e-25        00000 
-2.57715e-25 -3.08389e-24        00000 
 1.58001e-24  1.68753e-23        00000 
-9.09618e-24 -9.28598e-23        00000 
 5.55407e-23  5.23670e-22        00000 
-1.18762e-07 -1.57812e-07        00000 
-2.31458e-06 -3.97788e-06        00000 
-2.30922e-05 -5.60021e-05        00000 
-1.37682e-04 -5.21307e-04        00000 
-4.68368e-04 -3.04744e-03        00000 
-8.63529e-04 -1.04858e-02        00000 
-8.63410e-04 -2.12833e-02        00000 
-4.66053e-04 -2.87178e-02        00000 
-1.14590e-04 -3.11919e-02        00000 
 1.14590e-04 -3.11919e-02        00000 
 4.66053e-04 -2.87178e-02        00000 
 8.63410e-04 -2.12833e-02        00000 
 8.63529e-04 -1.04858e-02        00000 
 4.68368e-04 -3.04744e-03        00000 
 1.37682e-04 -5.21307e-04        00000 
 2.30922e-05 -5.60021e-05        00000 
 2.31458e-06 -3.97788e-06        00000 
 1.18762e-07 -1.57812e-07        00000 
-4.17376e-23  7.92021e-22        00000 
 1.12872e-23 -1.49188e-22        00000 
-2.49078e-24  2.84441e-23        00000 
 4.55316e-25 -5.52267e-24        00000 
-4.76959e-26  1.09413e-24        00000 
 8.10244e-27 -4.06457e-25        00000 
-1.33343e-26  2.72353e-25        00000 
 2.86550e-27 -8.52537e-25        00000 
 2.18862e-25  4.83113e-24        00000 
-2.08569e-24 -2.76660e-23        00000 
 1.29017e-23  1.48887e-22        00000 
-6.67729e-08 -6.12686e-08        00000 
-1.15413e-06 -1.28939e-06        00000 
-1.24047e-05 -1.85359e-05        00000 
-1.01758e-04 -2.33564e-04        00000 
-5.42734e-04 -2.14688e-03        00000 
-1.63931e-03 -1.19881e-02        00000 
-2.75357e-03 -3.82740e-02        00000 
-2.75248e-03 -7.38657e-02        00000 
-1.62690e-03 -1.00134e-01        00000 
-4.40977e-04 -1.09761e-01        00000 
 4.40977e-04 -1.09761e-01        00000 
 1.62690e-03 -1.00134e-01        00000 
 2.75248e-03 -7.38657e-02        00000 
 2.75357e-03 -3.82740e-02        00000 
 1.63931e-03 -1.19881e-02        00000 
 5.42734e-04 -2.14688e-03        00000 
 1.01758e-04 -2.33564e-04        00000 
 1.24047e-05 -1.85359e-05        00000 
 1.15413e-06 -1.28939e-06        00000 
 6.67729e-08 -6.12686e-08        00000 
-2.99787e-23  2.72620e-22        00000 
 3.96681e-24 -5.15685e-23        00000 
-2.47311e-25  9.84605e-24        00000 
-5.00243e-26 -1.89688e-24        00000 
 5.91523e-26  6.68785e-25        00000 
 3.69281e-26 -3.15355e-25        00000 
-1.85390e-25  1.02843e-24        00000 
 4.17441e-25 -6.87448e-24        00000 
 7.45317e-25  3.97503e-23        00000 
-2.17096e-08 -1.31865e-08        00000 
-1.67623e-07 -9.65476e-08        00000 
-5.04064e-07  1.62313e-07        00000 
-1.10747e-05 -8.42941e-06        00000 
-1.68383e-04 -3.83238e-04        00000 
-9.98732e-04 -5.02193e-03        00000 
-2.65679e-03 -2.91143e-02        00000 
-3.80015e-03 -8.63304e-02        00000 
-3.79981e-03 -1.57198e-01        00000 
-2.64574e-03 -2.14405e-01        00000 
-8.30348e-04 -2.38123e-01        00000 
 8.30348e-04 -2.38123e-01        00000 
 2.64574e-03 -2.14405e-01        00000 
 3.79981e-03 -1.57198e-01        00000 
 3.80015e-03 -8.63304e-02        00000 
 2.65679e-03 -2.91143e-02        00000 
 9.98732e-04 -5.02193e-03        00000 
 1.68383e-04 -3.83238e-04        00000 
 1.10747e-05 -8.42941e-06        00000 
 5.04064e-07  1.62313e-07        00000 
 1.67623e-07 -9.65476e-08        00000 
 2.17096e-08 -1.31865e-08        00000 
-4.92006e-25  9.05292e-23        00000 
-1.09684e-24 -1.68151e-23        00000 
 4.55084e-25  3.08195e-24        00000 
-3.28798e-25 -9.86680e-25        00000 
 3.75717e-25  2.81480e-25        00000 
 4.91703e-25 -4.43425e-25        00000 
-3.59569e-24  4.77359e-24        00000 
-3.58924e-09 -1.28568e-09        00000 
 6.05875e-08  3.51160e-08        00000 
 1.33223e-06  8.77970e-07        00000 
 1.03003e-05  8.49621e-06        00000 
 4.10342e-05  7.37612e-05        00000 
-3.28813e-05 -1.16783e-04        00000 
-4.32575e-04 -7.59867e-03        00000 
 3.61647e-04 -4.40277e-02        00000 
 2.92479e-03 -1.06722e-01        00000 
 2.91582e-03 -1.67328e-01        00000 
 3.20674e-04 -2.30087e-01        00000 
-3.99697e-04 -2.66325e-01        00000 
 3.99697e-04 -2.66325e-01        00000 
-3.20674e-04 -2.30087e-01        00000 
-2.91582e-03 -1.67328e-01        00000 
-2.92479e-03 -1.06722e-01        00000 
-3.61647e-04 -4.40277e-02        00000 
 4.32575e-04 -7.59867e-03        00000 
 3.28813e-05 -1.16783e-04        00000 
-4.10342e-05  7.37612e-05        00000 
-1.03003e-05  8.49621e-06        00000 
-1.33223e-06  8.77970e-07        00000 
-6.05875e-08  3.51160e-08        00000 
 3.58924e-09 -1.28568e-09        00000 
 4.31465e-24  2.70891e-23        00000 
-2.08071e-24 -4.20943e-24        00000 
 1.50311e-24  8.74513e-25        00000 
-4.89184e-24 -2.11695e-24        00000 
 1.57392e-24 -4.06868e-25        00000 
-2.13530e-10 -2.66999e-11        00000 
 1.79814e-08  4.11330e-09        00000 
 1.05151e-07  5.65282e-08        00000 
-2.36420e-06 -1.61476e-06        00000 
-1.58984e-05 -2.33254e-05        00000 
-5.16559e-05  7.70597e-06        00000 
-3.36137e-04 -4.72999e-04        00000 
 1.46874e-04 -1.37499e-02        00000 
 5.84885e-03 -5.05492e-02        00000 
 1.34415e-02 -4.89293e-02        00000 
 1.34550e-02 -5.63819e-03        00000 
 5.90061e-03 -4.05094e-03        00000 
 4.83030e-04 -4.03695e-02        00000 
-4.83030e-04 -4.03695e-02        00000 
-5.90061e-03 -4.05094e-03        00000 
-1.34550e-02 -5.63819e-03        00000 
-1.34415e-02 -4.89293e-02        00000 
-5.84885e-03 -5.05492e-02        00000 
-1.46874e-04 -1.37499e-02        00000 
 3.36137e-04 -4.72999e-04        00000 
 5.16559e-05  7.70597e-06        00000 
 1.58984e-05 -2.33254e-05        00000 
 2.36420e-06 -1.61476e-06        00000 
-1.05151e-07  5.65282e-08        00000 
-1.79814e-08  4.11330e-09        00000 
 2.13530e-10 -2.66999e-11        00000 
 9.03581e-24  1.83532e-24        00000 
-7.06248e-24  2.07963e-24        00000 
 3.75255e-23  2.05673e-23        00000 
 1.27837e-12  1.14062e-12        00000 
 2.51734e-10 -1.95988e-10        00000 
-7.69336e-09 -6.21933e-09        00000 
-6.76245e-07 -1.76409e-07        00000 
-3.55479e-06  2.76274e-06        00000 
 9.45011e-06 -1.04589e-05        00000 
-7.53939e-05  2.35078e-04        00000 
-1.14550e-03 -1.85198e-03        00000 
-1.34163e-03 -3.03127e-02        00000 
 1.59367e-03 -6.32369e-02        00000 
 1.04471e-03  7.73949e-03        00000 
 1.03171e-03  1.14788e-01        00000 
 1.66839e-03  1.85521e-01        00000 
-1.96138e-04  1.54684e-01        00000 
 1.96138e-04  1.54684e-01        00000 
-1.66839e-03  1.85521e-01        00000 
-1.03171e-03  1.14788e-01        00000 
-1.04471e-03  7.73949e-03        00000 
-1.59367e-03 -6.32369e-02        00000 
 1.34163e-03 -3.03127e-02        00000 
 1.14550e-03 -1.85198e-03        00000 
 7.53939e-05  2.35078e-04        00000 
-9.45011e-06 -1.04589e-05        00000 
 3.55479e-06  2.76274e-06        00000 
 6.76245e-07 -1.76409e-07        00000 
 7.69336e-09 -6.21933e-09        00000 
-2.51734e-10 -1.95988e-10        00000 
-1.27837e-12  1.14062e-12        00000 
 3.54492e-23 -1.91804e-23        00000 
 2.14956e-13 -3.20870e-13        00000 
 4.06293e-11  1.87221e-11        00000 
-1.80866e-09  1.16089e-08        00000 
-2.56709e-07 -1.08947e-07        00000 
 1.48410e-06 -1.46210e-06        00000 
 1.55162e-05  5.88905e-06        00000 
 1.02261e-04 -8.89906e-05        00000 
 6.12028e-05  1.02389e-03        00000 
-2.44394e-04 -3.01860e-03        00000 
 1.89264e-03 -4.21439e-02        00000 
-3.45081e-03 -4.88818e-02        00000 
-1.94831e-02 -1.04484e-02        00000 
-1.95698e-02 -3.78830e-02        00000 
-3.51053e-03 -5.55092e-04        00000 
 2.13678e-03 -3.25179e-03        00000 
-2.13678e-03 -3.25179e-03        00000 
 3.51053e-03 -5.55092e-04        00000 