<?xml version="1.0" encoding="utf-8"?>
<VTKFile byte_order="LittleEndian" type="UnstructuredGrid" version="0.1">
   <UnstructuredGrid>
      <Piece NumberOfCells="3364" NumberOfPoints="1741">
         <Points>
            <DataArray Name="Points" NumberOfComponents="3" format="ascii" type="Float32">
0.0000 1.0000 0.0000
0.0000 1.0345 0.0000
0.0000 1.0690 0.0000
0.0000 1.1034 0.0000
0.0000 1.1379 0.0000
0.0000 1.1724 0.0000
0.0000 1.2069 0.0000
0.0000 1.2414 0.0000
0.0000 1.2759 0.0000
0.0000 1.3103 0.0000
0.0000 1.3448 0.0000
0.0000 1.3793 0.0000
0.0000 1.4138 0.0000
0.0000 1.4483 0.0000
0.0000 1.4828 0.0000
0.0000 1.5172 0.0000
0.0000 1.5517 0.0000
0.0000 1.5862 0.0000
0.0000 1.6207 0.0000
0.0000 1.6552 0.0000
0.0000 1.6897 0.0000
0.0000 1.7241 0.0000
0.0000 1.7586 0.0000
0.0000 1.7931 0.0000
0.0000 1.8276 0.0000
0.0000 1.8621 0.0000
0.0000 1.8966 0.0000
0.0000 1.9310 0.0000
0.0000 1.9655 0.0000
0.0000 2.0000 0.0000
0.0690 1.0000 0.0000
0.0690 1.0345 0.0000
0.0690 1.0690 0.0000
0.0690 1.1034 0.0000
0.0690 1.1379 0.0000
0.0690 1.1724 0.0000
0.0690 1.2069 0.0000
0.0690 1.2414 0.0000
0.0690 1.2759 0.0000
0.0690 1.3103 0.0000
0.0690 1.3448 0.0000
0.0690 1.3793 0.0000
0.0690 1.4138 0.0000
0.0690 1.4483 0.0000
0.0690 1.4828 0.0000
0.0690 1.5172 0.0000
0.0690 1.5517 0.0000
0.0690 1.5862 0.0000
0.0690 1.6207 0.0000
0.0690 1.6552 0.0000
0.0690 1.6897 0.0000
0.0690 1.7241 0.0000
0.0690 1.7586 0.0000
0.0690 1.7931 0.0000
0.0690 1.8276 0.0000
0.0690 1.8621 0.0000
0.0690 1.8966 0.0000
0.0690 1.9310 0.0000
0.0690 1.9655 0.0000
0.0690 2.0000 0.0000
0.1379 1.0000 0.0000
0.1379 1.0345 0.0000
0.1379 1.0690 0.0000
0.1379 1.1034 0.0000
0.1379 1.1379 0.0000
0.1379 1.1724 0.0000
0.1379 1.2069 0.0000
0.1379 1.2414 0.0000
0.1379 1.2759 0.0000
0.1379 1.3103 0.0000
0.1379 1.3448 0.0000
0.1379 1.3793 0.0000
0.1379 1.4138 0.0000
0.1379 1.4483 0.0000
0.1379 1.4828 0.0000
0.1379 1.5172 0.0000
0.1379 1.5517 0.0000
0.1379 1.5862 0.0000
0.1379 1.6207 0.0000
0.1379 1.6552 0.0000
0.1379 1.6897 0.0000
0.1379 1.7241 0.0000
0.1379 1.7586 0.0000
0.1379 1.7931 0.0000
0.1379 1.8276 0.0000
0.1379 1.8621 0.0000
0.1379 1.8966 0.0000
0.1379 1.9310 0.0000
0.1379 1.9655 0.0000
0.1379 2.0000 0.0000
0.2069 1.0000 0.0000
0.2069 1.0345 0.0000
0.2069 1.0690 0.0000
0.2069 1.1034 0.0000
0.2069 1.1379 0.0000
0.2069 1.1724 0.0000
0.2069 1.2069 0.0000
0.2069 1.2414 0.0000
0.2069 1.2759 0.0000
0.2069 1.3103 0.0000
0.2069 1.3448 0.0000
0.2069 1.3793 0.0000
0.2069 1.4138 0.0000
0.2069 1.4483 0.0000
0.2069 1.4828 0.0000
0.2069 1.5172 0.0000
0.2069 1.5517 0.0000
0.2069 1.5862 0.0000
0.2069 1.6207 0.0000
0.2069 1.6552 0.0000
0.2069 1.6897 0.0000
0.2069 1.7241 0.0000
0.2069 1.7586 0.0000
0.2069 1.7931 0.0000
0.2069 1.8276 0.0000
0.2069 1.8621 0.0000
0.2069 1.8966 0.0000
0.2069 1.9310 0.0000
0.2069 1.9655 0.0000
0.2069 2.0000 0.0000
0.2759 1.0000 0.0000
0.2759 1.0345 0.0000
0.2759 1.0690 0.0000
0.2759 1.1034 0.0000
0.2759 1.1379 0.0000
0.2759 1.1724 0.0000
0.2759 1.2069 0.0000
0.2759 1.2414 0.0000
0.2759 1.2759 0.0000
0.2759 1.3103 0.0000
0.2759 1.3448 0.0000
0.2759 1.3793 0.0000
0.2759 1.4138 0.0000
0.2759 1.4483 0.0000
0.2759 1.4828 0.0000
0.2759 1.5172 0.0000
0.2759 1.5517 0.0000
0.2759 1.5862 0.0000
0.2759 1.6207 0.0000
0.2759 1.6552 0.0000
0.2759 1.6897 0.0000
0.2759 1.7241 0.0000
0.2759 1.7586 0.0000
0.2759 1.7931 0.0000
0.2759 1.8276 0.0000
0.2759 1.8621 0.0000
0.2759 1.8966 0.0000
0.2759 1.9310 0.0000
0.2759 1.9655 0.0000
0.2759 2.0000 0.0000
0.3448 1.0000 0.0000
0.3448 1.0345 0.0000
0.3448 1.0690 0.0000
0.3448 1.1034 0.0000
0.3448 1.1379 0.0000
0.3448 1.1724 0.0000
0.3448 1.2069 0.0000
0.3448 1.2414 0.0000
0.3448 1.2759 0.0000
0.3448 1.3103 0.0000
0.3448 1.3448 0.0000
0.3448 1.3793 0.0000
0.3448 1.4138 0.0000
0.3448 1.4483 0.0000
0.3448 1.4828 0.0000
0.3448 1.5172 0.0000
0.3448 1.5517 0.0000
0.3448 1.5862 0.0000
0.3448 1.6207 0.0000
0.3448 1.6552 0.0000
0.3448 1.6897 0.0000
0.3448 1.7241 0.0000
0.3448 1.7586 0.0000
0.3448 1.7931 0.0000
0.3448 1.8276 0.0000
0.3448 1.8621 0.0000
0.3448 1.8966 0.0000
0.3448 1.9310 0.0000
0.3448 1.9655 0.0000
0.3448 2.0000 0.0000
0.4138 1.0000 0.0000
0.4138 1.0345 0.0000
0.4138 1.0690 0.0000
0.4138 1.1034 0.0000
0.4138 1.1379 0.0000
0.4138 1.1724 0.0000
0.4138 1.2069 0.0000
0.4138 1.2414 0.0000
0.4138 1.2759 0.0000
0.4138 1.3103 0.0000
0.4138 1.3448 0.0000
0.4138 1.3793 0.0000
0.4138 1.4138 0.0000
0.4138 1.4483 0.0000
0.4138 1.4828 0.0000
0.4138 1.5172 0.0000
0.4138 1.5517 0.0000
0.4138 1.5862 0.0000
0.4138 1.6207 0.0000
0.4138 1.6552 0.0000
0.4138 1.6897 0.0000
0.4138 1.7241 0.0000
0.4138 1.7586 0.0000
0.4138 1.7931 0.0000
0.4138 1.8276 0.0000
0.4138 1.8621 0.0000
0.4138 1.8966 0.0000
0.4138 1.9310 0.0000
0.4138 1.9655 0.0000
0.4138 2.0000 0.0000
0.4828 1.0000 0.0000
0.4828 1.0345 0.0000
0.4828 1.0690 0.0000
0.4828 1.1034 0.0000
0.4828 1.1379 0.0000
0.4828 1.1724 0.0000
0.4828 1.2069 0.0000
0.4828 1.2414 0.0000
0.4828 1.2759 0.0000
0.4828 1.3103 0.0000
0.4828 1.3448 0.0000
0.4828 1.3793 0.0000
0.4828 1.4138 0.0000
0.4828 1.4483 0.0000
0.4828 1.4828 0.0000
0.4828 1.5172 0.0000
0.4828 1.5517 0.0000
0.4828 1.5862 0.0000
0.4828 1.6207 0.0000
0.4828 1.6552 0.0000
0.4828 1.6897 0.0000
0.4828 1.7241 0.0000
0.4828 1.7586 0.0000
0.4828 1.7931 0.0000
0.4828 1.8276 0.0000
0.4828 1.8621 0.0000
0.4828 1.8966 0.0000
0.4828 1.9310 0.0000
0.4828 1.9655 0.0000
0.4828 2.0000 0.0000
0.5517 1.0000 0.0000
0.5517 1.0345 0.0000
0.5517 1.0690 0.0000
0.5517 1.1034 0.0000
0.5517 1.1379 0.0000
0.5517 1.1724 0.0000
0.5517 1.2069 0.0000
0.5517 1.2414 0.0000
0.5517 1.2759 0.0000
0.5517 1.3103 0.0000
0.5517 1.3448 0.0000
0.5517 1.3793 0.0000
0.5517 1.4138 0.0000
0.5517 1.4483 0.0000
0.5517 1.4828 0.0000
0.5517 1.5172 0.0000
0.5517 1.5517 0.0000
0.5517 1.5862 0.0000
0.5517 1.6207 0.0000
0.5517 1.6552 0.0000
0.5517 1.6897 0.0000
0.5517 1.7241 0.0000
0.5517 1.7586 0.0000
0.5517 1.7931 0.0000
0.5517 1.8276 0.0000
0.5517 1.8621 0.0000
0.5517 1.8966 0.0000
0.5517 1.9310 0.0000
0.5517 1.9655 0.0000
0.5517 2.0000 0.0000
0.6207 1.0000 0.0000
0.6207 1.0345 0.0000
0.6207 1.0690 0.0000
0.6207 1.1034 0.0000
0.6207 1.1379 0.0000
0.6207 1.1724 0.0000
0.6207 1.2069 0.0000
0.6207 1.2414 0.0000
0.6207 1.2759 0.0000
0.6207 1.3103 0.0000
0.6207 1.3448 0.0000
0.6207 1.3793 0.0000
0.6207 1.4138 0.0000
0.6207 1.4483 0.0000
0.6207 1.4828 0.0000
0.6207 1.5172 0.0000
0.6207 1.5517 0.0000
0.6207 1.5862 0.0000
0.6207 1.6207 0.0000
0.6207 1.6552 0.0000
0.6207 1.6897 0.0000
0.6207 1.7241 0.0000
0.6207 1.7586 0.0000
0.6207 1.7931 0.0000
0.6207 1.8276 0.0000
0.6207 1.8621 0.0000
0.6207 1.8966 0.0000
0.6207 1.9310 0.0000
0.6207 1.9655 0.0000
0.6207 2.0000 0.0000
0.6897 1.0000 0.0000
0.6897 1.0345 0.0000
0.6897 1.0690 0.0000
0.6897 1.1034 0.0000
0.6897 1.1379 0.0000
0.6897 1.1724 0.0000
0.6897 1.2069 0.0000
0.6897 1.2414 0.0000
0.6897 1.2759 0.0000
0.6897 1.3103 0.0000
0.6897 1.3448 0.0000
0.6897 1.3793 0.0000
0.6897 1.4138 0.0000
0.6897 1.4483 0.0000
0.6897 1.4828 0.0000
0.6897 1.5172 0.0000
0.6897 1.5517 0.0000
0.6897 1.5862 0.0000
0.6897 1.6207 0.0000
0.6897 1.6552 0.0000
0.6897 1.6897 0.0000
0.6897 1.7241 0.0000
0.6897 1.7586 0.0000
0.6897 1.7931 0.0000
0.6897 1.8276 0.0000
0.6897 1.8621 0.0000
0.6897 1.8966 0.0000
0.6897 1.9310 0.0000
0.6897 1.9655 0.0000
0.6897 2.0000 0.0000
0.7586 1.0000 0.0000
0.7586 1.0345 0.0000
0.7586 1.0690 0.0000
0.7586 1.1034 0.0000
0.7586 1.1379 0.0000
0.7586 1.1724 0.0000
0.7586 1.2069 0.0000
0.7586 1.2414 0.0000
0.7586 1.2759 0.0000
0.7586 1.3103 0.0000
0.7586 1.3448 0.0000
0.7586 1.3793 0.0000
0.7586 1.4138 0.0000
0.7586 1.4483 0.0000
0.7586 1.4828 0.0000
0.7586 1.5172 0.0000
0.7586 1.5517 0.0000
0.7586 1.5862 0.0000
0.7586 1.6207 0.0000
0.7586 1.6552 0.0000
0.7586 1.6897 0.0000
0.7586 1.7241 0.0000
0.7586 1.7586 0.0000
0.7586 1.7931 0.0000
0.7586 1.8276 0.0000
0.7586 1.8621 0.0000
0.7586 1.8966 0.0000
0.7586 1.9310 0.0000
0.7586 1.9655 0.0000
0.7586 2.0000 0.0000
0.8276 1.0000 0.0000
0.8276 1.0345 0.0000
0.8276 1.0690 0.0000
0.8276 1.1034 0.0000
0.8276 1.1379 0.0000
0.8276 1.1724 0.0000
0.8276 1.2069 0.0000
0.8276 1.2414 0.0000
0.8276 1.2759 0.0000
0.8276 1.3103 0.0000
0.8276 1.3448 0.0000
0.8276 1.3793 0.0000
0.8276 1.4138 0.0000
0.8276 1.4483 0.0000
0.8276 1.4828 0.0000
0.8276 1.5172 0.0000
0.8276 1.5517 0.0000
0.8276 1.5862 0.0000
0.8276 1.6207 0.0000
0.8276 1.6552 0.0000
0.8276 1.6897 0.0000
0.8276 1.7241 0.0000
0.8276 1.7586 0.0000
0.8276 1.7931 0.0000
0.8276 1.8276 0.0000
0.8276 1.8621 0.0000
0.8276 1.8966 0.0000
0.8276 1.9310 0.0000
0.8276 1.9655 0.0000
0.8276 2.0000 0.0000
0.8966 1.0000 0.0000
0.8966 1.0345 0.0000
0.8966 1.0690 0.0000
0.8966 1.1034 0.0000
0.8966 1.1379 0.0000
0.8966 1.1724 0.0000
0.8966 1.2069 0.0000
0.8966 1.2414 0.0000
0.8966 1.2759 0.0000
0.8966 1.3103 0.0000
0.8966 1.3448 0.0000
0.8966 1.3793 0.0000
0.8966 1.4138 0.0000
0.8966 1.4483 0.0000
0.8966 1.4828 0.0000
0.8966 1.5172 0.0000
0.8966 1.5517 0.0000
0.8966 1.5862 0.0000
0.8966 1.6207 0.0000
0.8966 1.6552 0.0000
0.8966 1.6897 0.0000
0.8966 1.7241 0.0000
0.8966 1.7586 0.0000
0.8966 1.7931 0.0000
0.8966 1.8276 0.0000
0.8966 1.8621 0.0000
0.8966 1.8966 0.0000
0.8966 1.9310 0.0000
0.8966 1.9655 0.0000
0.8966 2.0000 0.0000
0.9655 1.0000 0.0000
0.9655 1.0345 0.0000
0.9655 1.0690 0.0000
0.9655 1.1034 0.0000
0.9655 1.1379 0.0000
0.9655 1.1724 0.0000
0.9655 1.2069 0.0000
0.9655 1.2414 0.0000
0.9655 1.2759 0.0000
0.9655 1.3103 0.0000
0.9655 1.3448 0.0000
0.9655 1.3793 0.0000
0.9655 1.4138 0.0000
0.9655 1.4483 0.0000
0.9655 1.4828 0.0000
0.9655 1.5172 0.0000
0.9655 1.5517 0.0000
0.9655 1.5862 0.0000
0.9655 1.6207 0.0000
0.9655 1.6552 0.0000
0.9655 1.6897 0.0000
0.9655 1.7241 0.0000
0.9655 1.7586 0.0000
0.9655 1.7931 0.0000
0.9655 1.8276 0.0000
0.9655 1.8621 0.0000
0.9655 1.8966 0.0000
0.9655 1.9310 0.0000
0.9655 1.9655 0.0000
0.9655 2.0000 0.0000
1.0345 1.0000 0.0000
1.0345 1.0345 0.0000
1.0345 1.0690 0.0000
1.0345 1.1034 0.0000
1.0345 1.1379 0.0000
1.0345 1.1724 0.0000
1.0345 1.2069 0.0000
1.0345 1.2414 0.0000
1.0345 1.2759 0.0000
1.0345 1.3103 0.0000
1.0345 1.3448 0.0000
[...]
         <PointData>
            <DataArray Name="fValues" NumberOfComponents="3" format="ascii" type="Float64">
 3.11097e-23  6.15663e-23        00000 
 2.24586e-23 -1.12293e-23        00000 
-2.63729e-23 -4.44176e-23        00000 
 7.81304e-23 -1.24520e-22        00000 
-5.55220e-23 -1.11044e-23        00000 
-1.56045e-22  9.15123e-24        00000 
 1.11044e-22  3.33132e-23        00000 
-1.45797e-22  1.44053e-22        00000 
 1.11044e-23 -8.88352e-23        00000 
 1.05121e-22  4.18755e-23        00000 
       00000 -7.77308e-23        00000 
-5.92954e-24  5.23195e-24        00000 
 6.94025e-24 -5.55220e-24        00000 
-3.20257e-23 -1.31730e-23        00000 
 2.63729e-23  1.11044e-23        00000 
-1.26439e-23 -2.44158e-24        00000 
 1.94327e-23 -7.77308e-23        00000 
 1.55461e-23  7.92468e-23        00000 
-6.66264e-23 -6.10742e-23        00000 
-1.15822e-22 -5.47611e-23        00000 
 1.01675e-22  3.88654e-23        00000 
-2.33964e-22 -1.23720e-22        00000 
 8.71001e-23  1.16596e-22        00000 
 5.10987e-23 -1.04988e-22        00000 
-3.60893e-23 -1.11044e-23        00000 
 1.57940e-22 -7.86589e-23        00000 
 4.44176e-23  2.77610e-23        00000 
-2.95283e-23 -7.44322e-23        00000 
 5.91481e-23  8.32974e-23        00000 
-5.88562e-23 -3.55141e-23        00000 
-2.03797e-07 -4.05760e-07        00000 
-7.28847e-07 -5.21188e-07        00000 
 9.78500e-08  8.83772e-07        00000 
 1.49139e-07 -1.65651e-06        00000 
 2.76065e-07 -6.25265e-07        00000 
-6.12074e-07 -4.49415e-07        00000 
 3.13093e-07  1.08091e-07        00000 
 9.88091e-07 -1.08330e-06        00000 
-3.41734e-08  6.44533e-07        00000 
 1.19093e-06 -3.73449e-07        00000 
 1.15147e-08  6.56328e-07        00000 
-3.86273e-08 -3.19688e-08        00000 
-3.08521e-07 -5.47266e-07        00000 
 1.30696e-07  4.77182e-07        00000 
-1.30469e-07 -5.27142e-07        00000 
 1.29690e-07 -5.31670e-07        00000 
-1.31662e-07  4.62086e-07        00000 
 3.07390e-07 -5.75931e-07        00000 
 3.76333e-08 -7.51106e-08        00000 
-1.19107e-08  6.03154e-07        00000 
-1.19035e-06 -4.26211e-07        00000 
 3.57980e-08  6.05910e-07        00000 
-9.85744e-07 -1.09568e-06        00000 
-3.10632e-07  1.27706e-07        00000 
 6.13980e-07 -4.00751e-07        00000 
-2.75210e-07 -5.58340e-07        00000 
-1.49526e-07 -1.58660e-06        00000 
-9.93554e-08  9.41095e-07        00000 
 7.26598e-07 -4.88620e-07        00000 
 2.02680e-07 -4.04700e-07        00000 
-7.63050e-08  7.42134e-07        00000 
 1.19456e-06 -1.02641e-06        00000 
 7.68714e-07  1.74910e-06        00000 
-1.70889e-07  2.15785e-07        00000 
 5.57334e-07  1.30485e-06        00000 
 2.15526e-07  6.24337e-08        00000 
 6.70366e-08  1.61790e-07        00000 
 1.06784e-08  2.81960e-07        00000 
-6.15598e-07  7.43542e-08        00000 
-2.00437e-08  1.48696e-08        00000 
 8.42198e-07  5.90669e-07        00000 
-9.12723e-07  4.30285e-07        00000 
-2.89082e-07 -1.34946e-06        00000 
 9.03595e-07 -2.43365e-07        00000 
 2.77804e-07  9.13394e-07        00000 
-2.78527e-07  9.04687e-07        00000 
-9.04512e-07 -2.72526e-07        00000 
 2.87987e-07 -1.40515e-06        00000 
 9.11745e-07  3.46084e-07        00000 
-8.42603e-07  4.86564e-07        00000 
 2.05888e-08 -8.86407e-08        00000 
 6.17164e-07 -1.53721e-09        00000 
-8.40699e-09  2.57529e-07        00000 
-6.46546e-08  2.00152e-07        00000 
-2.13684e-07  1.57783e-07        00000 
-5.56513e-07  1.43597e-06        00000 
 1.70510e-07  3.52699e-07        00000 
-7.70169e-07  1.86134e-06        00000 
-1.19671e-06 -9.62781e-07        00000 
 7.52401e-08  7.44157e-07        00000 
 3.63392e-07 -2.62719e-07        00000 
-5.78721e-08 -8.86885e-07        00000 
-4.39865e-07 -8.26885e-07        00000 
 1.52860e-07  1.13997e-06        00000 
 4.91380e-07  9.49026e-07        00000 
 2.04269e-07  6.28165e-08        00000 
-4.36505e-07 -8.36306e-09        00000 
 3.12048e-07 -6.92363e-08        00000 
 3.94951e-07 -1.48511e-06        00000 
 9.40085e-07  1.43936e-06        00000 
-3.27597e-07 -7.21099e-07        00000 
-6.74413e-09 -9.16324e-07        00000 
 1.67178e-07 -3.71856e-07        00000 
 4.78903e-08 -6.28710e-08        00000 
 5.92137e-07 -5.71883e-07        00000 
-5.92725e-07 -5.84113e-07        00000 
-4.86767e-08 -1.04140e-07        00000 
-1.68160e-07 -4.51388e-07        00000 
 5.83793e-09 -1.03743e-06        00000 
 3.27195e-07 -8.71547e-07        00000 
-9.39628e-07  1.28930e-06        00000 
-3.93563e-07 -1.59539e-06        00000 
-3.10015e-07 -1.04955e-07        00000 
 4.38639e-07  4.69935e-08        00000 
-2.02626e-07  2.00774e-07        00000 
-4.90657e-07  1.13873e-06        00000 
-1.53207e-07  1.33792e-06        00000 
 4.38571e-07 -6.64735e-07        00000 
 5.59731e-08 -7.95053e-07        00000 
-3.64332e-07 -2.59806e-07        00000 
-7.10043e-08  2.22640e-07        00000 
 3.34851e-07 -1.81888e-06        00000 
 3.24623e-07 -8.10436e-07        00000 
 1.51486e-07  5.44449e-07        00000 
 7.63953e-07 -2.71618e-08        00000 
 7.04910e-07 -7.26180e-07        00000 
 1.21025e-06 -5.37714e-07        00000 
-4.43142e-07  2.89259e-07        00000 
 3.43588e-07 -1.27247e-06        00000 
-1.31710e-07  6.42874e-07        00000 
-2.06407e-07  4.54477e-07        00000 
 4.11060e-07  4.80176e-07        00000 
 2.33385e-07 -1.39383e-06        00000 
-3.79887e-07  9.88706e-07        00000 
 2.72632e-07  4.18513e-07        00000 
-2.73040e-07  4.03701e-07        00000 
 3.79275e-07  9.38146e-07        00000 
-2.34214e-07 -1.49261e-06        00000 
-4.11868e-07  3.28173e-07        00000 
 2.06009e-07  2.64318e-07        00000 
 1.32050e-07  4.52359e-07        00000 
-3.42437e-07 -1.41296e-06        00000 
 4.44853e-07  2.43360e-07        00000 
-1.20846e-06 -4.67893e-07        00000 
-7.03536e-07 -5.51509e-07        00000 
-7.63360e-07  2.12988e-07        00000 
-1.51787e-07  7.94812e-07        00000 
-3.25702e-07 -6.05570e-07        00000 
-3.36416e-07 -1.70298e-06        00000 
 7.02321e-08  2.26316e-07        00000 
-1.13762e-07 -7.28572e-07        00000 
-1.15885e-06 -5.68665e-07        00000 
 2.39240e-07 -3.58992e-07        00000 
 6.50894e-07 -4.61222e-07        00000 
 6.60794e-07  1.45384e-06        00000 
 2.00707e-07  5.44206e-08        00000 
 3.52532e-07 -1.09522e-06        00000 
 7.21805e-07 -8.68218e-07        00000 
 3.98163e-07  1.81719e-06        00000 
-4.15505e-08  5.94584e-07        00000 
 3.12259e-07 -6.86027e-07        00000 
 5.44425e-07  6.46625e-07        00000 
 3.07772e-07 -1.34709e-07        00000 
-6.01926e-07  1.12193e-07        00000 
-9.30463e-08 -8.54932e-07        00000 
 9.28535e-08 -8.71145e-07        00000 
 6.01525e-07  5.58798e-08        00000 
-3.08416e-07 -2.46961e-07        00000 
-5.45114e-07  4.71286e-07        00000 
-3.12651e-07 -9.07525e-07        00000 
 4.17491e-08  3.71296e-07        00000 
-3.97300e-07  1.65177e-06        00000 
-7.20483e-07 -9.22890e-07        00000 
-3.51141e-07 -1.01412e-06        00000 
-1.99658e-07  2.58360e-07        00000 
-6.60360e-07  1.73417e-06        00000 
-6.51142e-07 -1.69346e-07        00000 
-2.40058e-07 -1.20501e-07        00000 
 1.15768e-06 -4.33894e-07        00000 
 1.13192e-07 -7.24299e-07        00000 
-8.16627e-07  2.41151e-07        00000 
-9.34936e-07 -6.51153e-07        00000 
-7.81691e-07 -2.77362e-07        00000 
 1.88953e-07 -1.49992e-06        00000 
-2.60359e-07  3.31410e-07        00000 
 8.13707e-07 -1.08322e-06        00000 
 5.32336e-07 -1.75333e-07        00000 
 1.33845e-06 -9.37033e-07        00000 
 5.48076e-07  5.54608e-07        00000 
-4.62053e-07  1.12871e-06        00000 
-8.37164e-07  7.91832e-07        00000 
-4.11575e-07 -1.59896e-07        00000 
 2.07087e-07  1.11060e-07        00000 
-5.58211e-07  5.90857e-07        00000 
-1.37349e-06  5.34044e-07        00000 
 1.37353e-06  5.17791e-07        00000 
 5.58045e-07  5.32873e-07        00000 
-2.07523e-07 -7.97807e-09        00000 
 4.11022e-07 -3.49796e-07        00000 
 8.36781e-07  5.48731e-07        00000 
 4.62094e-07  8.81611e-07        00000 
-5.47539e-07  3.70433e-07        00000 
-1.33756e-06 -9.98828e-07        00000 
-5.31403e-07 -8.66785e-08        00000 
-8.13024e-07 -8.58680e-07        00000 
 2.60615e-07  6.39961e-07        00000 
-1.89139e-07 -1.17920e-06        00000 
 7.81166e-07 -1.58164e-08        00000 
 9.34227e-07 -5.03578e-07        00000 
 8.16285e-07  2.45827e-07        00000 
-5.05503e-07 -1.65193e-07        00000 
 1.62237e-07 -5.20503e-07        00000 
-4.65192e-07 -2.37339e-07        00000 
-8.41323e-07 -1.13184e-06        00000 
-3.86923e-07  8.50715e-07        00000 
-6.26116e-07  2.48864e-06        00000 
 1.20396e-06 -4.04670e-09        00000 
-4.45174e-07  5.22100e-07        00000 
-1.97168e-08  4.93566e-07        00000 
-7.98567e-07  2.06001e-06        00000 
 7.79145e-07  1.08664e-06        00000 
 5.82911e-07 -1.82997e-06        00000 
-1.42357e-08 -3.84472e-07        00000 
 7.11252e-07  3.17004e-07        00000 
 3.18813e-07  6.48983e-07        00000 
-3.18512e-07  6.34164e-07        00000 
-7.11167e-07  2.61775e-07        00000 
 1.40233e-08 -5.03026e-07        00000 
-5.83316e-07 -2.02485e-06        00000 
-7.79515e-07  8.32595e-07        00000 
 7.98441e-07  1.79892e-06        00000 
 1.99079e-08  2.97413e-07        00000 
 4.45587e-07  4.55010e-07        00000 
-1.20352e-06  8.81104e-08        00000 
 6.26408e-07  2.72429e-06        00000 
 3.86989e-07  1.17440e-06        00000 
 8.41204e-07 -7.96169e-07        00000 
 4.64981e-07  3.56921e-08        00000 
-1.62461e-07 -3.66756e-07        00000 
 5.05405e-07 -1.60324e-07        00000 
-5.51201e-07  7.26477e-07        00000 
-1.22419e-07 -2.45017e-06        00000 
-3.25150e-07  9.22365e-07        00000 
-9.52447e-08  9.55815e-08        00000 
 9.00067e-08 -4.70595e-07        00000 
-2.62223e-07 -9.40852e-08        00000 
 5.50478e-07 -1.64783e-06        00000 
 8.80734e-07  7.57758e-07        00000 
-4.76548e-07  3.40555e-07        00000 
-3.66002e-07 -9.03590e-09        00000 
 5.04479e-07  1.77743e-06        00000 
-8.24490e-08 -1.62522e-06        00000 
-2.51787e-07 -7.07950e-07        00000 
 5.66998e-07  7.48796e-07        00000 
-4.55060e-07  8.40697e-07        00000 
 4.55616e-07  8.28819e-07        00000 
-5.66660e-07  7.00871e-07        00000 
 2.51803e-07 -8.18512e-07        00000 
 8.21987e-08 -1.81515e-06        00000 
-5.04834e-07  1.52355e-06        00000 
 3.65707e-07 -2.73825e-07        00000 
 4.76386e-07  1.39534e-07        00000 
-8.80800e-07  6.87307e-07        00000 
-5.50538e-07 -1.55639e-06        00000 
 2.62114e-07  1.42768e-07        00000 
-9.01337e-08 -1.45444e-07        00000 
 9.51935e-08  4.31736e-07        00000 
 3.25259e-07  1.19483e-06        00000 
 1.22688e-07 -2.29716e-06        00000 
 5.51351e-07  7.31319e-07        00000 
-3.75223e-08 -2.23829e-08        00000 
 7.50007e-08 -7.08299e-07        00000 
-1.54037e-07  5.35514e-09        00000 
-2.24308e-07 -4.44674e-08        00000 
-2.53999e-07 -1.63596e-06        00000 
 9.57716e-07 -6.58631e-07        00000 
-1.58097e-07 -1.55595e-06        00000 
-1.94606e-07 -7.88674e-07        00000 
 3.61476e-08  7.65200e-07        00000 
 3.19467e-07 -1.43272e-06        00000 
 5.51815e-07  9.26553e-07        00000 
-1.67183e-07  7.01632e-07        00000 
 4.64870e-07  6.66778e-07        00000 
-2.48111e-07  8.76657e-07        00000 
 6.31621e-07  7.30264e-08        00000 
-6.30824e-07  6.55576e-08        00000 
 2.48691e-07  8.40479e-07        00000 
-4.64630e-07  5.71588e-07        00000 
 1.67087e-07  5.26503e-07        00000 
-5.52149e-07  6.83896e-07        00000 
-3.19922e-07 -1.69094e-06        00000 
-3.66534e-08  5.66444e-07        00000 
 1.94069e-07 -8.60522e-07        00000 
 1.57546e-07 -1.46944e-06        00000 
-9.58215e-07 -4.30452e-07        00000 
 2.53684e-07 -1.32295e-06        00000 
 2.24325e-07  2.77760e-07        00000 
 1.54458e-07  2.65264e-07        00000 
-7.42531e-08 -5.62889e-07        00000 
 3.79132e-08 -1.77870e-08        00000 
 2.48843e-07 -5.76732e-07        00000 
-5.65530e-07  1.29195e-06        00000 
-3.42754e-07 -7.57697e-07        00000 
 1.83579e-07  1.33283e-06        00000 
 1.10516e-06 -9.57451e-07        00000 
 1.99021e-07  1.07588e-06        00000 
-7.07471e-07 -1.14779e-06        00000 
-6.00366e-07 -2.66939e-08        00000 
 7.13079e-07  1.52458e-06        00000 
 2.09225e-07 -1.54558e-06        00000 
-3.63416e-07  1.17862e-06        00000 
 3.93760e-07  1.26969e-06        00000 
 2.41383e-07 -8.33471e-07        00000 
 8.44812e-07  7.95879e-07        00000 
 4.69274e-07  1.20861e-06        00000 
-4.68261e-07  1.20690e-06        00000 
-8.44010e-07  7.75555e-07        00000 
-2.40934e-07 -9.06400e-07        00000 
-3.93707e-07  1.11862e-06        00000 
 3.63108e-07  9.57687e-07        00000 
-2.09825e-07 -1.78740e-06        00000 
-7.13904e-07  1.33495e-06        00000 
 5.99391e-07 -9.80183e-08        00000 
 7.06461e-07 -1.07016e-06        00000 
-1.99884e-07  1.28598e-06        00000 
-1.10565e-06 -6.69558e-07        00000 
-1.83498e-07  1.62742e-06        00000 
 3.43466e-07 -5.21733e-07        00000 
 5.66721e-07  1.42325e-06        00000 
-2.48230e-07 -5.72589e-07        00000 
 6.78856e-09  1.19520e-07        00000 
 4.99944e-07  5.25784e-07        00000 
-4.38260e-07 -7.76800e-07        00000 
-4.03561e-07 -3.94301e-07        00000 
 3.80987e-07 -1.10606e-06        00000 
 7.29372e-07 -3.63514e-07        00000 
-1.57763e-06  2.72402e-07        00000 
-5.03923e-07 -1.02569e-06        00000 
-1.44118e-07  8.19774e-07        00000 
 6.39330e-07  6.29537e-07        00000 
-9.06729e-07  3.32235e-07        00000 
-7.34208e-07  1.39560e-06        00000 
-1.57259e-07 -7.10323e-07        00000 
 8.95286e-07  1.25629e-06        00000 
 3.84246e-07  1.43510e-07        00000 
-3.83053e-07  1.48713e-07        00000 
-8.94294e-07  1.25538e-06        00000 
 1.57894e-07 -7.54933e-07        00000 
 7.34399e-07  1.27688e-06        00000 
 9.06453e-07  1.42523e-07        00000 
-6.40053e-07  4.13068e-07        00000 
 1.43012e-07  6.45564e-07        00000 
 5.02559e-07 -1.09469e-06        00000 
 1.57622e-06  3.37546e-07        00000 
-7.30555e-07 -1.80021e-07        00000 
-3.81626e-07 -8.55024e-07        00000 
 4.03701e-07 -1.39731e-07        00000 
 4.39227e-07 -5.75055e-07        00000 
-4.98363e-07  6.37092e-07        00000 
-5.97990e-09  1.23024e-07        00000 
-5.42631e-07 -8.38043e-07        00000 
-5.40171e-07 -1.08136e-06        00000 
 3.79157e-07 -5.76761e-07        00000 
 1.58291e-07 -3.49721e-07        00000 
 2.21492e-07 -1.13873e-06        00000 
-1.16405e-07  4.68912e-07        00000 
-5.20222e-07  8.22321e-07        00000 
 6.17178e-07  4.33335e-07        00000 
-2.32180e-07 -1.73413e-06        00000 
-5.91727e-07 -1.05886e-06        00000 
-4.70729e-07 -1.33237e-06        00000 
 1.35042e-06  1.22720e-06        00000 
 6.86643e-07  3.51824e-07        00000 
-1.49464e-06  1.09266e-06        00000 
-1.24815e-06  1.96433e-07        00000 
 1.24948e-06  2.09452e-07        00000 
 1.49578e-06  1.11398e-06        00000 
-6.85853e-07  3.40452e-07        00000 
-1.35011e-06  1.14770e-06        00000 
 4.70490e-07 -1.48282e-06        00000 
 5.90911e-07 -1.24228e-06        00000 
 2.30846e-07 -1.88744e-06        00000 
-6.18865e-07  3.68282e-07        00000 
 5.18467e-07  8.71970e-07        00000 
 1.14957e-07  6.18535e-07        00000 
-2.22253e-07 -9.34553e-07        00000 
-1.58101e-07 -1.45701e-07        00000 
-3.77979e-07 -4.17936e-07        00000 
 5.42068e-07 -9.94997e-07        00000 
 5.43598e-07 -8.35337e-07        00000 
-2.85540e-07 -1.03153e-07        00000 
 2.34713e-08  6.29565e-07        00000 
 5.54048e-07  7.63811e-07        00000 
-9.18518e-07  1.13994e-06        00000 
-8.85477e-07 -1.38375e-06        00000 
-4.61872e-07  3.30628e-07        00000 
 5.51298e-07 -2.73055e-07        00000 
-1.18461e-06  7.73300e-07        00000 
-1.01968e-06 -1.34967e-06        00000 
-5.88206e-07  5.72015e-07        00000 
-3.53752e-07  1.53603e-07        00000 
-1.28171e-07  1.05796e-06        00000 
 9.93792e-08  2.28498e-06        00000 
 5.04763e-07  1.28105e-07        00000 
 1.71048e-07 -2.27181e-07        00000 
-1.69645e-07 -2.05755e-07        00000 
-5.03525e-07  1.73580e-07        00000 
-9.84723e-08  2.31037e-06        00000 
 1.28590e-07  1.02284e-06        00000 
 3.53555e-07  4.86552e-08        00000 
 5.87331e-07  4.27756e-07        00000 
 1.01817e-06 -1.47766e-06        00000 
 1.18268e-06  7.13576e-07        00000 
-5.53307e-07 -2.41219e-07        00000 
 4.60227e-07  4.40694e-07        00000 
 8.84628e-07 -1.23425e-06        00000 
 9.18748e-07  1.28522e-06        00000 
-5.52715e-07  8.72979e-07        00000 
-2.13445e-08  6.87156e-07        00000 
 2.86621e-07 -1.01366e-07        00000 
 6.11934e-07  5.43237e-07        00000 
-1.06394e-07 -2.26293e-07        00000 
-2.00861e-07  1.84644e-06        00000 
-2.10675e-07 -4.57529e-07        00000 
-7.58472e-07 -5.11089e-07        00000 
-6.77880e-07  9.20938e-07        00000 
-2.91811e-07  1.39868e-06        00000 
-4.41669e-07  1.21829e-06        00000 
-1.44995e-07 -8.66196e-07        00000 
-3.79002e-07 -1.12042e-06        00000 
 3.45758e-07  3.59792e-07        00000 
-7.92068e-08  1.55560e-07        00000 
-4.67515e-07  1.82463e-06        00000 
-5.91507e-07 -8.47137e-07        00000 
 1.23537e-07 -3.02413e-09        00000 
-1.22116e-07  2.70510e-08        00000 
 5.92788e-07 -7.76607e-07        00000 
 4.68497e-07  1.88873e-06        00000 
 7.97081e-08  1.68029e-07        00000 
-3.45906e-07  3.04515e-07        00000 
 3.78107e-07 -1.22123e-06        00000 
 1.43394e-07 -9.65643e-07        00000 
 4.39586e-07  1.16499e-06        00000 
 2.89640e-07  1.41119e-06        00000 
 6.76114e-07  9.87580e-07        00000 
 7.57574e-07 -4.21582e-07        00000 
 2.10935e-07 -3.76496e-07        00000 
 2.02289e-07  1.90148e-06        00000 
 1.08653e-07 -1.99990e-07        00000 
-6.10788e-07  5.44026e-07        00000 
 3.56397e-08  5.26397e-07        00000 
-6.19335e-08  4.04235e-07        00000 
-2.82945e-07  4.17607e-07        00000 
 2.56628e-07 -1.64557e-06        00000 
-3.68493e-07  5.93355e-07        00000 
-2.58663e-07 -1.00001e-08        00000 
-5.81284e-07  6.09165e-07        00000 
 5.27075e-08  4.66571e-07        00000 
-8.30528e-08  3.63459e-07        00000 
-3.04719e-07 -2.15734e-06        00000 
-3.83476e-07  2.50167e-07        00000 
-5.32211e-07 -1.54934e-06        00000 
-5.33844e-07  4.07166e-07        00000 
-7.63802e-08 -9.95928e-07        00000 
 2.11295e-07 -5.13775e-07        00000 
-2.09919e-07 -4.75183e-07        00000 
 7.76484e-08 -9.00534e-07        00000 
 5.34855e-07  5.10203e-07        00000 
 5.32771e-07 -1.48823e-06        00000 
 3.83381e-07  2.46466e-07        00000 
 3.03843e-07 -2.21243e-06        00000 
 8.14254e-08  2.94440e-07        00000 
-5.48492e-08  4.20485e-07        00000 
 5.79051e-07  6.01707e-07        00000 
 2.56856e-07  1.13352e-08        00000 
 3.67586e-07  6.20306e-07        00000 
-2.56351e-07 -1.63136e-06        00000 
 2.84402e-07  4.16502e-07        00000 
 6.42235e-08  3.98149e-07        00000 
-3.44809e-08  5.26153e-07        00000 
 1.00600e-06 -7.50076e-07        00000 
 3.41431e-07  2.14510e-06        00000 
 2.87067e-07  2.74144e-07        00000 
-2.11416e-07 -1.29611e-06        00000 
 2.04883e-08  1.31259e-06        00000 
-9.43480e-08 -8.55431e-08        00000 
 7.77636e-07 -3.97688e-08        00000 
 2.11680e-07 -2.19986e-07        00000 
-1.61967e-07  1.00729e-06        00000 
-1.74604e-07 -1.40724e-07        00000 
-9.42088e-07 -1.47437e-06        00000 
-7.83908e-07  4.18247e-07        00000 
-6.05299e-07  4.27948e-07        00000 
-1.00837e-08  5.30895e-07        00000 
 9.21698e-07 -3.72369e-07        00000 
-9.20429e-07 -3.25778e-07        00000 
 1.12806e-08  6.49840e-07        00000 