<?xml version="1.0" encoding="utf-8"?>
<VTKFile byte_order="LittleEndian" type="UnstructuredGrid" version="0.1">
   <UnstructuredGrid>
      <Piece NumberOfCells="3364" NumberOfPoints="1741">
         <Points>
            <DataArray Name="Points" NumberOfComponents="3" format="ascii" type="Float32">
0.0000 1.0000 0.0000
0.0000 1.0345 0.0000
0.0000 1.0690 0.0000
0.0000 1.1034 0.0000
0.0000 1.1379 0.0000
0.0000 1.1724 0.0000
0.0000 1.2069 0.0000
0.0000 1.2414 0.0000
0.0000 1.2759 0.0000
0.0000 1.3103 0.0000
0.0000 1.3448 0.0000
0.0000 1.3793 0.0000
0.0000 1.4138 0.0000
0.0000 1.4483 0.0000
0.0000 1.4828 0.0000
0.0000 1.5172 0.0000
0.0000 1.5517 0.0000
0.0000 1.5862 0.0000
0.0000 1.6207 0.0000
0.0000 1.6552 0.0000
0.0000 1.6897 0.0000
0.0000 1.7241 0.0000
0.0000 1.7586 0.0000
0.0000 1.7931 0.0000
0.0000 1.8276 0.0000
0.0000 1.8621 0.0000
0.0000 1.8966 0.0000
0.0000 1.9310 0.0000
0.0000 1.9655 0.0000
0.0000 2.0000 0.0000
0.0690 1.0000 0.0000
0.0690 1.0345 0.0000
0.0690 1.0690 0.0000
0.0690 1.1034 0.0000
0.0690 1.1379 0.0000
0.0690 1.1724 0.0000
0.0690 1.2069 0.0000
0.0690 1.2414 0.0000
0.0690 1.2759 0.0000
0.0690 1.3103 0.0000
0.0690 1.3448 0.0000
0.0690 1.3793 0.0000
0.0690 1.4138 0.0000
0.0690 1.4483 0.0000
0.0690 1.4828 0.0000
0.0690 1.5172 0.0000
0.0690 1.5517 0.0000
0.0690 1.5862 0.0000
0.0690 1.6207 0.0000
0.0690 1.6552 0.0000
0.0690 1.6897 0.0000
0.0690 1.7241 0.0000
0.0690 1.7586 0.0000
0.0690 1.7931 0.0000
0.0690 1.8276 0.0000
0.0690 1.8621 0.0000
0.0690 1.8966 0.0000
0.0690 1.9310 0.0000
0.0690 1.9655 0.0000
0.0690 2.0000 0.0000
0.1379 1.0000 0.0000
0.1379 1.0345 0.0000
0.1379 1.0690 0.0000
0.1379 1.1034 0.0000
0.1379 1.1379 0.0000
0.1379 1.1724 0.0000
0.1379 1.2069 0.0000
0.1379 1.2414 0.0000
0.1379 1.2759 0.0000
0.1379 1.3103 0.0000
0.1379 1.3448 0.0000
0.1379 1.3793 0.0000
0.1379 1.4138 0.0000
0.1379 1.4483 0.0000
0.1379 1.4828 0.0000
0.1379 1.5172 0.0000
0.1379 1.5517 0.0000
0.1379 1.5862 0.0000
0.1379 1.6207 0.0000
0.1379 1.6552 0.0000
0.1379 1.6897 0.0000
0.1379 1.7241 0.0000
0.1379 1.7586 0.0000
0.1379 1.7931 0.0000
0.1379 1.8276 0.0000
0.1379 1.8621 0.0000
0.1379 1.8966 0.0000
0.1379 1.9310 0.0000
0.1379 1.9655 0.0000
0.1379 2.0000 0.0000
0.2069 1.0000 0.0000
0.2069 1.0345 0.0000
0.2069 1.0690 0.0000
0.2069 1.1034 0.0000
0.2069 1.1379 0.0000
0.2069 1.1724 0.0000
0.2069 1.2069 0.0000
0.2069 1.2414 0.0000
0.2069 1.2759 0.0000
0.2069 1.3103 0.0000
0.2069 1.3448 0.0000
0.2069 1.3793 0.0000
0.2069 1.4138 0.0000
0.2069 1.4483 0.0000
0.2069 1.4828 0.0000
0.2069 1.5172 0.0000
0.2069 1.5517 0.0000
0.2069 1.5862 0.0000
0.2069 1.6207 0.0000
0.2069 1.6552 0.0000
0.2069 1.6897 0.0000
0.2069 1.7241 0.0000
0.2069 1.7586 0.0000
0.2069 1.7931 0.0000
0.2069 1.8276 0.0000
0.2069 1.8621 0.0000
0.2069 1.8966 0.0000
0.2069 1.9310 0.0000
0.2069 1.9655 0.0000
0.2069 2.0000 0.0000
0.2759 1.0000 0.0000
0.2759 1.0345 0.0000
0.2759 1.0690 0.0000
0.2759 1.1034 0.0000
0.2759 1.1379 0.0000
0.2759 1.1724 0.0000
0.2759 1.2069 0.0000
0.2759 1.2414 0.0000
0.2759 1.2759 0.0000
0.2759 1.3103 0.0000
0.2759 1.3448 0.0000
0.2759 1.3793 0.0000
0.2759 1.4138 0.0000
0.2759 1.4483 0.0000
0.2759 1.4828 0.0000
0.2759 1.5172 0.0000
0.2759 1.5517 0.0000
0.2759 1.5862 0.0000
0.2759 1.6207 0.0000
0.2759 1.6552 0.0000
0.2759 1.6897 0.0000
0.2759 1.7241 0.0000
0.2759 1.7586 0.0000
0.2759 1.7931 0.0000
0.2759 1.8276 0.0000
0.2759 1.8621 0.0000
0.2759 1.8966 0.0000
0.2759 1.9310 0.0000
0.2759 1.9655 0.0000
0.2759 2.0000 0.0000
0.3448 1.0000 0.0000
0.3448 1.0345 0.0000
0.3448 1.0690 0.0000
0.3448 1.1034 0.0000
0.3448 1.1379 0.0000
0.3448 1.1724 0.0000
0.3448 1.2069 0.0000
0.3448 1.2414 0.0000
0.3448 1.2759 0.0000
0.3448 1.3103 0.0000
0.3448 1.3448 0.0000
0.3448 1.3793 0.0000
0.3448 1.4138 0.0000
0.3448 1.4483 0.0000
0.3448 1.4828 0.0000
0.3448 1.5172 0.0000
0.3448 1.5517 0.0000
0.3448 1.5862 0.0000
0.3448 1.6207 0.0000
0.3448 1.6552 0.0000
0.3448 1.6897 0.0000
0.3448 1.7241 0.0000
0.3448 1.7586 0.0000
0.3448 1.7931 0.0000
0.3448 1.8276 0.0000
0.3448 1.8621 0.0000
0.3448 1.8966 0.0000
0.3448 1.9310 0.0000
0.3448 1.9655 0.0000
0.3448 2.0000 0.0000
0.4138 1.0000 0.0000
0.4138 1.0345 0.0000
0.4138 1.0690 0.0000
0.4138 1.1034 0.0000
0.4138 1.1379 0.0000
0.4138 1.1724 0.0000
0.4138 1.2069 0.0000
0.4138 1.2414 0.0000
0.4138 1.2759 0.0000
0.4138 1.3103 0.0000
0.4138 1.3448 0.0000
0.4138 1.3793 0.0000
0.4138 1.4138 0.0000
0.4138 1.4483 0.0000
0.4138 1.4828 0.0000
0.4138 1.5172 0.0000
0.4138 1.5517 0.0000
0.4138 1.5862 0.0000
0.4138 1.6207 0.0000
0.4138 1.6552 0.0000
0.4138 1.6897 0.0000
0.4138 1.7241 0.0000
0.4138 1.7586 0.0000
0.4138 1.7931 0.0000
0.4138 1.8276 0.0000
0.4138 1.8621 0.0000
0.4138 1.8966 0.0000
0.4138 1.9310 0.0000
0.4138 1.9655 0.0000
0.4138 2.0000 0.0000
0.4828 1.0000 0.0000
0.4828 1.0345 0.0000
0.4828 1.0690 0.0000
0.4828 1.1034 0.0000
0.4828 1.1379 0.0000
0.4828 1.1724 0.0000
0.4828 1.2069 0.0000
0.4828 1.2414 0.0000
0.4828 1.2759 0.0000
0.4828 1.3103 0.0000
0.4828 1.3448 0.0000
0.4828 1.3793 0.0000
0.4828 1.4138 0.0000
0.4828 1.4483 0.0000
0.4828 1.4828 0.0000
0.4828 1.5172 0.0000
0.4828 1.5517 0.0000
0.4828 1.5862 0.0000
0.4828 1.6207 0.0000
0.4828 1.6552 0.0000
0.4828 1.6897 0.0000
0.4828 1.7241 0.0000
0.4828 1.7586 0.0000
0.4828 1.7931 0.0000
0.4828 1.8276 0.0000
0.4828 1.8621 0.0000
0.4828 1.8966 0.0000
0.4828 1.9310 0.0000
0.4828 1.9655 0.0000
0.4828 2.0000 0.0000
0.5517 1.0000 0.0000
0.5517 1.0345 0.0000
0.5517 1.0690 0.0000
0.5517 1.1034 0.0000
0.5517 1.1379 0.0000
0.5517 1.1724 0.0000
0.5517 1.2069 0.0000
0.5517 1.2414 0.0000
0.5517 1.2759 0.0000
0.5517 1.3103 0.0000
0.5517 1.3448 0.0000
0.5517 1.3793 0.0000
0.5517 1.4138 0.0000
0.5517 1.4483 0.0000
0.5517 1.4828 0.0000
0.5517 1.5172 0.0000
0.5517 1.5517 0.0000
0.5517 1.5862 0.0000
0.5517 1.6207 0.0000
0.5517 1.6552 0.0000
0.5517 1.6897 0.0000
0.5517 1.7241 0.0000
0.5517 1.7586 0.0000
0.5517 1.7931 0.0000
0.5517 1.8276 0.0000
0.5517 1.8621 0.0000
0.5517 1.8966 0.0000
0.5517 1.9310 0.0000
0.5517 1.9655 0.0000
0.5517 2.0000 0.0000
0.6207 1.0000 0.0000
0.6207 1.0345 0.0000
0.6207 1.0690 0.0000
0.6207 1.1034 0.0000
0.6207 1.1379 0.0000
0.6207 1.1724 0.0000
0.6207 1.2069 0.0000
0.6207 1.2414 0.0000
0.6207 1.2759 0.0000
0.6207 1.3103 0.0000
0.6207 1.3448 0.0000
0.6207 1.3793 0.0000
0.6207 1.4138 0.0000
0.6207 1.4483 0.0000
0.6207 1.4828 0.0000
0.6207 1.5172 0.0000
0.6207 1.5517 0.0000
0.6207 1.5862 0.0000
0.6207 1.6207 0.0000
0.6207 1.6552 0.0000
0.6207 1.6897 0.0000
0.6207 1.7241 0.0000
0.6207 1.7586 0.0000
0.6207 1.7931 0.0000
0.6207 1.8276 0.0000
0.6207 1.8621 0.0000
0.6207 1.8966 0.0000
0.6207 1.9310 0.0000
0.6207 1.9655 0.0000
0.6207 2.0000 0.0000
0.6897 1.0000 0.0000
0.6897 1.0345 0.0000
0.6897 1.0690 0.0000
0.6897 1.1034 0.0000
0.6897 1.1379 0.0000
0.6897 1.1724 0.0000
0.6897 1.2069 0.0000
0.6897 1.2414 0.0000
0.6897 1.2759 0.0000
0.6897 1.3103 0.0000
0.6897 1.3448 0.0000
0.6897 1.3793 0.0000
0.6897 1.4138 0.0000
0.6897 1.4483 0.0000
0.6897 1.4828 0.0000
0.6897 1.5172 0.0000
0.6897 1.5517 0.0000
0.6897 1.5862 0.0000
0.6897 1.6207 0.0000
0.6897 1.6552 0.0000
0.6897 1.6897 0.0000
0.6897 1.7241 0.0000
0.6897 1.7586 0.0000
0.6897 1.7931 0.0000
0.6897 1.8276 0.0000
0.6897 1.8621 0.0000
0.6897 1.8966 0.0000
0.6897 1.9310 0.0000
0.6897 1.9655 0.0000
0.6897 2.0000 0.0000
0.7586 1.0000 0.0000
0.7586 1.0345 0.0000
0.7586 1.0690 0.0000
0.7586 1.1034 0.0000
0.7586 1.1379 0.0000
0.7586 1.1724 0.0000
0.7586 1.2069 0.0000
0.7586 1.2414 0.0000
0.7586 1.2759 0.0000
0.7586 1.3103 0.0000
0.7586 1.3448 0.0000
0.7586 1.3793 0.0000
0.7586 1.4138 0.0000
0.7586 1.4483 0.0000
0.7586 1.4828 0.0000
0.7586 1.5172 0.0000
0.7586 1.5517 0.0000
0.7586 1.5862 0.0000
0.7586 1.6207 0.0000
0.7586 1.6552 0.0000
0.7586 1.6897 0.0000
0.7586 1.7241 0.0000
0.7586 1.7586 0.0000
0.7586 1.7931 0.0000
0.7586 1.8276 0.0000
0.7586 1.8621 0.0000
0.7586 1.8966 0.0000
0.7586 1.9310 0.0000
0.7586 1.9655 0.0000
0.7586 2.0000 0.0000
0.8276 1.0000 0.0000
0.8276 1.0345 0.0000
0.8276 1.0690 0.0000
0.8276 1.1034 0.0000
0.8276 1.1379 0.0000
0.8276 1.1724 0.0000
0.8276 1.2069 0.0000
0.8276 1.2414 0.0000
0.8276 1.2759 0.0000
0.8276 1.3103 0.0000
0.8276 1.3448 0.0000
0.8276 1.3793 0.0000
0.8276 1.4138 0.0000
0.8276 1.4483 0.0000
0.8276 1.4828 0.0000
0.8276 1.5172 0.0000
0.8276 1.5517 0.0000
0.8276 1.5862 0.0000
0.8276 1.6207 0.0000
0.8276 1.6552 0.0000
0.8276 1.6897 0.0000
0.8276 1.7241 0.0000
0.8276 1.7586 0.0000
0.8276 1.7931 0.0000
0.8276 1.8276 0.0000
0.8276 1.8621 0.0000
0.8276 1.8966 0.0000
0.8276 1.9310 0.0000
0.8276 1.9655 0.0000
0.8276 2.0000 0.0000
0.8966 1.0000 0.0000
0.8966 1.0345 0.0000
0.8966 1.0690 0.0000
0.8966 1.1034 0.0000
0.8966 1.1379 0.0000
0.8966 1.1724 0.0000
0.8966 1.2069 0.0000
0.8966 1.2414 0.0000
0.8966 1.2759 0.0000
0.8966 1.3103 0.0000
0.8966 1.3448 0.0000
0.8966 1.3793 0.0000
0.8966 1.4138 0.0000
0.8966 1.4483 0.0000
0.8966 1.4828 0.0000
0.8966 1.5172 0.0000
0.8966 1.5517 0.0000
0.8966 1.5862 0.0000
0.8966 1.6207 0.0000
0.8966 1.6552 0.0000
0.8966 1.6897 0.0000
0.8966 1.7241 0.0000
0.8966 1.7586 0.0000
0.8966 1.7931 0.0000
0.8966 1.8276 0.0000
0.8966 1.8621 0.0000
0.8966 1.8966 0.0000
0.8966 1.9310 0.0000
0.8966 1.9655 0.0000
0.8966 2.0000 0.0000
0.9655 1.0000 0.0000
0.9655 1.0345 0.0000
0.9655 1.0690 0.0000
0.9655 1.1034 0.0000
0.9655 1.1379 0.0000
0.9655 1.1724 0.0000
0.9655 1.2069 0.0000
0.9655 1.2414 0.0000
0.9655 1.2759 0.0000
0.9655 1.3103 0.0000
0.9655 1.3448 0.0000
0.9655 1.3793 0.0000
0.9655 1.4138 0.0000
0.9655 1.4483 0.0000
0.9655 1.4828 0.0000
0.9655 1.5172 0.0000
0.9655 1.5517 0.0000
0.9655 1.5862 0.0000
0.9655 1.6207 0.0000
0.9655 1.6552 0.0000
0.9655 1.6897 0.0000
0.9655 1.7241 0.0000
0.9655 1.7586 0.0000
0.9655 1.7931 0.0000
0.9655 1.8276 0.0000
0.9655 1.8621 0.0000
0.9655 1.8966 0.0000
0.9655 1.9310 0.0000
0.9655 1.9655 0.0000
0.9655 2.0000 0.0000
1.0345 1.0000 0.0000
1.0345 1.0345 0.0000
1.0345 1.0690 0.0000
1.0345 1.1034 0.0000
1.0345 1.1379 0.0000
1.0345 1.1724 0.0000
1.0345 1.2069 0.0000
1.0345 1.2414 0.0000
1.0345 1.2759 0.0000
1.0345 1.3103 0.0000
1.0345 1.3448 0.0000
[...]
         <PointData>
            <DataArray Name="fValues" NumberOfComponents="3" format="ascii" type="Float64">
-5.74941e-21 -3.97767e-21        00000 
 2.29976e-20  4.59953e-20        00000 
-2.84273e-21  1.14420e-19        00000 
-3.80384e-20  4.46460e-22        00000 
 2.55845e-20  8.52818e-21        00000 
-3.77629e-20  9.38415e-21        00000 
 4.26409e-20  1.88331e-19        00000 
 5.53610e-21 -1.79298e-19        00000 
 2.27418e-20  7.95963e-20        00000 
 6.39904e-21 -6.38672e-20        00000 
-9.66527e-20  1.02338e-19        00000 
       00000 -9.45601e-20        00000 
-5.40118e-20  7.39109e-20        00000 
 1.62605e-20 -2.44069e-20        00000 
 3.41127e-20 -2.84273e-21        00000 
-1.78584e-20  4.38423e-20        00000 
-5.68545e-20        00000        00000 
 9.81466e-20  5.80877e-20        00000 
-5.68545e-20 -4.54836e-20        00000 
 8.39344e-20  9.25064e-20        00000 
-1.42136e-20 -9.66527e-20        00000 
-2.63798e-20  1.53986e-19        00000 
 7.67536e-20 -1.25080e-19        00000 
-2.75019e-20  7.64339e-20        00000 
 3.12700e-20        00000        00000 
-9.75731e-21  6.04863e-20        00000 
-2.84273e-21 -8.52818e-20        00000 
-4.47292e-21  1.39913e-19        00000 
-1.48731e-20  8.33253e-21        00000 
-1.13240e-20  1.18255e-19        00000 
-3.16891e-04  2.46481e-04        00000 
 2.02055e-04 -9.35775e-04        00000 
 2.72786e-05  7.39239e-04        00000 
-1.10683e-04  2.35676e-05        00000 
-2.23072e-04  4.20712e-04        00000 
 2.23628e-04 -4.48725e-05        00000 
 6.88521e-05 -1.60658e-04        00000 
 5.80961e-04  1.70965e-03        00000 
 3.40182e-04 -5.23839e-04        00000 
 5.01709e-04  8.22884e-04        00000 
 2.73439e-04 -1.75640e-04        00000 
 3.35195e-04  1.00504e-03        00000 
 7.61447e-04  2.65549e-04        00000 
-1.96984e-04  1.44546e-04        00000 
-3.52171e-04 -4.51431e-05        00000 
 3.52099e-04 -4.56822e-05        00000 
 1.96973e-04  1.43344e-04        00000 
-7.61364e-04  2.64753e-04        00000 
-3.35026e-04  1.00590e-03        00000 
-2.73232e-04 -1.72259e-04        00000 
-5.01534e-04  8.28848e-04        00000 
-3.40103e-04 -5.16145e-04        00000 
-5.81009e-04  1.71757e-03        00000 
-6.90130e-05 -1.54141e-04        00000 
-2.23847e-04 -4.09191e-05        00000 
 2.22868e-04  4.21818e-04        00000 
 1.10559e-04  2.24891e-05        00000 
-2.72934e-05  7.37279e-04        00000 
-2.01978e-04 -9.37231e-04        00000 
 3.16942e-04  2.46431e-04        00000 
-1.95164e-04 -7.60522e-05        00000 
-5.86572e-04  1.49460e-04        00000 
 2.11665e-05  1.21643e-05        00000 
 1.27614e-03 -1.15577e-04        00000 
-4.25046e-04 -1.19151e-03        00000 
-8.17874e-05  4.74982e-04        00000 
-6.00094e-04 -3.90475e-04        00000 
 3.96867e-05  9.87123e-04        00000 
 3.33821e-04  1.03244e-04        00000 
 1.34042e-04  1.28960e-03        00000 
 6.17375e-05  7.89547e-04        00000 
 4.09706e-04 -5.37732e-04        00000 
 1.76923e-04  1.06943e-03        00000 
-1.65142e-04 -2.99657e-04        00000 
 1.29968e-04  9.35066e-05        00000 
-1.30040e-04  9.24310e-05        00000 
 1.65131e-04 -3.02055e-04        00000 
-1.76838e-04  1.06784e-03        00000 
-4.09534e-04 -5.36031e-04        00000 
-6.15280e-05  7.96271e-04        00000 
-1.33865e-04  1.30147e-03        00000 
-3.33741e-04  1.18561e-04        00000 
-3.97351e-05  1.00289e-03        00000 
 5.99931e-04 -3.77505e-04        00000 
 8.15652e-05  4.82844e-04        00000 
 4.24840e-04 -1.18932e-03        00000 
-1.27627e-03 -1.17738e-04        00000 
-2.11814e-05  8.25021e-06        00000 
 5.86649e-04  1.46560e-04        00000 
 1.95214e-04 -7.61509e-05        00000 
-2.32699e-04 -1.78303e-04        00000 
 1.72026e-05  4.84858e-04        00000 
 6.26230e-04 -9.16639e-04        00000 
 1.98766e-04  2.77707e-04        00000 
 4.40383e-04 -9.28327e-04        00000 
-6.23373e-04  1.14801e-04        00000 
 4.76226e-04  2.74416e-04        00000 
-1.09497e-04 -6.37067e-04        00000 
-4.07853e-04 -1.13414e-04        00000 
 2.81668e-04 -3.70295e-04        00000 
 6.48396e-04 -1.86322e-04        00000 
 2.37182e-04 -1.12771e-03        00000 
-4.36053e-04  6.63443e-04        00000 
 1.66978e-04 -2.29718e-04        00000 
-4.34394e-04  7.81312e-04        00000 
 4.34324e-04  7.79714e-04        00000 
-1.66988e-04 -2.33281e-04        00000 
 4.36135e-04  6.61077e-04        00000 
-2.37016e-04 -1.12518e-03        00000 
-6.48193e-04 -1.76323e-04        00000 
-2.81496e-04 -3.52648e-04        00000 
 4.07931e-04 -9.06453e-05        00000 
 1.09450e-04 -6.13635e-04        00000 
-4.76385e-04  2.93690e-04        00000 
 6.23157e-04  1.26477e-04        00000 
-4.40584e-04 -9.25085e-04        00000 
-1.98888e-04  2.74482e-04        00000 
-6.26245e-04 -9.22469e-04        00000 
-1.71270e-05  4.80544e-04        00000 
 2.32749e-04 -1.78450e-04        00000 
-1.13181e-04  1.89917e-04        00000 
 3.23899e-04  1.48943e-05        00000 
 1.95727e-04  1.01982e-04        00000 
-1.22235e-03  1.77645e-04        00000 
-3.96356e-04  4.19744e-04        00000 
-2.47040e-04 -7.66930e-04        00000 
-5.44938e-04  9.35021e-04        00000 
-1.18977e-04  3.44574e-04        00000 
 8.64309e-05  4.33647e-04        00000 
-3.46737e-05 -5.07228e-04        00000 
-2.40261e-04 -8.33553e-04        00000 
 2.07678e-04 -1.36784e-04        00000 
 2.03499e-04  9.22948e-04        00000 
 1.13849e-04 -6.16228e-04        00000 
 1.99462e-04 -7.86678e-04        00000 
-1.99529e-04 -7.88779e-04        00000 
-1.13858e-04 -6.20911e-04        00000 
-2.03420e-04  9.19844e-04        00000 
-2.07518e-04 -1.33442e-04        00000 
 2.40456e-04 -8.20384e-04        00000 
 3.48383e-05 -4.83997e-04        00000 
-8.63567e-05  4.63614e-04        00000 
 1.18931e-04  3.75406e-04        00000 
 5.44785e-04  9.60374e-04        00000 
 2.46832e-04 -7.51580e-04        00000 
 3.96163e-04  4.23992e-04        00000 
 1.22223e-03  1.73382e-04        00000 
-1.95741e-04  9.42957e-05        00000 
-3.23826e-04  9.20872e-06        00000 
 1.13229e-04  1.89724e-04        00000 
 2.98699e-04 -2.03789e-04        00000 
 3.38531e-04 -3.06045e-04        00000 
-8.72787e-05  1.20390e-03        00000 
 2.31141e-04  3.78851e-04        00000 
 5.69090e-04  1.32898e-03        00000 
 3.80282e-04 -9.67389e-04        00000 
-2.68139e-04 -1.86981e-04        00000 
 4.62460e-04  4.16348e-04        00000 
-3.54112e-04 -6.08393e-04        00000 
 4.14354e-04 -5.30868e-04        00000 
-3.93602e-04 -1.02307e-03        00000 
-2.36918e-04  1.11557e-03        00000 
 8.94273e-04  5.55236e-04        00000 
 1.62525e-04 -1.04661e-04        00000 
-2.60997e-04  1.27853e-04        00000 
 2.60934e-04  1.25275e-04        00000 
-1.62534e-04 -1.10404e-04        00000 
-8.94198e-04  5.51439e-04        00000 
 2.37069e-04  1.11969e-03        00000 
 3.93787e-04 -1.00687e-03        00000 
-4.14198e-04 -5.02307e-04        00000 
 3.54181e-04 -5.71564e-04        00000 
-4.62504e-04  4.54232e-04        00000 
 2.67995e-04 -1.55841e-04        00000 
-3.80479e-04 -9.48548e-04        00000 
-5.69273e-04  1.33417e-03        00000 
-2.31252e-04  3.73586e-04        00000 
 8.72663e-05  1.19443e-03        00000 
-3.38462e-04 -3.13043e-04        00000 
-2.98653e-04 -2.04027e-04        00000 
-2.79951e-04 -1.08489e-05        00000 
-6.34035e-04  8.25912e-04        00000 
-5.21605e-04 -5.60407e-04        00000 
-5.24297e-04  2.17936e-04        00000 
-4.20394e-04  3.24921e-04        00000 
 3.20897e-05 -1.67436e-04        00000 
-2.46643e-04 -2.36460e-04        00000 
-4.76900e-04  3.84551e-04        00000 
-9.23161e-05  8.81356e-04        00000 
-2.00487e-04  1.43105e-03        00000 
 3.64257e-05 -9.13052e-05        00000 
-1.32453e-04 -1.84179e-04        00000 
-3.21644e-05  9.92564e-04        00000 
 5.71853e-04  1.85027e-04        00000 
 2.77945e-04 -2.61221e-04        00000 
-2.78003e-04 -2.64244e-04        00000 
-5.71861e-04  1.78297e-04        00000 
 3.22345e-05  9.88128e-04        00000 
 1.32594e-04 -1.79301e-04        00000 
-3.62539e-05 -7.22430e-05        00000 
 2.00632e-04  1.46463e-03        00000 
 9.23806e-05  9.24635e-04        00000 
 4.76858e-04  4.29056e-04        00000 
 2.46507e-04 -1.99891e-04        00000 
-3.22735e-05 -1.45330e-04        00000 
 4.20223e-04  3.30988e-04        00000 
 5.24195e-04  2.11714e-04        00000 
 5.21594e-04 -5.71556e-04        00000 
 6.34100e-04  8.17675e-04        00000 
 2.79994e-04 -1.11287e-05        00000 
 1.49338e-04 -8.89515e-05        00000 
-1.42868e-04 -1.25990e-03        00000 
-6.00380e-04 -1.06522e-04        00000 
 6.54412e-04  1.66070e-03        00000 
 2.05025e-06  5.28037e-04        00000 
 2.00262e-04 -1.33537e-04        00000 
 4.42647e-05  5.00519e-04        00000 
-3.67729e-04  6.48644e-04        00000 
 4.07048e-04 -5.58617e-04        00000 
-4.70466e-04  1.13426e-04        00000 
-4.07918e-04 -1.07085e-04        00000 
 1.89401e-04  7.51206e-04        00000 
 4.96100e-04  3.78393e-04        00000 
 5.54290e-04  9.58456e-05        00000 
 5.83097e-04 -2.43998e-04        00000 
-5.83149e-04 -2.47428e-04        00000 
-5.54296e-04  8.82148e-05        00000 
-4.96035e-04  3.73383e-04        00000 
-1.89272e-04  7.56796e-04        00000 
 4.08075e-04 -8.53632e-05        00000 
 4.70598e-04  1.51648e-04        00000 
-4.06990e-04 -5.09372e-04        00000 
 3.67690e-04  6.99263e-04        00000 
-4.43893e-05  5.42093e-04        00000 
-2.00430e-04 -1.08429e-04        00000 
-2.20617e-06  5.34892e-04        00000 
-6.54506e-04  1.65358e-03        00000 
 6.00370e-04 -1.19242e-04        00000 
 1.42929e-04 -1.26929e-03        00000 
-1.49298e-04 -8.92705e-05        00000 
-2.89626e-05  4.46842e-04        00000 
 1.67589e-04 -8.47000e-04        00000 
-5.13994e-04 -3.00039e-04        00000 
 1.35876e-04 -2.92627e-04        00000 
-1.85417e-04 -1.39638e-04        00000 
 1.34778e-04 -2.81503e-04        00000 
 2.25127e-04 -9.34575e-04        00000 
-3.21344e-04  2.52788e-04        00000 
-1.43268e-04  5.12674e-04        00000 
-3.73744e-04  4.68661e-04        00000 
-8.68273e-05 -4.41413e-04        00000 
-2.95011e-04 -6.50422e-04        00000 
 6.85074e-06 -2.32858e-04        00000 
 2.85030e-04  3.61620e-04        00000 
-1.52361e-04 -6.49118e-04        00000 
 1.52315e-04 -6.52914e-04        00000 
-2.85035e-04  3.53184e-04        00000 
-6.79259e-06 -2.38374e-04        00000 
 2.95127e-04 -6.44169e-04        00000 
 8.69678e-05 -4.17263e-04        00000 
 3.73862e-04  5.11107e-04        00000 
 1.43319e-04  5.67331e-04        00000 
 3.21309e-04  3.08948e-04        00000 
-2.25239e-04 -8.88474e-04        00000 
-1.34929e-04 -2.53691e-04        00000 
 1.85277e-04 -1.32089e-04        00000 
-1.35960e-04 -3.00586e-04        00000 
 5.13985e-04 -3.14197e-04        00000 
-1.67535e-04 -8.57443e-04        00000 
 2.89982e-05  4.46487e-04        00000 
-4.80286e-04 -2.44330e-04        00000 
 7.67277e-05 -9.12230e-04        00000 
 2.01602e-04  6.19802e-04        00000 
-6.10335e-04 -1.14579e-03        00000 
-3.71223e-04  8.94826e-04        00000 
-3.35794e-04 -7.52905e-04        00000 
 1.84928e-04 -6.65432e-05        00000 
 8.54984e-06 -7.74161e-05        00000 
 2.25808e-04  7.86391e-04        00000 
 2.63032e-04 -1.04495e-04        00000 
 7.27978e-04 -9.35929e-05        00000 
 1.00685e-03 -6.03128e-04        00000 
 3.18643e-04 -1.23130e-04        00000 
 5.07160e-04  4.77906e-04        00000 
-2.54018e-04 -8.45921e-05        00000 
 2.53979e-04 -8.87066e-05        00000 
-5.07164e-04  4.68768e-04        00000 
-3.18592e-04 -1.29074e-04        00000 
-1.00674e-03 -5.96268e-04        00000 
-7.27856e-04 -6.72745e-05        00000 
-2.62930e-04 -5.82948e-05        00000 
-2.25763e-04  8.45847e-04        00000 
-8.58151e-06 -1.63533e-05        00000 
-1.85026e-04 -1.64463e-05        00000 
 3.35661e-04 -7.22716e-04        00000 
 3.71101e-04  9.02969e-04        00000 
 6.10262e-04 -1.15452e-03        00000 
-2.01608e-04  6.04354e-04        00000 
-7.66793e-05 -9.23616e-04        00000 
 4.80317e-04 -2.44717e-04        00000 
 2.56577e-05 -4.95485e-04        00000 
-5.62961e-04 -1.67158e-03        00000 
 1.65772e-05  4.53733e-05        00000 
 2.87594e-04 -7.09049e-04        00000 
 1.93878e-04  3.72204e-04        00000 
-6.97757e-04  6.21232e-05        00000 
-1.34174e-04 -7.64998e-05        00000 
 3.60374e-04 -1.36005e-04        00000 
-2.86346e-04  3.74115e-04        00000 
-2.11566e-06 -6.99602e-04        00000 
-2.81632e-05  4.57573e-04        00000 
 3.19523e-05 -2.53159e-04        00000 
 3.90811e-04  4.46252e-04        00000 
-1.77644e-04  4.42663e-04        00000 
 1.27499e-04 -1.36881e-04        00000 
-1.27531e-04 -1.41265e-04        00000 
 1.77642e-04  4.32936e-04        00000 
-3.90768e-04  4.39959e-04        00000 
-3.18669e-05 -2.45754e-04        00000 
 2.82661e-05  4.85775e-04        00000 
 2.20116e-06 -6.50161e-04        00000 
 2.86382e-04  4.37701e-04        00000 
-3.60402e-04 -7.07331e-05        00000 
 1.34090e-04 -2.29821e-05        00000 
 6.97645e-04  9.43328e-05        00000 
-1.93981e-04  3.80832e-04        00000 
-2.87656e-04 -7.18448e-04        00000 
-1.65823e-05  2.87971e-05        00000 
 5.63003e-04 -1.68378e-03        00000 
-2.56308e-05 -4.95899e-04        00000 
 9.45349e-05 -2.53689e-04        00000 
-1.05596e-04 -3.43211e-04        00000 
 7.83666e-05 -6.51589e-04        00000 
-6.50346e-04  1.18975e-03        00000 
-3.67120e-04  6.53767e-05        00000 
-4.95520e-04  1.02820e-03        00000 
-3.71748e-04 -1.36726e-03        00000 
 4.86138e-04 -4.84948e-04        00000 
-1.95556e-04 -2.73126e-05        00000 
 2.44883e-04 -6.98560e-05        00000 
 4.44761e-04  6.84269e-04        00000 
 6.08784e-04 -6.47553e-04        00000 
-3.14758e-05  7.49507e-04        00000 
-2.04271e-04  7.05115e-04        00000 
 9.74452e-05 -5.26294e-04        00000 
-9.74703e-05 -5.30894e-04        00000 
 2.04269e-04  6.94917e-04        00000 
 3.15111e-05  7.42949e-04        00000 
-6.08716e-04 -6.39674e-04        00000 
-4.44678e-04  7.14049e-04        00000 
-2.44815e-04 -1.77256e-05        00000 
 1.95585e-04  3.96867e-05        00000 
-4.86161e-04 -4.16209e-04        00000 
 3.71680e-04 -1.31094e-03        00000 
 4.95429e-04  1.06205e-03        00000 
 3.67036e-04  7.43788e-05        00000 
 6.50297e-04  1.17977e-03        00000 
-7.83700e-05 -6.69116e-04        00000 
 1.05630e-04 -3.56105e-04        00000 
-9.45129e-05 -2.54127e-04        00000 
-5.98237e-04 -5.40816e-04        00000 
-1.52781e-04  4.13367e-04        00000 
 1.79229e-04 -5.03763e-04        00000 
 1.14555e-04  9.06600e-04        00000 
 1.11080e-04 -5.37886e-04        00000 
 5.32828e-04  3.94658e-04        00000 
-1.77941e-04  7.15228e-04        00000 
-7.65782e-04  3.59233e-04        00000 
-6.62812e-05  3.46258e-04        00000 
 5.67957e-04 -2.49551e-04        00000 
-5.88598e-05 -3.49046e-04        00000 
-1.37990e-04 -1.76871e-04        00000 
 3.67872e-04  4.05102e-04        00000 
-1.10751e-04 -6.43948e-05        00000 
-3.73842e-04 -4.47498e-04        00000 
 3.73824e-04 -4.52261e-04        00000 
 1.10751e-04 -7.49403e-05        00000 
-3.67846e-04  3.98364e-04        00000 
 1.38041e-04 -1.68597e-04        00000 
 5.89205e-05 -3.18016e-04        00000 
-5.67907e-04 -1.95314e-04        00000 
 6.63013e-05  4.15914e-04        00000 
 7.65764e-04  4.30660e-04        00000 
 1.77889e-04  7.73715e-04        00000 
-5.32897e-04  4.29764e-04        00000 
-1.11142e-04 -5.28623e-04        00000 
-1.14591e-04  8.96134e-04        00000 
-1.79231e-04 -5.22050e-04        00000 
 1.52807e-04  3.99926e-04        00000 
 5.98254e-04 -5.41272e-04        00000 
-3.35786e-05 -1.20050e-03        00000 
-9.88435e-05 -1.27202e-03        00000 
 1.65082e-04  9.92398e-05        00000 
 1.42114e-04  8.91752e-04        00000 
-7.93307e-05  2.70962e-04        00000 
-7.06318e-05  9.06290e-04        00000 
 1.38435e-04  7.24823e-04        00000 
 1.29745e-04  8.38198e-04        00000 
 5.42863e-05  3.70343e-05        00000 
-6.67024e-05  1.37128e-03        00000 
 8.29135e-04  7.49151e-04        00000 
-2.97223e-04 -6.29934e-04        00000 
-5.44196e-04 -9.34556e-06        00000 
 3.60607e-05  1.55798e-04        00000 
 5.76536e-04 -6.61688e-04        00000 
-5.76546e-04 -6.66556e-04        00000 
-3.60598e-05  1.45030e-04        00000 
 5.44214e-04 -1.61809e-05        00000 
 2.97256e-04 -6.21349e-04        00000 
-8.29097e-04  7.81086e-04        00000 
 6.67332e-05  1.42702e-03        00000 
-5.42747e-05  1.08559e-04        00000 
-1.29758e-04  9.11499e-04        00000 
-1.38470e-04  7.84804e-04        00000 
 7.05873e-05  9.42241e-04        00000 
 7.92907e-05  2.80372e-04        00000 
-1.42137e-04  8.80913e-04        00000 
-1.65083e-04  8.03936e-05        00000 
 9.88618e-05 -1.28586e-03        00000 
 3.35900e-05 -1.20097e-03        00000 
-3.52449e-05 -8.12848e-04        00000 
-3.28768e-04 -4.19952e-04        00000 
-1.07314e-04  2.71368e-04        00000 
-2.80076e-04  4.45312e-04        00000 
 9.77282e-05  2.30543e-05        00000 
 1.33243e-04 -5.80989e-05        00000 
 3.33444e-04 -1.34704e-04        00000 
-5.01147e-06  3.14702e-04        00000 
 7.48741e-04 -6.63917e-05        00000 
 6.96225e-04  3.43619e-04        00000 
-6.53150e-05 -2.39170e-04        00000 
 4.66113e-04  2.43974e-04        00000 
 5.32303e-05  2.80451e-05        00000 
 3.77085e-04  6.59949e-04        00000 
 2.24184e-04 -1.18957e-04        00000 
-2.24187e-04 -1.23875e-04        00000 
-3.77083e-04  6.49084e-04        00000 
-5.32216e-05  2.11961e-05        00000 
-4.66099e-04  2.52778e-04        00000 
 6.53308e-05 -2.06686e-04        00000 
-6.96213e-04  4.00219e-04        00000 
-7.48738e-04  6.19216e-06        00000 
 5.00376e-06  3.89045e-04        00000 
-3.33460e-04 -7.39133e-05        00000 
-1.33263e-04 -2.17149e-05        00000 
-9.77457e-05  3.24988e-05        00000 
 2.80066e-04  4.34219e-04        00000 
 1.07315e-04  2.52172e-04        00000 
 3.28778e-04 -4.34033e-04        00000 
 3.52508e-05 -8.13326e-04        00000 
-6.70017e-04  2.95928e-04        00000 
-4.77182e-04 -3.98965e-04        00000 
-1.83973e-04  3.90913e-04        00000 
 9.73032e-05  1.77485e-04        00000 
 2.67830e-05 -3.53087e-04        00000 
 2.27703e-04 -7.25595e-05        00000 
 1.91217e-04  2.26927e-05        00000 
 4.32455e-04  6.85817e-04        00000 
-2.07550e-04  3.67360e-04        00000 
-1.18529e-04  1.61362e-03        00000 
-3.73100e-04  4.14131e-04        00000 
 2.73484e-04  8.19263e-05        00000 
 1.35700e-04  2.66265e-04        00000 
-8.35335e-04  5.61407e-04        00000 
-3.10620e-04 -3.35087e-05        00000 
 3.10626e-04 -3.84195e-05        00000 
 8.35338e-04  5.50570e-04        00000 
-1.35701e-04  2.59483e-04        00000 
-2.73488e-04  9.08535e-05        00000 
 3.73093e-04  4.46797e-04        00000 
 1.18522e-04  1.67045e-03        00000 
 2.07544e-04  4.40179e-04        00000 
-4.32457e-04  7.60357e-04        00000 
-1.91216e-04  8.36011e-05        00000 
-2.27698e-04 -3.61581e-05        00000 
-2.67779e-05 -3.43718e-04        00000 
-9.72988e-05  1.66261e-04        00000 
 1.83976e-04  3.71584e-04        00000 
 4.77183e-04 -4.13131e-04        00000 
 6.70017e-04  2.95447e-04        00000 
-3.72092e-04 -5.65307e-04        00000 
-1.53709e-04 -1.39760e-04        00000 
-2.33498e-04  5.26779e-04        00000 
-5.64751e-04 -8.42803e-04        00000 
-1.77473e-04 -3.80377e-04        00000 
 2.99677e-04  4.83012e-04        00000 
-1.74076e-04  7.30146e-04        00000 
 3.48820e-04  3.85879e-04        00000 
 3.23367e-04 -7.42564e-04        00000 
-6.03505e-04  6.57348e-04        00000 
 1.55303e-04  4.09044e-04        00000 
-6.13521e-04  4.94414e-04        00000 
-1.74400e-04 -5.16913e-04        00000 
 6.04411e-04 -2.91025e-04        00000 
 3.09828e-04  9.97108e-04        00000 
-3.09815e-04  9.92260e-04        00000 
-6.04407e-04 -3.01710e-04        00000 