<?xml version="1.0" encoding="utf-8"?>
<VTKFile byte_order="LittleEndian" type="UnstructuredGrid" version="0.1">
   <UnstructuredGrid>
      <Piece NumberOfCells="3364" NumberOfPoints="1741">
         <Points>
            <DataArray Name="Points" NumberOfComponents="3" format="ascii" type="Float32">
0.0000 1.0000 0.0000
0.0000 1.0345 0.0000
0.0000 1.0690 0.0000
0.0000 1.1034 0.0000
0.0000 1.1379 0.0000
0.0000 1.1724 0.0000
0.0000 1.2069 0.0000
0.0000 1.2414 0.0000
0.0000 1.2759 0.0000
0.0000 1.3103 0.0000
0.0000 1.3448 0.0000
0.0000 1.3793 0.0000
0.0000 1.4138 0.0000
0.0000 1.4483 0.0000
0.0000 1.4828 0.0000
0.0000 1.5172 0.0000
0.0000 1.5517 0.0000
0.0000 1.5862 0.0000
0.0000 1.6207 0.0000
0.0000 1.6552 0.0000
0.0000 1.6897 0.0000
0.0000 1.7241 0.0000
0.0000 1.7586 0.0000
0.0000 1.7931 0.0000
0.0000 1.8276 0.0000
0.0000 1.8621 0.0000
0.0000 1.8966 0.0000
0.0000 1.9310 0.0000
0.0000 1.9655 0.0000
0.0000 2.0000 0.0000
0.0690 1.0000 0.0000
0.0690 1.0345 0.0000
0.0690 1.0690 0.0000
0.0690 1.1034 0.0000
0.0690 1.1379 0.0000
0.0690 1.1724 0.0000
0.0690 1.2069 0.0000
0.0690 1.2414 0.0000
0.0690 1.2759 0.0000
0.0690 1.3103 0.0000
0.0690 1.3448 0.0000
0.0690 1.3793 0.0000
0.0690 1.4138 0.0000
0.0690 1.4483 0.0000
0.0690 1.4828 0.0000
0.0690 1.5172 0.0000
0.0690 1.5517 0.0000
0.0690 1.5862 0.0000
0.0690 1.6207 0.0000
0.0690 1.6552 0.0000
0.0690 1.6897 0.0000
0.0690 1.7241 0.0000
0.0690 1.7586 0.0000
0.0690 1.7931 0.0000
0.0690 1.8276 0.0000
0.0690 1.8621 0.0000
0.0690 1.8966 0.0000
0.0690 1.9310 0.0000
0.0690 1.9655 0.0000
0.0690 2.0000 0.0000
0.1379 1.0000 0.0000
0.1379 1.0345 0.0000
0.1379 1.0690 0.0000
0.1379 1.1034 0.0000
0.1379 1.1379 0.0000
0.1379 1.1724 0.0000
0.1379 1.2069 0.0000
0.1379 1.2414 0.0000
0.1379 1.2759 0.0000
0.1379 1.3103 0.0000
0.1379 1.3448 0.0000
0.1379 1.3793 0.0000
0.1379 1.4138 0.0000
0.1379 1.4483 0.0000
0.1379 1.4828 0.0000
0.1379 1.5172 0.0000
0.1379 1.5517 0.0000
0.1379 1.5862 0.0000
0.1379 1.6207 0.0000
0.1379 1.6552 0.0000
0.1379 1.6897 0.0000
0.1379 1.7241 0.0000
0.1379 1.7586 0.0000
0.1379 1.7931 0.0000
0.1379 1.8276 0.0000
0.1379 1.8621 0.0000
0.1379 1.8966 0.0000
0.1379 1.9310 0.0000
0.1379 1.9655 0.0000
0.1379 2.0000 0.0000
0.2069 1.0000 0.0000
0.2069 1.0345 0.0000
0.2069 1.0690 0.0000
0.2069 1.1034 0.0000
0.2069 1.1379 0.0000
0.2069 1.1724 0.0000
0.2069 1.2069 0.0000
0.2069 1.2414 0.0000
0.2069 1.2759 0.0000
0.2069 1.3103 0.0000
0.2069 1.3448 0.0000
0.2069 1.3793 0.0000
0.2069 1.4138 0.0000
0.2069 1.4483 0.0000
0.2069 1.4828 0.0000
0.2069 1.5172 0.0000
0.2069 1.5517 0.0000
0.2069 1.5862 0.0000
0.2069 1.6207 0.0000
0.2069 1.6552 0.0000
0.2069 1.6897 0.0000
0.2069 1.7241 0.0000
0.2069 1.7586 0.0000
0.2069 1.7931 0.0000
0.2069 1.8276 0.0000
0.2069 1.8621 0.0000
0.2069 1.8966 0.0000
0.2069 1.9310 0.0000
0.2069 1.9655 0.0000
0.2069 2.0000 0.0000
0.2759 1.0000 0.0000
0.2759 1.0345 0.0000
0.2759 1.0690 0.0000
0.2759 1.1034 0.0000
0.2759 1.1379 0.0000
0.2759 1.1724 0.0000
0.2759 1.2069 0.0000
0.2759 1.2414 0.0000
0.2759 1.2759 0.0000
0.2759 1.3103 0.0000
0.2759 1.3448 0.0000
0.2759 1.3793 0.0000
0.2759 1.4138 0.0000
0.2759 1.4483 0.0000
0.2759 1.4828 0.0000
0.2759 1.5172 0.0000
0.2759 1.5517 0.0000
0.2759 1.5862 0.0000
0.2759 1.6207 0.0000
0.2759 1.6552 0.0000
0.2759 1.6897 0.0000
0.2759 1.7241 0.0000
0.2759 1.7586 0.0000
0.2759 1.7931 0.0000
0.2759 1.8276 0.0000
0.2759 1.8621 0.0000
0.2759 1.8966 0.0000
0.2759 1.9310 0.0000
0.2759 1.9655 0.0000
0.2759 2.0000 0.0000
0.3448 1.0000 0.0000
0.3448 1.0345 0.0000
0.3448 1.0690 0.0000
0.3448 1.1034 0.0000
0.3448 1.1379 0.0000
0.3448 1.1724 0.0000
0.3448 1.2069 0.0000
0.3448 1.2414 0.0000
0.3448 1.2759 0.0000
0.3448 1.3103 0.0000
0.3448 1.3448 0.0000
0.3448 1.3793 0.0000
0.3448 1.4138 0.0000
0.3448 1.4483 0.0000
0.3448 1.4828 0.0000
0.3448 1.5172 0.0000
0.3448 1.5517 0.0000
0.3448 1.5862 0.0000
0.3448 1.6207 0.0000
0.3448 1.6552 0.0000
0.3448 1.6897 0.0000
0.3448 1.7241 0.0000
0.3448 1.7586 0.0000
0.3448 1.7931 0.0000
0.3448 1.8276 0.0000
0.3448 1.8621 0.0000
0.3448 1.8966 0.0000
0.3448 1.9310 0.0000
0.3448 1.9655 0.0000
0.3448 2.0000 0.0000
0.4138 1.0000 0.0000
0.4138 1.0345 0.0000
0.4138 1.0690 0.0000
0.4138 1.1034 0.0000
0.4138 1.1379 0.0000
0.4138 1.1724 0.0000
0.4138 1.2069 0.0000
0.4138 1.2414 0.0000
0.4138 1.2759 0.0000
0.4138 1.3103 0.0000
0.4138 1.3448 0.0000
0.4138 1.3793 0.0000
0.4138 1.4138 0.0000
0.4138 1.4483 0.0000
0.4138 1.4828 0.0000
0.4138 1.5172 0.0000
0.4138 1.5517 0.0000
0.4138 1.5862 0.0000
0.4138 1.6207 0.0000
0.4138 1.6552 0.0000
0.4138 1.6897 0.0000
0.4138 1.7241 0.0000
0.4138 1.7586 0.0000
0.4138 1.7931 0.0000
0.4138 1.8276 0.0000
0.4138 1.8621 0.0000
0.4138 1.8966 0.0000
0.4138 1.9310 0.0000
0.4138 1.9655 0.0000
0.4138 2.0000 0.0000
0.4828 1.0000 0.0000
0.4828 1.0345 0.0000
0.4828 1.0690 0.0000
0.4828 1.1034 0.0000
0.4828 1.1379 0.0000
0.4828 1.1724 0.0000
0.4828 1.2069 0.0000
0.4828 1.2414 0.0000
0.4828 1.2759 0.0000
0.4828 1.3103 0.0000
0.4828 1.3448 0.0000
0.4828 1.3793 0.0000
0.4828 1.4138 0.0000
0.4828 1.4483 0.0000
0.4828 1.4828 0.0000
0.4828 1.5172 0.0000
0.4828 1.5517 0.0000
0.4828 1.5862 0.0000
0.4828 1.6207 0.0000
0.4828 1.6552 0.0000
0.4828 1.6897 0.0000
0.4828 1.7241 0.0000
0.4828 1.7586 0.0000
0.4828 1.7931 0.0000
0.4828 1.8276 0.0000
0.4828 1.8621 0.0000
0.4828 1.8966 0.0000
0.4828 1.9310 0.0000
0.4828 1.9655 0.0000
0.4828 2.0000 0.0000
0.5517 1.0000 0.0000
0.5517 1.0345 0.0000
0.5517 1.0690 0.0000
0.5517 1.1034 0.0000
0.5517 1.1379 0.0000
0.5517 1.1724 0.0000
0.5517 1.2069 0.0000
0.5517 1.2414 0.0000
0.5517 1.2759 0.0000
0.5517 1.3103 0.0000
0.5517 1.3448 0.0000
0.5517 1.3793 0.0000
0.5517 1.4138 0.0000
0.5517 1.4483 0.0000
0.5517 1.4828 0.0000
0.5517 1.5172 0.0000
0.5517 1.5517 0.0000
0.5517 1.5862 0.0000
0.5517 1.6207 0.0000
0.5517 1.6552 0.0000
0.5517 1.6897 0.0000
0.5517 1.7241 0.0000
0.5517 1.7586 0.0000
0.5517 1.7931 0.0000
0.5517 1.8276 0.0000
0.5517 1.8621 0.0000
0.5517 1.8966 0.0000
0.5517 1.9310 0.0000
0.5517 1.9655 0.0000
0.5517 2.0000 0.0000
0.6207 1.0000 0.0000
0.6207 1.0345 0.0000
0.6207 1.0690 0.0000
0.6207 1.1034 0.0000
0.6207 1.1379 0.0000
0.6207 1.1724 0.0000
0.6207 1.2069 0.0000
0.6207 1.2414 0.0000
0.6207 1.2759 0.0000
0.6207 1.3103 0.0000
0.6207 1.3448 0.0000
0.6207 1.3793 0.0000
0.6207 1.4138 0.0000
0.6207 1.4483 0.0000
0.6207 1.4828 0.0000
0.6207 1.5172 0.0000
0.6207 1.5517 0.0000
0.6207 1.5862 0.0000
0.6207 1.6207 0.0000
0.6207 1.6552 0.0000
0.6207 1.6897 0.0000
0.6207 1.7241 0.0000
0.6207 1.7586 0.0000
0.6207 1.7931 0.0000
0.6207 1.8276 0.0000
0.6207 1.8621 0.0000
0.6207 1.8966 0.0000
0.6207 1.9310 0.0000
0.6207 1.9655 0.0000
0.6207 2.0000 0.0000
0.6897 1.0000 0.0000
0.6897 1.0345 0.0000
0.6897 1.0690 0.0000
0.6897 1.1034 0.0000
0.6897 1.1379 0.0000
0.6897 1.1724 0.0000
0.6897 1.2069 0.0000
0.6897 1.2414 0.0000
0.6897 1.2759 0.0000
0.6897 1.3103 0.0000
0.6897 1.3448 0.0000
0.6897 1.3793 0.0000
0.6897 1.4138 0.0000
0.6897 1.4483 0.0000
0.6897 1.4828 0.0000
0.6897 1.5172 0.0000
0.6897 1.5517 0.0000
0.6897 1.5862 0.0000
0.6897 1.6207 0.0000
0.6897 1.6552 0.0000
0.6897 1.6897 0.0000
0.6897 1.7241 0.0000
0.6897 1.7586 0.0000
0.6897 1.7931 0.0000
0.6897 1.8276 0.0000
0.6897 1.8621 0.0000
0.6897 1.8966 0.0000
0.6897 1.9310 0.0000
0.6897 1.9655 0.0000
0.6897 2.0000 0.0000
0.7586 1.0000 0.0000
0.7586 1.0345 0.0000
0.7586 1.0690 0.0000
0.7586 1.1034 0.0000
0.7586 1.1379 0.0000
0.7586 1.1724 0.0000
0.7586 1.2069 0.0000
0.7586 1.2414 0.0000
0.7586 1.2759 0.0000
0.7586 1.3103 0.0000
0.7586 1.3448 0.0000
0.7586 1.3793 0.0000
0.7586 1.4138 0.0000
0.7586 1.4483 0.0000
0.7586 1.4828 0.0000
0.7586 1.5172 0.0000
0.7586 1.5517 0.0000
0.7586 1.5862 0.0000
0.7586 1.6207 0.0000
0.7586 1.6552 0.0000
0.7586 1.6897 0.0000
0.7586 1.7241 0.0000
0.7586 1.7586 0.0000
0.7586 1.7931 0.0000
0.7586 1.8276 0.0000
0.7586 1.8621 0.0000
0.7586 1.8966 0.0000
0.7586 1.9310 0.0000
0.7586 1.9655 0.0000
0.7586 2.0000 0.0000
0.8276 1.0000 0.0000
0.8276 1.0345 0.0000
0.8276 1.0690 0.0000
0.8276 1.1034 0.0000
0.8276 1.1379 0.0000
0.8276 1.1724 0.0000
0.8276 1.2069 0.0000
0.8276 1.2414 0.0000
0.8276 1.2759 0.0000
0.8276 1.3103 0.0000
0.8276 1.3448 0.0000
0.8276 1.3793 0.0000
0.8276 1.4138 0.0000
0.8276 1.4483 0.0000
0.8276 1.4828 0.0000
0.8276 1.5172 0.0000
0.8276 1.5517 0.0000
0.8276 1.5862 0.0000
0.8276 1.6207 0.0000
0.8276 1.6552 0.0000
0.8276 1.6897 0.0000
0.8276 1.7241 0.0000
0.8276 1.7586 0.0000
0.8276 1.7931 0.0000
0.8276 1.8276 0.0000
0.8276 1.8621 0.0000
0.8276 1.8966 0.0000
0.8276 1.9310 0.0000
0.8276 1.9655 0.0000
0.8276 2.0000 0.0000
0.8966 1.0000 0.0000
0.8966 1.0345 0.0000
0.8966 1.0690 0.0000
0.8966 1.1034 0.0000
0.8966 1.1379 0.0000
0.8966 1.1724 0.0000
0.8966 1.2069 0.0000
0.8966 1.2414 0.0000
0.8966 1.2759 0.0000
0.8966 1.3103 0.0000
0.8966 1.3448 0.0000
0.8966 1.3793 0.0000
0.8966 1.4138 0.0000
0.8966 1.4483 0.0000
0.8966 1.4828 0.0000
0.8966 1.5172 0.0000
0.8966 1.5517 0.0000
0.8966 1.5862 0.0000
0.8966 1.6207 0.0000
0.8966 1.6552 0.0000
0.8966 1.6897 0.0000
0.8966 1.7241 0.0000
0.8966 1.7586 0.0000
0.8966 1.7931 0.0000
0.8966 1.8276 0.0000
0.8966 1.8621 0.0000
0.8966 1.8966 0.0000
0.8966 1.9310 0.0000
0.8966 1.9655 0.0000
0.8966 2.0000 0.0000
0.9655 1.0000 0.0000
0.9655 1.0345 0.0000
0.9655 1.0690 0.0000
0.9655 1.1034 0.0000
0.9655 1.1379 0.0000
0.9655 1.1724 0.0000
0.9655 1.2069 0.0000
0.9655 1.2414 0.0000
0.9655 1.2759 0.0000
0.9655 1.3103 0.0000
0.9655 1.3448 0.0000
0.9655 1.3793 0.0000
0.9655 1.4138 0.0000
0.9655 1.4483 0.0000
0.9655 1.4828 0.0000
0.9655 1.5172 0.0000
0.9655 1.5517 0.0000
0.9655 1.5862 0.0000
0.9655 1.6207 0.0000
0.9655 1.6552 0.0000
0.9655 1.6897 0.0000
0.9655 1.7241 0.0000
0.9655 1.7586 0.0000
0.9655 1.7931 0.0000
0.9655 1.8276 0.0000
0.9655 1.8621 0.0000
0.9655 1.8966 0.0000
0.9655 1.9310 0.0000
0.9655 1.9655 0.0000
0.9655 2.0000 0.0000
1.0345 1.0000 0.0000
1.0345 1.0345 0.0000
1.0345 1.0690 0.0000
1.0345 1.1034 0.0000
1.0345 1.1379 0.0000
1.0345 1.1724 0.0000
1.0345 1.2069 0.0000
1.0345 1.2414 0.0000
1.0345 1.2759 0.0000
1.0345 1.3103 0.0000
1.0345 1.3448 0.0000
[...]
         <PointData>
            <DataArray Name="fValues" NumberOfComponents="3" format="ascii" type="Float64">
-2.69503e-22  1.76672e-21        00000 
 1.07801e-21  7.18676e-22        00000 
-7.99517e-22  1.80204e-21        00000 
-2.00907e-22  5.02267e-21        00000 
-1.24369e-21 -1.24369e-21        00000 
-8.53927e-22  1.23992e-21        00000 
 1.42136e-21 -1.77670e-21        00000 
-5.91559e-22  1.56261e-22        00000 
 8.88352e-22  7.10681e-22        00000 
-5.91158e-23  1.26578e-21        00000 
 8.88352e-22 -1.06602e-21        00000 
 5.69236e-22 -9.65469e-22        00000 
-8.43934e-22 -1.33253e-22        00000 
-3.24533e-23 -4.91159e-22        00000 
-8.43934e-22  1.55462e-21        00000 
 9.29194e-22 -1.25567e-21        00000 
 8.88352e-22  1.46578e-21        00000 
-4.38446e-22 -2.49954e-21        00000 
 5.33011e-22  1.90996e-21        00000 
-1.71259e-22 -1.93094e-21        00000 
-5.33011e-22  7.99517e-22        00000 
-2.88276e-22  1.98176e-21        00000 
 6.32951e-22 -3.24248e-21        00000 
-1.37147e-21  3.01081e-21        00000 
 4.44176e-22 -5.33011e-22        00000 
 2.02186e-21  4.20026e-21        00000 
       00000 -3.02040e-21        00000 
 1.19092e-21  6.74293e-21        00000 
-1.17596e-21 -2.13913e-21        00000 
 7.64062e-22  2.26299e-22        00000 
-6.05338e-06 -1.25962e-07        00000 
-1.57341e-05  2.51380e-05        00000 
-2.21242e-06  2.85642e-05        00000 
-7.26274e-06  4.12927e-08        00000 
 6.44820e-06 -1.17734e-05        00000 
-7.66184e-06  1.33519e-05        00000 
-1.42679e-05  8.43592e-06        00000 
 8.15551e-08  2.00081e-05        00000 
 4.00343e-07  3.28485e-07        00000 
 2.10816e-05  1.43670e-05        00000 
 2.01180e-07  2.78379e-05        00000 
 4.32179e-07 -2.05030e-05        00000 
 1.71374e-05  5.29988e-06        00000 
-3.38958e-06 -3.91003e-06        00000 
-4.24427e-06  1.42790e-05        00000 
 4.17552e-06  1.38090e-05        00000 
 3.34818e-06 -5.13306e-06        00000 
-1.71351e-05  3.80997e-06        00000 
-3.87465e-07 -2.16704e-05        00000 
-1.32277e-07  2.74489e-05        00000 
-2.10164e-05  1.48963e-05        00000 
-3.65014e-07  1.54558e-06        00000 
-9.00692e-08  2.14076e-05        00000 
 1.42195e-05  9.44372e-06        00000 
 7.59353e-06  1.35585e-05        00000 
-6.50829e-06 -1.24472e-05        00000 
 7.23544e-06 -1.23163e-06        00000 
 2.22896e-06  2.72182e-05        00000 
 1.57872e-05  2.42709e-05        00000 
 6.08344e-06 -1.55197e-07        00000 
 5.71137e-06  6.90445e-06        00000 
 1.33538e-05 -1.61544e-05        00000 
 1.43972e-06  3.21868e-05        00000 
 8.97621e-06 -2.92069e-05        00000 
 1.19686e-05 -3.20238e-05        00000 
 4.63931e-06 -2.89155e-05        00000 
-2.22158e-06  2.67319e-05        00000 
-1.05572e-05 -6.33730e-06        00000 
 6.34555e-06  1.98885e-05        00000 
 1.53915e-05 -5.05296e-06        00000 
-2.43671e-05  1.93127e-05        00000 
-6.94851e-06 -2.91204e-05        00000 
 5.50350e-07  3.25063e-05        00000 
-3.38411e-07  1.20603e-05        00000 
-6.15587e-06  8.22691e-06        00000 
 6.08636e-06  7.29051e-06        00000 
 2.96552e-07  9.62399e-06        00000 
-5.48034e-07  2.95385e-05        00000 
 6.99376e-06 -3.14454e-05        00000 
 2.44368e-05  1.85386e-05        00000 
-1.53256e-05 -3.99753e-06        00000 
-6.30984e-06  2.23140e-05        00000 
 1.05485e-05 -3.54871e-06        00000 
 2.17251e-06  2.87396e-05        00000 
-4.70844e-06 -2.85045e-05        00000 
-1.20294e-05 -3.33675e-05        00000 
-9.00383e-06 -3.17442e-05        00000 
-1.42291e-06  2.95037e-05        00000 
-1.33005e-05 -1.78797e-05        00000 
-5.68117e-06  6.84741e-06        00000 
-3.96723e-06  2.07072e-05        00000 
-1.65635e-05  2.04028e-05        00000 
-1.15996e-05  3.41451e-05        00000 
-1.50447e-05 -1.51039e-05        00000 
-1.74651e-05  2.03837e-05        00000 
-1.64588e-05 -5.29736e-06        00000 
-6.84285e-06 -1.86223e-05        00000 
 1.49882e-05 -1.39223e-05        00000 
 1.48710e-05  9.54023e-06        00000 
 5.46374e-06 -2.37007e-05        00000 
 3.14859e-05 -6.96363e-06        00000 
 1.75940e-05 -1.90594e-05        00000 
 3.40671e-06 -1.72179e-05        00000 
 7.00658e-06 -7.09165e-06        00000 
 4.57631e-06 -5.02932e-07        00000 
-4.64381e-06 -1.89470e-06        00000 
-7.04721e-06 -1.07127e-05        00000 
-3.40443e-06 -2.16284e-05        00000 
-1.75500e-05 -2.25140e-05        00000 
-3.14181e-05 -8.11235e-06        00000 
-5.39968e-06 -2.21298e-05        00000 
-1.48364e-05  1.31475e-05        00000 
-1.49967e-05 -9.77618e-06        00000 
 6.79509e-06 -1.56381e-05        00000 
 1.63915e-05 -4.68794e-06        00000 
 1.74059e-05  1.83839e-05        00000 
 1.50179e-05 -1.88783e-05        00000 
 1.16159e-05  3.01544e-05        00000 
 1.66154e-05  1.78381e-05        00000 
 3.99662e-06  2.06225e-05        00000 
-1.58433e-05  2.50765e-06        00000 
 8.43744e-06  3.18811e-05        00000 
 1.91441e-05 -3.78600e-06        00000 
-4.32843e-06 -1.22449e-05        00000 
 5.55101e-06  3.50811e-05        00000 
 1.81691e-05 -2.31508e-05        00000 
 9.03041e-06 -3.41955e-05        00000 
 7.76073e-06  1.97388e-06        00000 
 2.56306e-06 -8.51687e-07        00000 
 7.70313e-07  2.39554e-05        00000 
 2.59861e-06 -4.26563e-05        00000 
-1.53502e-05  4.20769e-06        00000 
 4.11392e-07 -1.51565e-05        00000 
-2.35651e-06  3.55548e-06        00000 
 2.22543e-06  1.70914e-05        00000 
-2.29007e-06  1.52606e-05        00000 
 2.31762e-06 -1.20753e-06        00000 
-4.09147e-07 -2.09575e-05        00000 
 1.53924e-05 -3.34647e-07        00000 
-2.53368e-06 -4.41642e-05        00000 
-7.08940e-07  2.60258e-05        00000 
-2.52993e-06  3.89721e-06        00000 
-7.76897e-06  7.43020e-06        00000 
-9.07631e-06 -3.02699e-05        00000 
-1.82337e-05 -2.23518e-05        00000 
-5.60774e-06  3.24456e-05        00000 
 4.30273e-06 -1.72159e-05        00000 
-1.91283e-05 -9.04085e-06        00000 
-8.38765e-06  2.85049e-05        00000 
 1.58716e-05  2.39622e-06        00000 
-3.96087e-06 -1.31311e-05        00000 
-5.18233e-06  6.25829e-06        00000 
-9.60114e-06 -4.50633e-07        00000 
 1.85420e-05  1.15061e-05        00000 
-2.14990e-05  4.58077e-06        00000 
-8.31247e-07 -1.66993e-05        00000 
 3.18376e-06 -1.67124e-06        00000 
-1.50330e-05  1.71739e-05        00000 
 1.30980e-05  7.53926e-06        00000 
-1.24916e-05 -7.23559e-06        00000 
 3.19349e-06 -3.92745e-05        00000 
 3.30452e-06  1.69858e-05        00000 
-5.62425e-06  5.01828e-06        00000 
 1.49256e-05 -3.32340e-06        00000 
 4.75278e-06 -2.08521e-05        00000 
-4.81380e-06 -2.31004e-05        00000 
-1.49623e-05 -9.17235e-06        00000 
 5.62644e-06 -2.10437e-06        00000 
-3.26459e-06  1.14105e-05        00000 
-3.13212e-06 -4.11215e-05        00000 
 1.25496e-05 -4.68707e-06        00000 
-1.30668e-05  1.33770e-05        00000 
 1.50251e-05  2.38783e-05        00000 
-3.22729e-06  3.14968e-06        00000 
 7.70101e-07 -1.57222e-05        00000 
 2.14453e-05  1.33656e-06        00000 
-1.85663e-05  5.39211e-06        00000 
 9.61613e-06 -6.91212e-06        00000 
 5.22953e-06  2.10756e-06        00000 
 3.98764e-06 -1.32681e-05        00000 
-8.80273e-06  1.92534e-05        00000 
 9.06860e-06 -1.63941e-05        00000 
 2.66403e-06  2.10478e-05        00000 
-2.25570e-06  2.26519e-05        00000 
 1.28139e-05 -3.16481e-06        00000 
-1.27551e-05 -1.27908e-05        00000 
 2.01296e-05  1.36326e-05        00000 
 1.61618e-05 -5.51894e-06        00000 
-3.53853e-06  1.19649e-05        00000 
 7.98887e-06 -2.35395e-06        00000 
 9.73507e-06  1.12438e-05        00000 
 1.44987e-05  1.34881e-05        00000 
 1.73905e-05  5.98177e-07        00000 
 1.54938e-05  3.97941e-05        00000 
 1.04723e-07 -1.67436e-05        00000 
-1.61414e-07 -1.93831e-05        00000 
-1.55278e-05  3.29280e-05        00000 
-1.73884e-05 -7.76188e-06        00000 
-1.44615e-05  6.94696e-06        00000 
-9.67796e-06  9.08218e-06        00000 
-7.93498e-06  6.46449e-07        00000 
 3.56747e-06  1.88264e-05        00000 
-1.61693e-05  2.35715e-06        00000 
-2.01703e-05  1.92924e-05        00000 
 1.26980e-05 -1.16494e-05        00000 
-1.28640e-05 -6.98422e-06        00000 
 2.23312e-06  1.54612e-05        00000 
-2.64999e-06  1.34504e-05        00000 
-9.02450e-06 -2.12737e-05        00000 
 8.82773e-06  1.90924e-05        00000 
-2.45412e-05 -9.26858e-06        00000 
-8.12375e-06  9.57673e-06        00000 
 1.34688e-05  1.13490e-05        00000 
 7.55294e-06  6.79710e-06        00000 
 1.40470e-05  1.40683e-05        00000 
 1.34624e-05  7.18614e-06        00000 
-1.19139e-05  1.38566e-06        00000 
 6.38172e-06 -5.05357e-06        00000 
 3.63999e-07  2.04728e-05        00000 
 2.93113e-06 -1.40632e-06        00000 
 5.09166e-06 -1.88252e-05        00000 
 1.54356e-05  8.53560e-06        00000 
 1.63271e-05 -2.12282e-06        00000 
-2.35806e-06  1.09872e-05        00000 
-1.12388e-05 -2.34276e-05        00000 
 1.11871e-05 -2.64274e-05        00000 
 2.32704e-06  3.18436e-06        00000 
-1.63250e-05 -1.16217e-05        00000 
-1.54015e-05  1.10710e-06        00000 
-5.03945e-06 -2.12729e-05        00000 
-2.88193e-06  2.01476e-06        00000 
-3.37672e-07  2.82816e-05        00000 
-6.38878e-06  3.90449e-06        00000 
 1.18765e-05  7.81829e-06        00000 
-1.35147e-05  8.47572e-06        00000 
-1.40928e-05  9.71337e-06        00000 
-7.57356e-06 -1.39235e-06        00000 
-1.34559e-05  2.69932e-06        00000 
 8.16424e-06  4.02197e-06        00000 
 2.45641e-05 -9.45189e-06        00000 
-3.21480e-06 -1.01665e-05        00000 
-2.73961e-05 -2.99338e-06        00000 
-9.43921e-06 -5.27313e-06        00000 
-1.63316e-06  9.20288e-06        00000 
-1.88991e-05 -1.90597e-05        00000 
-8.96892e-06  5.30335e-06        00000 
-1.72434e-05 -1.26152e-05        00000 
 6.08689e-06 -1.44996e-05        00000 
 2.22009e-06 -2.50288e-05        00000 
 1.42931e-05 -1.18974e-05        00000 
 1.85722e-05  8.49123e-06        00000 
 1.64439e-05  1.07672e-05        00000 
 1.92548e-05  1.80257e-06        00000 
-6.18683e-06  2.05552e-05        00000 
 1.92708e-05 -5.63642e-06        00000 
-1.93169e-05 -8.96147e-06        00000 
 6.15920e-06  1.19068e-05        00000 
-1.92529e-05 -8.72336e-06        00000 
-1.64134e-05  2.54002e-06        00000 
-1.85255e-05  5.78916e-06        00000 
-1.42491e-05 -8.09147e-06        00000 
-2.19668e-06 -1.63599e-05        00000 
-6.09340e-06 -4.56158e-06        00000 
 1.72097e-05 -5.48483e-06        00000 
 8.92196e-06  6.72332e-06        00000 
 1.88580e-05 -2.39044e-05        00000 
 1.61473e-06  1.04042e-07        00000 
 9.45093e-06 -1.48799e-05        00000 
 2.74325e-05 -9.16186e-06        00000 
 3.23544e-06 -1.03700e-05        00000 
 4.13855e-06  5.09133e-06        00000 
 1.03884e-05 -1.20681e-05        00000 
 1.05872e-05  1.77619e-05        00000 
-1.44506e-05  5.57701e-05        00000 
-1.03663e-06 -4.15118e-06        00000 
 6.22335e-06  1.95472e-05        00000 
-1.40113e-05 -1.55006e-05        00000 
-2.70707e-05 -2.93356e-05        00000 
-5.59206e-06 -3.98888e-05        00000 
 1.36559e-05 -1.90986e-05        00000 
 6.91557e-06  1.66920e-05        00000 
-3.92563e-06  2.40453e-06        00000 
-4.34856e-06  2.29708e-06        00000 
 1.94921e-05  3.47525e-05        00000 
 1.08265e-05 -1.41872e-05        00000 
-1.08666e-05 -1.77988e-05        00000 
-1.95160e-05  2.53596e-05        00000 
 4.35031e-06 -9.13252e-06        00000 
 3.95227e-06 -6.52361e-06        00000 
-6.87489e-06  1.37703e-05        00000 
-1.36178e-05 -1.49481e-05        00000 
 5.61229e-06 -3.04570e-05        00000 
 2.70648e-05 -1.85309e-05        00000 
 1.39817e-05 -7.75532e-06        00000 
-6.26444e-06  2.10783e-05        00000 
 1.00075e-06 -9.43445e-06        00000 
 1.44346e-05  4.58615e-05        00000 
-1.05768e-05  7.30416e-06        00000 
-1.03564e-05 -1.87818e-05        00000 
-4.12046e-06  4.86980e-06        00000 
 9.23250e-07  9.31230e-06        00000 
-5.83828e-06  1.28951e-06        00000 
 4.43843e-06  4.23720e-07        00000 
 1.15894e-05  2.82661e-05        00000 
 6.20144e-06 -1.75172e-05        00000 
-1.43804e-05 -2.91400e-06        00000 
 2.80794e-06 -4.96026e-07        00000 
-4.10106e-06 -1.10983e-05        00000 
-1.78096e-05 -3.87739e-06        00000 
-2.26181e-06 -7.78727e-06        00000 
-8.58106e-06  1.03007e-05        00000 
 1.26190e-06 -5.02983e-06        00000 
 6.38050e-06  3.21166e-05        00000 
 3.07756e-06 -2.89145e-06        00000 
-5.39644e-06  1.12882e-06        00000 
 5.36294e-06 -2.72748e-06        00000 
-3.09754e-06 -1.29197e-05        00000 
-6.37891e-06  1.99168e-05        00000 
-1.23944e-06 -1.45534e-05        00000 
 8.61524e-06  7.19630e-06        00000 
 2.29381e-06 -3.33660e-06        00000 
 1.78264e-05  6.21166e-06        00000 
 4.09588e-06  4.50038e-07        00000 
-2.83300e-06  7.77425e-06        00000 
 1.43456e-05 -1.29225e-06        00000 
-6.23170e-06 -2.31826e-05        00000 
-1.16029e-05  1.76569e-05        00000 
-4.42958e-06 -1.07689e-05        00000 
 5.86539e-06 -5.89486e-06        00000 
-9.07918e-07  9.07525e-06        00000 
-5.64549e-06 -2.02856e-06        00000 
-8.97326e-06  2.55125e-06        00000 
-3.92736e-06 -1.52612e-05        00000 
 2.00073e-06  7.91315e-06        00000 
 2.36637e-06 -1.35507e-05        00000 
 8.33705e-06  1.64171e-05        00000 
 1.75889e-05  8.68818e-06        00000 
 1.29806e-05 -3.31593e-05        00000 
 1.18097e-05 -3.75351e-05        00000 
-1.43660e-05 -7.96863e-07        00000 
-2.04912e-06  1.60386e-05        00000 
 7.05511e-07 -4.99709e-07        00000 
 1.41391e-06  2.00855e-05        00000 
 8.86486e-06  2.90754e-06        00000 
 2.20410e-06  3.08667e-05        00000 
-2.23070e-06  2.68104e-05        00000 
-8.88067e-06 -7.63992e-06        00000 
-1.41252e-06  7.25741e-06        00000 
-6.87493e-07 -1.05068e-05        00000 
 2.07642e-06  1.27902e-05        00000 
 1.43914e-05  3.90597e-06        00000 
-1.17964e-05 -2.69023e-05        00000 
-1.29850e-05 -2.09988e-05        00000 
-1.76092e-05  1.73878e-05        00000 
-8.36503e-06  1.81084e-05        00000 
-2.39067e-06 -1.95370e-05        00000 
-2.01145e-06 -3.27928e-06        00000 
 3.93461e-06 -2.70640e-05        00000 
 8.99521e-06 -5.02347e-06        00000 
 5.65788e-06 -2.27847e-06        00000 
-1.37769e-05 -5.39207e-06        00000 
-8.10392e-06  2.35483e-05        00000 
-3.00718e-05 -3.84060e-05        00000 
 1.78275e-06  1.94355e-05        00000 
 1.23470e-05 -1.93432e-05        00000 
 1.23473e-05  3.24349e-05        00000 
 1.28630e-05  1.77046e-05        00000 
-1.28632e-05 -5.05077e-06        00000 
 9.37249e-06 -2.20928e-05        00000 
-3.96183e-06  4.86242e-05        00000 
 1.25897e-05  1.92961e-07        00000 
 9.76047e-06  2.38836e-06        00000 
-6.54730e-06 -6.75322e-06        00000 
 2.95052e-06  6.00433e-06        00000 
-5.12740e-06  3.70403e-06        00000 
 5.10799e-06 -5.05553e-07        00000 
-2.96199e-06 -4.94050e-06        00000 
 6.54847e-06 -2.00610e-05        00000 
-9.74710e-06 -7.98537e-06        00000 
-1.25696e-05 -3.15958e-06        00000 
 3.98049e-06  5.35279e-05        00000 
-9.36295e-06 -1.10361e-05        00000 
 1.28597e-05  7.58349e-06        00000 
-1.28783e-05  2.67333e-05        00000 
-1.23682e-05  3.41743e-05        00000 
-1.23651e-05 -2.55852e-05        00000 
-1.79062e-06  7.78446e-06        00000 
 3.00773e-05 -5.06870e-05        00000 
 8.12042e-06  1.56682e-05        00000 
 1.37862e-05 -5.65205e-06        00000 
-1.46550e-05 -2.32353e-06        00000 
-8.87071e-06  4.11549e-05        00000 
-7.23243e-06 -2.18533e-05        00000 
-2.30214e-06 -4.33683e-06        00000 
 8.03537e-06 -2.05102e-05        00000 
 8.73585e-07  3.43476e-06        00000 
 1.24008e-05 -5.96774e-07        00000 
 1.20094e-05 -2.38766e-05        00000 
-1.11543e-05 -2.65960e-05        00000 
 1.80281e-06  1.47658e-05        00000 
-4.23592e-06  1.29073e-05        00000 
-1.30608e-05 -1.66760e-05        00000 
 6.88545e-06 -2.39638e-05        00000 
-2.11829e-06 -2.85033e-07        00000 
-5.20532e-06  2.20086e-05        00000 
 5.19329e-06  1.76942e-05        00000 
 2.11126e-06 -1.15013e-05        00000 
-6.88452e-06 -3.75978e-05        00000 
 1.30693e-05 -2.72960e-05        00000 
 4.24864e-06  9.49095e-06        00000 
-1.79115e-06  1.98162e-05        00000 
 1.11600e-05 -1.52403e-05        00000 
-1.20120e-05 -1.09125e-05        00000 
-1.24109e-05  8.65727e-06        00000 
-8.87138e-07  5.20064e-06        00000 
-8.04697e-06 -2.69390e-05        00000 
 2.29720e-06 -1.63161e-05        00000 
 7.23619e-06 -3.44744e-05        00000 
 8.88156e-06  3.30579e-05        00000 
 1.46611e-05 -2.59064e-06        00000 
-1.66416e-05 -3.13427e-06        00000 
-8.05398e-06 -8.90339e-06        00000 
-1.15505e-05  1.12463e-05        00000 
-2.19221e-05 -1.44620e-05        00000 
-1.90720e-05  5.48170e-05        00000 
-7.19109e-06 -2.65923e-05        00000 
-4.95734e-06  1.05913e-05        00000 
-2.32187e-06 -4.46539e-05        00000 
 4.30060e-06  2.37880e-06        00000 
 3.22784e-06 -1.79686e-05        00000 
-1.80637e-07 -1.94953e-05        00000 
-4.00854e-06  1.53552e-05        00000 
 1.70327e-07 -3.56399e-06        00000 
-1.73918e-05  7.40975e-06        00000 
-5.90036e-07  1.46843e-05        00000 
 5.85494e-07  1.03144e-05        00000 
 1.73893e-05 -3.94948e-06        00000 
-1.69668e-07 -1.73678e-05        00000 
 4.01220e-06  4.61119e-06        00000 
 1.85824e-07 -2.29352e-05        00000 
-3.22329e-06 -1.28279e-05        00000 
-4.29868e-06  1.39049e-05        00000 
 2.32022e-06 -3.15075e-05        00000 
 4.95262e-06  1.99648e-05        00000 
 7.18504e-06 -2.48211e-05        00000 
 1.90670e-05  4.82732e-05        00000 
 2.19202e-05 -2.66347e-05        00000 
 1.15524e-05 -1.57238e-06        00000 
 8.05903e-06 -1.71256e-05        00000 
 1.66444e-05 -3.40551e-06        00000 
 6.72058e-06 -3.54883e-06        00000 
 7.14076e-06  2.56314e-06        00000 
-1.15186e-05  3.93375e-05        00000 
-7.39650e-06  2.41854e-06        00000 
 1.50489e-05  3.81491e-05        00000 
-1.70304e-06 -1.29088e-05        00000 
-5.57862e-06  2.97095e-05        00000 
-8.54063e-07 -3.55683e-05        00000 
 1.11612e-05 -2.75379e-05        00000 
 2.69362e-05 -5.18223e-06        00000 
 1.16036e-06  1.47796e-05        00000 
 3.52844e-06 -5.04256e-06        00000 
-2.03718e-05  1.70791e-05        00000 
 1.39134e-06  2.78485e-05        00000 
 1.28382e-05  1.94386e-05        00000 
-1.28353e-05  1.50631e-05        00000 
-1.38936e-06  1.64760e-05        00000 
 2.03722e-05  3.26310e-06        00000 
-3.52973e-06 -1.57876e-05        00000 
-1.16275e-06  1.13559e-05        00000 
-2.69388e-05 -9.15092e-09        00000 
-1.11631e-05 -1.59723e-05        00000 
 8.53444e-07 -2.23892e-05        00000 
 5.57932e-06  3.90953e-05        00000 
 1.70460e-06 -1.11530e-05        00000 
-1.50473e-05  3.15641e-05        00000 
 7.39753e-06 -9.80954e-06        00000 
 1.15187e-05  2.64664e-05        00000 
-7.14159e-06 -5.69107e-06        00000 
-6.72111e-06 -3.82111e-06        00000 
 1.16330e-07  6.09840e-07        00000 
-1.54347e-05  3.56962e-05        00000 
-1.50282e-05  1.27063e-05        00000 
 7.22908e-06  2.69153e-05        00000 
-2.24094e-05  5.81200e-06        00000 
-1.10652e-05  1.47184e-05        00000 
 7.33512e-06  2.13629e-05        00000 
 1.74704e-05  7.63945e-06        00000 
 2.47659e-05 -2.31113e-05        00000 
-4.62749e-06 -1.46049e-05        00000 
-1.68391e-05  2.75247e-06        00000 
 1.83244e-06 -1.80607e-05        00000 
 7.98072e-06  2.41899e-05        00000 
-1.81556e-05 -3.68403e-06        00000 
-1.26598e-05  2.27466e-05        00000 
 1.26703e-05  1.84153e-05        00000 
 1.81620e-05 -1.49406e-05        00000 