<?xml version="1.0" encoding="utf-8"?>
<VTKFile byte_order="LittleEndian" type="UnstructuredGrid" version="0.1">
   <UnstructuredGrid>
      <Piece NumberOfCells="3364" NumberOfPoints="1741">
         <Points>
            <DataArray Name="Points" NumberOfComponents="3" format="ascii" type="Float32">
0.0000 1.0000 0.0000
0.0000 1.0345 0.0000
0.0000 1.0690 0.0000
0.0000 1.1034 0.0000
0.0000 1.1379 0.0000
0.0000 1.1724 0.0000
0.0000 1.2069 0.0000
0.0000 1.2414 0.0000
0.0000 1.2759 0.0000
0.0000 1.3103 0.0000
0.0000 1.3448 0.0000
0.0000 1.3793 0.0000
0.0000 1.4138 0.0000
0.0000 1.4483 0.0000
0.0000 1.4828 0.0000
0.0000 1.5172 0.0000
0.0000 1.5517 0.0000
0.0000 1.5862 0.0000
0.0000 1.6207 0.0000
0.0000 1.6552 0.0000
0.0000 1.6897 0.0000
0.0000 1.7241 0.0000
0.0000 1.7586 0.0000
0.0000 1.7931 0.0000
0.0000 1.8276 0.0000
0.0000 1.8621 0.0000
0.0000 1.8966 0.0000
0.0000 1.9310 0.0000
0.0000 1.9655 0.0000
0.0000 2.0000 0.0000
0.0690 1.0000 0.0000
0.0690 1.0345 0.0000
0.0690 1.0690 0.0000
0.0690 1.1034 0.0000
0.0690 1.1379 0.0000
0.0690 1.1724 0.0000
0.0690 1.2069 0.0000
0.0690 1.2414 0.0000
0.0690 1.2759 0.0000
0.0690 1.3103 0.0000
0.0690 1.3448 0.0000
0.0690 1.3793 0.0000
0.0690 1.4138 0.0000
0.0690 1.4483 0.0000
0.0690 1.4828 0.0000
0.0690 1.5172 0.0000
0.0690 1.5517 0.0000
0.0690 1.5862 0.0000
0.0690 1.6207 0.0000
0.0690 1.6552 0.0000
0.0690 1.6897 0.0000
0.0690 1.7241 0.0000
0.0690 1.7586 0.0000
0.0690 1.7931 0.0000
0.0690 1.8276 0.0000
0.0690 1.8621 0.0000
0.0690 1.8966 0.0000
0.0690 1.9310 0.0000
0.0690 1.9655 0.0000
0.0690 2.0000 0.0000
0.1379 1.0000 0.0000
0.1379 1.0345 0.0000
0.1379 1.0690 0.0000
0.1379 1.1034 0.0000
0.1379 1.1379 0.0000
0.1379 1.1724 0.0000
0.1379 1.2069 0.0000
0.1379 1.2414 0.0000
0.1379 1.2759 0.0000
0.1379 1.3103 0.0000
0.1379 1.3448 0.0000
0.1379 1.3793 0.0000
0.1379 1.4138 0.0000
0.1379 1.4483 0.0000
0.1379 1.4828 0.0000
0.1379 1.5172 0.0000
0.1379 1.5517 0.0000
0.1379 1.5862 0.0000
0.1379 1.6207 0.0000
0.1379 1.6552 0.0000
0.1379 1.6897 0.0000
0.1379 1.7241 0.0000
0.1379 1.7586 0.0000
0.1379 1.7931 0.0000
0.1379 1.8276 0.0000
0.1379 1.8621 0.0000
0.1379 1.8966 0.0000
0.1379 1.9310 0.0000
0.1379 1.9655 0.0000
0.1379 2.0000 0.0000
0.2069 1.0000 0.0000
0.2069 1.0345 0.0000
0.2069 1.0690 0.0000
0.2069 1.1034 0.0000
0.2069 1.1379 0.0000
0.2069 1.1724 0.0000
0.2069 1.2069 0.0000
0.2069 1.2414 0.0000
0.2069 1.2759 0.0000
0.2069 1.3103 0.0000
0.2069 1.3448 0.0000
0.2069 1.3793 0.0000
0.2069 1.4138 0.0000
0.2069 1.4483 0.0000
0.2069 1.4828 0.0000
0.2069 1.5172 0.0000
0.2069 1.5517 0.0000
0.2069 1.5862 0.0000
0.2069 1.6207 0.0000
0.2069 1.6552 0.0000
0.2069 1.6897 0.0000
0.2069 1.7241 0.0000
0.2069 1.7586 0.0000
0.2069 1.7931 0.0000
0.2069 1.8276 0.0000
0.2069 1.8621 0.0000
0.2069 1.8966 0.0000
0.2069 1.9310 0.0000
0.2069 1.9655 0.0000
0.2069 2.0000 0.0000
0.2759 1.0000 0.0000
0.2759 1.0345 0.0000
0.2759 1.0690 0.0000
0.2759 1.1034 0.0000
0.2759 1.1379 0.0000
0.2759 1.1724 0.0000
0.2759 1.2069 0.0000
0.2759 1.2414 0.0000
0.2759 1.2759 0.0000
0.2759 1.3103 0.0000
0.2759 1.3448 0.0000
0.2759 1.3793 0.0000
0.2759 1.4138 0.0000
0.2759 1.4483 0.0000
0.2759 1.4828 0.0000
0.2759 1.5172 0.0000
0.2759 1.5517 0.0000
0.2759 1.5862 0.0000
0.2759 1.6207 0.0000
0.2759 1.6552 0.0000
0.2759 1.6897 0.0000
0.2759 1.7241 0.0000
0.2759 1.7586 0.0000
0.2759 1.7931 0.0000
0.2759 1.8276 0.0000
0.2759 1.8621 0.0000
0.2759 1.8966 0.0000
0.2759 1.9310 0.0000
0.2759 1.9655 0.0000
0.2759 2.0000 0.0000
0.3448 1.0000 0.0000
0.3448 1.0345 0.0000
0.3448 1.0690 0.0000
0.3448 1.1034 0.0000
0.3448 1.1379 0.0000
0.3448 1.1724 0.0000
0.3448 1.2069 0.0000
0.3448 1.2414 0.0000
0.3448 1.2759 0.0000
0.3448 1.3103 0.0000
0.3448 1.3448 0.0000
0.3448 1.3793 0.0000
0.3448 1.4138 0.0000
0.3448 1.4483 0.0000
0.3448 1.4828 0.0000
0.3448 1.5172 0.0000
0.3448 1.5517 0.0000
0.3448 1.5862 0.0000
0.3448 1.6207 0.0000
0.3448 1.6552 0.0000
0.3448 1.6897 0.0000
0.3448 1.7241 0.0000
0.3448 1.7586 0.0000
0.3448 1.7931 0.0000
0.3448 1.8276 0.0000
0.3448 1.8621 0.0000
0.3448 1.8966 0.0000
0.3448 1.9310 0.0000
0.3448 1.9655 0.0000
0.3448 2.0000 0.0000
0.4138 1.0000 0.0000
0.4138 1.0345 0.0000
0.4138 1.0690 0.0000
0.4138 1.1034 0.0000
0.4138 1.1379 0.0000
0.4138 1.1724 0.0000
0.4138 1.2069 0.0000
0.4138 1.2414 0.0000
0.4138 1.2759 0.0000
0.4138 1.3103 0.0000
0.4138 1.3448 0.0000
0.4138 1.3793 0.0000
0.4138 1.4138 0.0000
0.4138 1.4483 0.0000
0.4138 1.4828 0.0000
0.4138 1.5172 0.0000
0.4138 1.5517 0.0000
0.4138 1.5862 0.0000
0.4138 1.6207 0.0000
0.4138 1.6552 0.0000
0.4138 1.6897 0.0000
0.4138 1.7241 0.0000
0.4138 1.7586 0.0000
0.4138 1.7931 0.0000
0.4138 1.8276 0.0000
0.4138 1.8621 0.0000
0.4138 1.8966 0.0000
0.4138 1.9310 0.0000
0.4138 1.9655 0.0000
0.4138 2.0000 0.0000
0.4828 1.0000 0.0000
0.4828 1.0345 0.0000
0.4828 1.0690 0.0000
0.4828 1.1034 0.0000
0.4828 1.1379 0.0000
0.4828 1.1724 0.0000
0.4828 1.2069 0.0000
0.4828 1.2414 0.0000
0.4828 1.2759 0.0000
0.4828 1.3103 0.0000
0.4828 1.3448 0.0000
0.4828 1.3793 0.0000
0.4828 1.4138 0.0000
0.4828 1.4483 0.0000
0.4828 1.4828 0.0000
0.4828 1.5172 0.0000
0.4828 1.5517 0.0000
0.4828 1.5862 0.0000
0.4828 1.6207 0.0000
0.4828 1.6552 0.0000
0.4828 1.6897 0.0000
0.4828 1.7241 0.0000
0.4828 1.7586 0.0000
0.4828 1.7931 0.0000
0.4828 1.8276 0.0000
0.4828 1.8621 0.0000
0.4828 1.8966 0.0000
0.4828 1.9310 0.0000
0.4828 1.9655 0.0000
0.4828 2.0000 0.0000
0.5517 1.0000 0.0000
0.5517 1.0345 0.0000
0.5517 1.0690 0.0000
0.5517 1.1034 0.0000
0.5517 1.1379 0.0000
0.5517 1.1724 0.0000
0.5517 1.2069 0.0000
0.5517 1.2414 0.0000
0.5517 1.2759 0.0000
0.5517 1.3103 0.0000
0.5517 1.3448 0.0000
0.5517 1.3793 0.0000
0.5517 1.4138 0.0000
0.5517 1.4483 0.0000
0.5517 1.4828 0.0000
0.5517 1.5172 0.0000
0.5517 1.5517 0.0000
0.5517 1.5862 0.0000
0.5517 1.6207 0.0000
0.5517 1.6552 0.0000
0.5517 1.6897 0.0000
0.5517 1.7241 0.0000
0.5517 1.7586 0.0000
0.5517 1.7931 0.0000
0.5517 1.8276 0.0000
0.5517 1.8621 0.0000
0.5517 1.8966 0.0000
0.5517 1.9310 0.0000
0.5517 1.9655 0.0000
0.5517 2.0000 0.0000
0.6207 1.0000 0.0000
0.6207 1.0345 0.0000
0.6207 1.0690 0.0000
0.6207 1.1034 0.0000
0.6207 1.1379 0.0000
0.6207 1.1724 0.0000
0.6207 1.2069 0.0000
0.6207 1.2414 0.0000
0.6207 1.2759 0.0000
0.6207 1.3103 0.0000
0.6207 1.3448 0.0000
0.6207 1.3793 0.0000
0.6207 1.4138 0.0000
0.6207 1.4483 0.0000
0.6207 1.4828 0.0000
0.6207 1.5172 0.0000
0.6207 1.5517 0.0000
0.6207 1.5862 0.0000
0.6207 1.6207 0.0000
0.6207 1.6552 0.0000
0.6207 1.6897 0.0000
0.6207 1.7241 0.0000
0.6207 1.7586 0.0000
0.6207 1.7931 0.0000
0.6207 1.8276 0.0000
0.6207 1.8621 0.0000
0.6207 1.8966 0.0000
0.6207 1.9310 0.0000
0.6207 1.9655 0.0000
0.6207 2.0000 0.0000
0.6897 1.0000 0.0000
0.6897 1.0345 0.0000
0.6897 1.0690 0.0000
0.6897 1.1034 0.0000
0.6897 1.1379 0.0000
0.6897 1.1724 0.0000
0.6897 1.2069 0.0000
0.6897 1.2414 0.0000
0.6897 1.2759 0.0000
0.6897 1.3103 0.0000
0.6897 1.3448 0.0000
0.6897 1.3793 0.0000
0.6897 1.4138 0.0000
0.6897 1.4483 0.0000
0.6897 1.4828 0.0000
0.6897 1.5172 0.0000
0.6897 1.5517 0.0000
0.6897 1.5862 0.0000
0.6897 1.6207 0.0000
0.6897 1.6552 0.0000
0.6897 1.6897 0.0000
0.6897 1.7241 0.0000
0.6897 1.7586 0.0000
0.6897 1.7931 0.0000
0.6897 1.8276 0.0000
0.6897 1.8621 0.0000
0.6897 1.8966 0.0000
0.6897 1.9310 0.0000
0.6897 1.9655 0.0000
0.6897 2.0000 0.0000
0.7586 1.0000 0.0000
0.7586 1.0345 0.0000
0.7586 1.0690 0.0000
0.7586 1.1034 0.0000
0.7586 1.1379 0.0000
0.7586 1.1724 0.0000
0.7586 1.2069 0.0000
0.7586 1.2414 0.0000
0.7586 1.2759 0.0000
0.7586 1.3103 0.0000
0.7586 1.3448 0.0000
0.7586 1.3793 0.0000
0.7586 1.4138 0.0000
0.7586 1.4483 0.0000
0.7586 1.4828 0.0000
0.7586 1.5172 0.0000
0.7586 1.5517 0.0000
0.7586 1.5862 0.0000
0.7586 1.6207 0.0000
0.7586 1.6552 0.0000
0.7586 1.6897 0.0000
0.7586 1.7241 0.0000
0.7586 1.7586 0.0000
0.7586 1.7931 0.0000
0.7586 1.8276 0.0000
0.7586 1.8621 0.0000
0.7586 1.8966 0.0000
0.7586 1.9310 0.0000
0.7586 1.9655 0.0000
0.7586 2.0000 0.0000
0.8276 1.0000 0.0000
0.8276 1.0345 0.0000
0.8276 1.0690 0.0000
0.8276 1.1034 0.0000
0.8276 1.1379 0.0000
0.8276 1.1724 0.0000
0.8276 1.2069 0.0000
0.8276 1.2414 0.0000
0.8276 1.2759 0.0000
0.8276 1.3103 0.0000
0.8276 1.3448 0.0000
0.8276 1.3793 0.0000
0.8276 1.4138 0.0000
0.8276 1.4483 0.0000
0.8276 1.4828 0.0000
0.8276 1.5172 0.0000
0.8276 1.5517 0.0000
0.8276 1.5862 0.0000
0.8276 1.6207 0.0000
0.8276 1.6552 0.0000
0.8276 1.6897 0.0000
0.8276 1.7241 0.0000
0.8276 1.7586 0.0000
0.8276 1.7931 0.0000
0.8276 1.8276 0.0000
0.8276 1.8621 0.0000
0.8276 1.8966 0.0000
0.8276 1.9310 0.0000
0.8276 1.9655 0.0000
0.8276 2.0000 0.0000
0.8966 1.0000 0.0000
0.8966 1.0345 0.0000
0.8966 1.0690 0.0000
0.8966 1.1034 0.0000
0.8966 1.1379 0.0000
0.8966 1.1724 0.0000
0.8966 1.2069 0.0000
0.8966 1.2414 0.0000
0.8966 1.2759 0.0000
0.8966 1.3103 0.0000
0.8966 1.3448 0.0000
0.8966 1.3793 0.0000
0.8966 1.4138 0.0000
0.8966 1.4483 0.0000
0.8966 1.4828 0.0000
0.8966 1.5172 0.0000
0.8966 1.5517 0.0000
0.8966 1.5862 0.0000
0.8966 1.6207 0.0000
0.8966 1.6552 0.0000
0.8966 1.6897 0.0000
0.8966 1.7241 0.0000
0.8966 1.7586 0.0000
0.8966 1.7931 0.0000
0.8966 1.8276 0.0000
0.8966 1.8621 0.0000
0.8966 1.8966 0.0000
0.8966 1.9310 0.0000
0.8966 1.9655 0.0000
0.8966 2.0000 0.0000
0.9655 1.0000 0.0000
0.9655 1.0345 0.0000
0.9655 1.0690 0.0000
0.9655 1.1034 0.0000
0.9655 1.1379 0.0000
0.9655 1.1724 0.0000
0.9655 1.2069 0.0000
0.9655 1.2414 0.0000
0.9655 1.2759 0.0000
0.9655 1.3103 0.0000
0.9655 1.3448 0.0000
0.9655 1.3793 0.0000
0.9655 1.4138 0.0000
0.9655 1.4483 0.0000
0.9655 1.4828 0.0000
0.9655 1.5172 0.0000
0.9655 1.5517 0.0000
0.9655 1.5862 0.0000
0.9655 1.6207 0.0000
0.9655 1.6552 0.0000
0.9655 1.6897 0.0000
0.9655 1.7241 0.0000
0.9655 1.7586 0.0000
0.9655 1.7931 0.0000
0.9655 1.8276 0.0000
0.9655 1.8621 0.0000
0.9655 1.8966 0.0000
0.9655 1.9310 0.0000
0.9655 1.9655 0.0000
0.9655 2.0000 0.0000
1.0345 1.0000 0.0000
1.0345 1.0345 0.0000
1.0345 1.0690 0.0000
1.0345 1.1034 0.0000
1.0345 1.1379 0.0000
1.0345 1.1724 0.0000
1.0345 1.2069 0.0000
1.0345 1.2414 0.0000
1.0345 1.2759 0.0000
1.0345 1.3103 0.0000
1.0345 1.3448 0.0000
[...]
         <PointData>
            <DataArray Name="fValues" NumberOfComponents="3" format="ascii" type="Float64">
-1.20019e-37 -2.10707e-36        00000 
 1.46894e-37  2.77568e-36        00000 
-2.31762e-37 -5.05349e-36        00000 
 3.85768e-37  9.78501e-36        00000 
-6.22209e-37 -1.84474e-35        00000 
 9.48683e-37  3.31684e-35        00000 
-1.35679e-36 -5.65890e-35        00000 
 1.81094e-36  9.14548e-35        00000 
-2.23903e-36 -1.39877e-34        00000 
 2.52930e-36  2.02338e-34        00000 
-2.53856e-36 -2.76704e-34        00000 
 2.11660e-36  3.57650e-34        00000 
-1.14721e-36 -4.36904e-34        00000 
-4.02372e-37  5.04483e-34        00000 
 2.44085e-36 -5.50739e-34        00000 
-4.74251e-36  5.68619e-34        00000 
 6.98096e-36 -5.55421e-34        00000 
-8.80356e-36  5.13431e-34        00000 
 9.92333e-36 -4.49265e-34        00000 
-1.01950e-35  3.72169e-34        00000 
 9.64682e-36 -2.91880e-34        00000 
-8.45893e-36  2.16703e-34        00000 
 6.89988e-36 -1.52285e-34        00000 
-5.24888e-36  1.01277e-34        00000 
 3.73127e-36 -6.37415e-35        00000 
-2.48520e-36  3.79960e-35        00000 
 1.56181e-36 -2.15490e-35        00000 
-9.49513e-37  1.18774e-35        00000 
 6.07960e-37 -6.93875e-36        00000 
-4.99125e-37  5.43901e-36        00000 
 3.08619e-37  5.11565e-36        00000 
-3.84617e-37 -6.85818e-36        00000 
 6.26887e-37  1.28669e-35        00000 
-1.07362e-36 -2.55962e-35        00000 
 1.77267e-36  4.94299e-35        00000 
-2.75752e-36 -9.08548e-35        00000 
 4.01486e-36  1.58182e-34        00000 
-5.44823e-36 -2.60404e-34        00000 
 6.84599e-36  4.04913e-34        00000 
-7.86599e-36 -5.94256e-34        00000 
 8.05467e-36  8.22723e-34        00000 
-6.91858e-36 -1.07416e-33        00000 
 4.05482e-36  1.32245e-33        00000 
 6.81537e-37 -1.53546e-33        00000 
-7.03132e-36  1.68176e-33        00000 
 1.42829e-35 -1.73827e-33        00000 
-2.13762e-35  1.69621e-33        00000 
 2.71520e-35 -1.56316e-33        00000 
-3.06653e-35  1.36083e-33        00000 
 3.14455e-35 -1.11929e-33        00000 
-2.96032e-35  8.69806e-34        00000 
 2.57496e-35 -6.38550e-34        00000 
-2.07759e-35  4.42769e-34        00000 
 1.55891e-35 -2.89918e-34        00000 
-1.08990e-35  1.79245e-34        00000 
 7.11670e-36 -1.04700e-34        00000 
-4.36743e-36  5.80081e-35        00000 
 2.57910e-36 -3.10966e-35        00000 
-1.59778e-36  1.75951e-35        00000 
 1.28813e-36 -1.35392e-35        00000 
-1.44310e-36 -2.23655e-35        00000 
 1.84142e-36  3.06544e-35        00000 
-3.12677e-36 -5.96775e-35        00000 
 5.54523e-36  1.22688e-34        00000 
-9.41939e-36 -2.43975e-34        00000 
 1.50095e-35  4.60651e-34        00000 
-2.23207e-35 -8.22060e-34        00000 
 3.08803e-35  1.38401e-33        00000 
-3.95298e-35 -2.19565e-33        00000 
 4.63010e-35  3.27937e-33        00000 
-4.84784e-35 -4.60825e-33        00000 
 4.29810e-35  6.09017e-33        00000 
-2.71419e-35 -7.56861e-33        00000 
-2.12481e-37  8.84609e-33        00000 
 3.77486e-35 -9.72701e-33        00000 
-8.12118e-35  1.00670e-32        00000 
 1.24026e-34 -9.81131e-33        00000 
-1.58892e-34  9.00841e-33        00000 
 1.79851e-34 -7.79462e-33        00000 
-1.83993e-34  6.35658e-33        00000 
 1.72141e-34 -4.88563e-33        00000 
-1.48278e-34  3.53842e-33        00000 
 1.18068e-34 -2.41420e-33        00000 
-8.71276e-35  1.55123e-33        00000 
 5.96935e-35 -9.38458e-34        00000 
-3.80477e-35  5.34728e-34        00000 
 2.26824e-35 -2.87896e-34        00000 
-1.29254e-35  1.49143e-34        00000 
 7.68239e-36 -8.10732e-35        00000 
-6.04880e-36  6.09082e-35        00000 
 6.85301e-36  9.98579e-35        00000 
-8.97433e-36 -1.39977e-34        00000 
 1.59136e-35  2.82728e-34        00000 
-2.92626e-35 -6.00664e-34        00000 
 5.11884e-35  1.23041e-33        00000 
-8.36175e-35 -2.38781e-33        00000 
 1.27061e-34  4.37079e-33        00000 
-1.79226e-34 -7.53133e-33        00000 
 2.33676e-34  1.21995e-32        00000 
-2.78889e-34 -1.85568e-32        00000 
 2.98325e-34  2.64853e-32        00000 
-2.72399e-34 -3.54505e-32        00000 
 1.83159e-34  4.44911e-32        00000 
-2.13729e-35 -5.23613e-32        00000 
-2.06301e-34  5.78104e-32        00000 
 4.73855e-34 -5.99106e-32        00000 
-7.39397e-34  5.83130e-32        00000 
 9.55691e-34 -5.33354e-32        00000 
-1.08411e-33  4.58567e-32        00000 
 1.10621e-33 -3.70664e-32        00000 
-1.02814e-33  2.81651e-32        00000 
 8.76526e-34 -2.01135e-32        00000 
-6.88294e-34  1.34943e-32        00000 
 4.99085e-34 -8.50208e-33        00000 
-3.34732e-34  5.02867e-33        00000 
 2.08016e-34 -2.79239e-33        00000 
-1.20322e-34  1.45957e-33        00000 
 6.60726e-35 -7.30012e-34        00000 
-3.75906e-35  3.80673e-34        00000 
 2.88420e-35 -2.78761e-34        00000 
-3.17950e-35 -4.37234e-34        00000 
 4.29140e-35  6.27803e-34        00000 
-7.98723e-35 -1.31799e-33        00000 
 1.52808e-34  2.89861e-33        00000 
-2.76026e-34 -6.12808e-33        00000 
 4.63261e-34  1.22485e-32        00000 
-7.20483e-34 -2.30439e-32        00000 
 1.03726e-33  4.07188e-32        00000 
-1.37826e-33 -6.74695e-32        00000 
 1.67669e-33  1.04697e-31        00000 
-1.83264e-33 -1.51995e-31        00000 
 1.72232e-33  2.06301e-31        00000 
-1.22533e-33 -2.61709e-31        00000 
 2.70877e-34  3.10336e-31        00000 
 1.11133e-33 -3.44146e-31        00000 
-2.76277e-33  3.57153e-31        00000 
 4.41548e-33 -3.47126e-31        00000 
-5.76212e-33  3.16167e-31        00000 
 6.55095e-33 -2.69967e-31        00000 
-6.66467e-33  2.16128e-31        00000 
 6.14907e-33 -1.62199e-31        00000 
-5.18301e-33  1.14071e-31        00000 
 4.00799e-33 -7.51416e-32        00000 
-2.85048e-33  4.63384e-32        00000 
 1.86737e-33 -2.67387e-32        00000 
-1.12851e-33  1.44351e-32        00000 
 6.31483e-34 -7.30557e-33        00000 
-3.33018e-34  3.51724e-33        00000 
 1.80474e-34 -1.75254e-33        00000 
-1.34401e-34  1.24679e-33        00000 
 1.43177e-34  1.87033e-33        00000 
-2.00298e-34 -2.75550e-33        00000 
 3.93770e-34  6.02417e-33        00000 
-7.87079e-34 -1.37409e-32        00000 
 1.47326e-33  3.00486e-32        00000 
-2.54774e-33 -6.20044e-32        00000 
 4.06406e-33  1.20181e-31        00000 
-5.97964e-33 -2.18268e-31        00000 
 8.10319e-33  3.70748e-31        00000 
-1.00518e-32 -5.88063e-31        00000 
 1.12289e-32  8.69905e-31        00000 
-1.08585e-32 -1.19902e-30        00000 
 8.13689e-33  1.53919e-30        00000 
-2.53057e-33 -1.84038e-30        00000 
-5.86108e-33  2.05072e-30        00000 
 1.60768e-32 -2.13142e-30        00000 
-2.63958e-32  2.06823e-30        00000 
 3.48070e-32 -1.87514e-30        00000 
-3.96617e-32  1.58914e-30        00000 
 4.02126e-32 -1.25894e-30        00000 
-3.67993e-32  9.32072e-31        00000 
 3.06285e-32 -6.44592e-31        00000 
-2.32845e-32  4.16152e-31        00000 
 1.62070e-32 -2.50646e-31        00000 
-1.03429e-32  1.40743e-31        00000 
 6.05913e-33 -7.36529e-32        00000 
-3.26820e-33  3.59731e-32        00000 
 1.64823e-33 -1.66106e-32        00000 
-8.45877e-34  7.87176e-33        00000 
 6.08363e-34 -5.41878e-33        00000 
-6.21344e-34 -7.79877e-33        00000 
 9.07833e-34  1.18098e-32        00000 
-1.89993e-33 -2.69357e-32        00000 
 3.98765e-33  6.38401e-32        00000 
-7.76741e-33 -1.44741e-31        00000 
 1.38910e-32  3.09145e-31        00000 
-2.27897e-32 -6.18965e-31        00000 
 3.43271e-32  1.15839e-30        00000 
-4.74782e-32 -2.02196e-30        00000 
 6.00723e-32  3.28562e-30        00000 
-6.85990e-32 -4.96241e-30        00000 
 6.82528e-32  6.95775e-30        00000 
-5.36983e-32 -9.05010e-30        00000 
 2.09616e-32  1.09206e-29        00000 
 2.99730e-32 -1.22329e-29        00000 
-9.33188e-32  1.27344e-29        00000 
 1.57973e-31 -1.23344e-29        00000 
-2.10694e-31  1.11266e-29        00000 
 2.40628e-31 -9.35227e-30        00000 
-2.43009e-31  7.32439e-30        00000 
 2.20353e-31 -5.34247e-30        00000 
-1.80836e-31  3.62701e-30        00000 
 1.34883e-31 -2.29015e-30        00000 
-9.16453e-32  1.34376e-30        00000 
 5.67911e-32 -7.32068e-31        00000 
-3.21277e-32  3.70061e-31        00000 
 1.66309e-32 -1.73742e-31        00000 
-7.98077e-33  7.66130e-32        00000 
 3.85177e-33 -3.43481e-32        00000 
-2.65868e-33  2.27721e-32        00000 
 2.57145e-33  3.16193e-32        00000 
-3.96823e-33 -4.93180e-32        00000 
 8.93131e-33  1.17545e-31        00000 
-1.98014e-32 -2.89947e-31        00000 
 4.03442e-32  6.83175e-31        00000 
-7.49590e-32 -1.51464e-30        00000 
 1.26940e-31  3.14193e-30        00000 
-1.96180e-31 -6.07680e-30        00000 
 2.77196e-31  1.09300e-29        00000 
-3.57782e-31 -1.82424e-29        00000 
 4.17675e-31  2.81971e-29        00000 
-4.27623e-31 -4.02974e-29        00000 
 3.52481e-31  5.31932e-29        00000 
-1.62876e-31 -6.48447e-29        00000 
-1.46094e-31  7.30571e-29        00000 
 5.39949e-31 -7.61788e-29        00000 
-9.46631e-31  7.36329e-29        00000 
 1.27834e-30 -6.60541e-29        00000 
-1.46325e-30  5.50222e-29        00000 
 1.47099e-30 -4.25509e-29        00000 
-1.32017e-30  3.05304e-29        00000 
 1.06642e-30 -2.03070e-29        00000 
-7.78574e-31  1.25094e-29        00000 
 5.14778e-31 -7.12932e-30        00000 
-3.08550e-31  3.75474e-30        00000 
 1.67775e-31 -1.82567e-30        00000 
-8.29031e-32  8.19998e-31        00000 
 3.76239e-32 -3.43540e-31        00000 
-1.69346e-32  1.44840e-31        00000 
 1.11292e-32 -9.19828e-32        00000 
-9.97244e-33 -1.24212e-31        00000 
 1.65622e-32  2.00214e-31        00000 
-4.06713e-32 -4.99581e-31        00000 
 9.59374e-32  1.28384e-30        00000 
-2.05698e-31 -3.15044e-30        00000 
 3.99369e-31  7.27253e-30        00000 
-7.01507e-31 -1.56823e-29        00000 
 1.11586e-30  3.14487e-29        00000 
-1.61263e-30 -5.84690e-29        00000 
 2.12309e-30  1.00527e-28        00000 
-2.53311e-30 -1.59454e-28        00000 
 2.66926e-30  2.32835e-28        00000 
-2.30270e-30 -3.12494e-28        00000 
 1.21720e-30  3.85323e-28        00000 
 6.54990e-31 -4.36887e-28        00000 
-3.11141e-30  4.56334e-28        00000 
 5.68074e-30 -4.40034e-28        00000 
-7.77625e-30  3.92325e-28        00000 
 8.92050e-30 -3.23580e-28        00000 
-8.92025e-30  2.46772e-28        00000 
 7.91302e-30 -1.73852e-28        00000 
-6.27908e-30  1.13024e-28        00000 
 4.47426e-30 -6.77285e-29        00000 
-2.86782e-30  3.73584e-29        00000 
 1.65465e-30 -1.89378e-29        00000 
-8.59802e-31  8.81093e-30        00000 
 4.02858e-31 -3.76371e-30        00000 
-1.71600e-31  1.48901e-30        00000 
 7.12912e-32 -5.86418e-31        00000 
-4.41376e-32  3.54541e-31        00000 
 3.50015e-32  4.69614e-31        00000 
-6.49486e-32 -7.87987e-31        00000 
 1.78115e-31  2.06502e-30        00000 
-4.50987e-31 -5.52776e-30        00000 
 1.02454e-30  1.41464e-29        00000 
-2.09342e-30 -3.41082e-29        00000 
 3.83932e-30  7.67483e-29        00000 
-6.31465e-30 -1.60182e-28        00000 
 9.35070e-30  3.08924e-28        00000 
-1.25513e-29 -5.48973e-28        00000 
 1.52915e-29  8.96419e-28        00000 
-1.65873e-29 -1.34125e-27        00000 
 1.49761e-29  1.83456e-27        00000 
-8.86759e-30 -2.29161e-27        00000 
-2.45736e-30  2.61655e-27        00000 
 1.78349e-29 -2.73768e-27        00000 
-3.41482e-29  2.63257e-27        00000 
 4.74424e-29 -2.33130e-27        00000 
-5.45329e-29  1.90195e-27        00000 
 5.41968e-29 -1.42819e-27        00000 
-4.74480e-29  9.85769e-28        00000 
 3.68953e-29 -6.24621e-28        00000 
-2.55695e-29  3.62844e-28        00000 
 1.58127e-29 -1.92870e-28        00000 
-8.72961e-30  9.35950e-29        00000 
 4.30345e-30 -4.13939e-29        00000 
-1.89593e-30  1.66944e-29        00000 
 7.50718e-31 -6.19214e-30        00000 
-2.84058e-31  2.26134e-30        00000 
 1.63223e-31 -1.29258e-30        00000 
-1.01580e-31 -1.68226e-30        00000 
 2.32010e-31  2.99193e-30        00000 
-7.42961e-31 -8.30402e-30        00000 
 2.04357e-30  2.31059e-29        00000 
-4.95397e-30 -6.16210e-29        00000 
 1.07401e-29  1.55623e-28        00000 
-2.07479e-29 -3.66994e-28        00000 
 3.55307e-29  8.00675e-28        00000 
-5.40750e-29 -1.60835e-27        00000 
 7.39428e-29  2.96528e-27        00000 
-9.17983e-29 -5.00267e-27        00000 
 1.02486e-28  7.69639e-27        00000 
-9.69657e-29 -1.07600e-26        00000 
 6.35131e-29  1.36424e-26        00000 
 4.81915e-30 -1.56981e-26        00000 
-1.01542e-28  1.64507e-26        00000 
 2.05704e-28 -1.57676e-26        00000 
-2.90397e-28  1.38596e-26        00000 
 3.34374e-28 -1.11723e-26        00000 
-3.29960e-28  8.24507e-27        00000 
 2.84582e-28 -5.56048e-27        00000 
-2.16209e-28  3.42239e-27        00000 
 1.45088e-28 -1.91927e-27        00000 
-8.60497e-29  9.77875e-28        00000 
 4.51054e-29 -4.51087e-28        00000 
-2.08994e-29  1.88038e-28        00000 
 8.56415e-30 -7.09649e-29        00000 
-3.11278e-30  2.44760e-29        00000 
 1.05306e-30 -8.22343e-30        00000 
-5.48517e-31  4.40900e-30        00000 
 1.59804e-31  5.49650e-30        00000 
-6.98343e-31 -1.08138e-29        00000 
 2.90769e-30  3.25668e-29        00000 
-8.86586e-30 -9.39236e-29        00000 
 2.30821e-29  2.59434e-28        00000 
-5.35201e-29 -6.87209e-28        00000 
 1.10147e-28  1.70724e-27        00000 
-1.98499e-28 -3.91376e-27        00000 
 3.12250e-28  8.22742e-27        00000 
-4.34587e-28 -1.58062e-26        00000 
 5.47481e-28  2.76628e-26        00000 
-6.28225e-28 -4.39367e-26        00000 
 6.24706e-28  6.30240e-26        00000 
-4.49996e-28 -8.13168e-26        00000 
 3.91227e-29  9.43792e-26        00000 
 5.73237e-28 -9.90226e-26        00000 
-1.24251e-27  9.45401e-26        00000 
 1.78401e-27 -8.24343e-26        00000 
-2.05686e-27  6.55822e-26        00000 
 2.01332e-27 -4.74539e-26        00000 
-1.70709e-27  3.11624e-26        00000 
 1.26247e-27 -1.85555e-26        00000 
-8.15668e-28  9.99625e-27        00000 
 4.60306e-28 -4.84791e-27        00000 
-2.26799e-28  2.10552e-27        00000 
 9.75745e-29 -8.18200e-28        00000 
-3.66643e-29  2.85957e-28        00000 
 1.20228e-29 -9.09008e-29        00000 
-3.53228e-30  2.78525e-29        00000 
 1.59357e-30 -1.38728e-29        00000 
 7.65963e-31 -1.49602e-29        00000 
 1.27295e-30  3.56891e-29        00000 
-1.03301e-29 -1.24350e-28        00000 
 3.65923e-29  3.75302e-28        00000 
-1.02966e-28 -1.05477e-27        00000 
 2.56312e-28  2.91508e-27        00000 
-5.69333e-28 -7.68372e-27        00000 
 1.09733e-27  1.86281e-26        00000 
-1.80329e-27 -4.11994e-26        00000 
 2.55531e-27  8.29183e-26        00000 
-3.24131e-27 -1.51216e-25        00000 
 3.80589e-27  2.49056e-25        00000 
-3.99908e-27 -3.68370e-25        00000 
 3.17136e-27  4.85509e-25        00000 
-7.11265e-28 -5.68934e-25        00000 
-3.20430e-27  5.97073e-25        00000 
 7.53294e-27 -5.67347e-25        00000 
-1.10021e-26  4.90596e-25        00000 
 1.26955e-26 -3.84717e-25        00000 
-1.23152e-26  2.72046e-25        00000 
 1.02401e-26 -1.73189e-25        00000 
-7.33622e-27  9.93152e-26        00000 
 4.52904e-27 -5.10917e-26        00000 
-2.40640e-27  2.33508e-26        00000 
 1.09948e-27 -9.41860e-27        00000 
-4.32088e-28  3.36613e-27        00000 
 1.46035e-28 -1.07767e-27        00000 
-4.21072e-29  3.12687e-28        00000 
 1.01525e-29 -8.64225e-29        00000 
-3.49136e-30  3.94588e-29        00000 
-1.02640e-29  2.64043e-29        00000 
 3.86351e-30 -9.53506e-29        00000 
 3.00412e-29  4.43877e-28        00000 
-1.41914e-28 -1.50684e-27        00000 
 4.40401e-28  4.21283e-27        00000 
-1.16596e-27 -1.17202e-26        00000 
 2.81954e-27  3.31510e-26        00000 
-5.95666e-27 -8.60202e-26        00000 
 1.04279e-26  2.00867e-25        00000 
-1.51168e-26 -4.26563e-25        00000 
 1.90691e-26  8.15385e-25        00000 
-2.26217e-26 -1.39768e-24        00000 
 2.53432e-26  2.14508e-24        00000 
-2.23840e-26 -2.90609e-24        00000 
 7.70227e-27  3.44235e-24        00000 
 1.77622e-26 -3.60510e-24        00000 
-4.59050e-26  3.40597e-24        00000 
 6.80949e-26 -2.92282e-24        00000 
-7.86401e-26  2.25595e-24        00000 
 7.55545e-26 -1.55101e-24        00000 
-6.14149e-26  9.51856e-25        00000 
 4.23462e-26 -5.23506e-25        00000 
-2.47208e-26  2.55129e-25        00000 
 1.21860e-26 -1.08076e-25        00000 
-5.06636e-27  3.97242e-26        00000 
 1.77826e-27 -1.28851e-26        00000 
-5.25951e-28  3.73676e-27        00000 
 1.27491e-28 -9.77462e-28        00000 
-2.14537e-29  2.39745e-28        00000 
 1.99442e-30 -9.81085e-29        00000 
 7.44720e-29  2.67481e-29        00000 
-6.20043e-29  1.55057e-28        00000 
-3.86382e-29 -1.23520e-27        00000 
 4.91253e-28  5.93904e-27        00000 
-1.82509e-27 -1.78350e-26        00000 
 5.07518e-27  4.44963e-26        00000 
-1.29667e-26 -1.32041e-25        00000 
 3.12009e-26  3.87258e-25        00000 
-6.03559e-26 -9.47833e-25        00000 
 9.06618e-26  2.13223e-24        00000 
-1.12441e-25 -4.34073e-24        00000 
 1.30071e-25  7.73419e-24        00000 
-1.57146e-25 -1.23874e-23        00000 
 1.60258e-25  1.74743e-23        00000 
-7.19448e-26 -2.09515e-23        00000 
-9.91175e-26  2.17658e-23        00000 
 2.81417e-25 -2.04326e-23        00000 
-4.22404e-25  1.74579e-23        00000 
 4.89110e-25 -1.32334e-23        00000 
-4.65292e-25  8.76209e-24        00000 
 3.68154e-25 -5.15307e-24        00000 
-2.42084e-25  2.71695e-24        00000 
 1.31656e-25 -1.23431e-24        00000 
-5.89217e-26  4.70017e-25        00000 
 2.16921e-26 -1.54866e-25        00000 
-6.58620e-27  4.50532e-26        00000 
 1.63256e-27 -1.16591e-26        00000 
-2.97524e-28  2.69882e-27        00000 
 6.93470e-30 -5.69756e-28        00000 
 3.55642e-29  1.98393e-28        00000 
-4.40479e-28 -5.65239e-28        00000 
 4.63992e-28  2.41104e-28        00000 
-3.08041e-28  2.31117e-27        00000 
-1.10531e-27 -1.55262e-26        00000 
 7.37077e-27  8.71188e-26        00000 
-2.19342e-26 -1.87094e-25        00000 
 5.56904e-26  4.24035e-25        00000 
-1.44440e-25 -1.63444e-24        00000 
 3.57250e-25  4.58452e-24        00000 
-5.45370e-25 -9.78256e-24        00000 
 6.85217e-25  2.31062e-23        00000 
-7.15189e-25 -4.23578e-23        00000 
 8.97571e-25  6.95233e-23        00000 
-1.21342e-24 -1.06433e-22        00000 
 6.26835e-25  1.28813e-22        00000 
 5.94940e-25 -1.30707e-22        00000 
-1.71957e-24  1.22388e-22        00000 
 2.62487e-24 -1.04844e-22        00000 
-3.05620e-24  7.79070e-23        00000 
 2.88149e-24 -4.84527e-23        00000 
-2.20330e-24  2.74435e-23        00000 
 1.36475e-24 -1.40101e-23        00000 
-6.75115e-25  5.58201e-24        00000 
 2.65416e-25 -1.87088e-24        00000 
-8.30048e-26  5.47350e-25        00000 
 2.08404e-26 -1.40119e-25        00000 
-3.92989e-27  3.16209e-26        00000 
 2.86321e-28 -6.25331e-27        00000 
 2.53245e-28  1.05024e-27        00000 
-2.81971e-28 -2.49890e-28        00000 
 2.31568e-27  3.64514e-27        00000 
-2.78657e-27 -3.91432e-27        00000 
 3.44608e-27  2.87569e-28        00000 
-7.35585e-28  3.00677e-26        00000 
-1.88943e-26 -1.65077e-25        00000 
 1.14033e-25  1.58776e-24        00000 
-2.16134e-25 -6.36849e-25        00000 
 6.18072e-25  4.67262e-24        00000 
-1.63043e-24 -2.39106e-23        00000 
 4.50186e-24  4.86235e-23        00000 
-2.19717e-24 -8.78196e-23        00000 
 7.32314e-24  2.99882e-22        00000 
 5.13444e-25 -2.80978e-22        00000 
 1.43739e-23  7.37251e-22        00000 
-2.14288e-24 -7.59680e-22        00000 
-2.55028e-24  7.94726e-22        00000 
 1.11074e-23 -7.23342e-22        00000 