<?xml version="1.0" encoding="utf-8"?>
<VTKFile byte_order="LittleEndian" type="UnstructuredGrid" version="0.1">
   <UnstructuredGrid>
      <Piece NumberOfCells="3364" NumberOfPoints="1741">
         <Points>
            <DataArray Name="Points" NumberOfComponents="3" format="ascii" type="Float32">
0.0000 1.0000 0.0000
0.0000 1.0345 0.0000
0.0000 1.0690 0.0000
0.0000 1.1034 0.0000
0.0000 1.1379 0.0000
0.0000 1.1724 0.0000
0.0000 1.2069 0.0000
0.0000 1.2414 0.0000
0.0000 1.2759 0.0000
0.0000 1.3103 0.0000
0.0000 1.3448 0.0000
0.0000 1.3793 0.0000
0.0000 1.4138 0.0000
0.0000 1.4483 0.0000
0.0000 1.4828 0.0000
0.0000 1.5172 0.0000
0.0000 1.5517 0.0000
0.0000 1.5862 0.0000
0.0000 1.6207 0.0000
0.0000 1.6552 0.0000
0.0000 1.6897 0.0000
0.0000 1.7241 0.0000
0.0000 1.7586 0.0000
0.0000 1.7931 0.0000
0.0000 1.8276 0.0000
0.0000 1.8621 0.0000
0.0000 1.8966 0.0000
0.0000 1.9310 0.0000
0.0000 1.9655 0.0000
0.0000 2.0000 0.0000
0.0690 1.0000 0.0000
0.0690 1.0345 0.0000
0.0690 1.0690 0.0000
0.0690 1.1034 0.0000
0.0690 1.1379 0.0000
0.0690 1.1724 0.0000
0.0690 1.2069 0.0000
0.0690 1.2414 0.0000
0.0690 1.2759 0.0000
0.0690 1.3103 0.0000
0.0690 1.3448 0.0000
0.0690 1.3793 0.0000
0.0690 1.4138 0.0000
0.0690 1.4483 0.0000
0.0690 1.4828 0.0000
0.0690 1.5172 0.0000
0.0690 1.5517 0.0000
0.0690 1.5862 0.0000
0.0690 1.6207 0.0000
0.0690 1.6552 0.0000
0.0690 1.6897 0.0000
0.0690 1.7241 0.0000
0.0690 1.7586 0.0000
0.0690 1.7931 0.0000
0.0690 1.8276 0.0000
0.0690 1.8621 0.0000
0.0690 1.8966 0.0000
0.0690 1.9310 0.0000
0.0690 1.9655 0.0000
0.0690 2.0000 0.0000
0.1379 1.0000 0.0000
0.1379 1.0345 0.0000
0.1379 1.0690 0.0000
0.1379 1.1034 0.0000
0.1379 1.1379 0.0000
0.1379 1.1724 0.0000
0.1379 1.2069 0.0000
0.1379 1.2414 0.0000
0.1379 1.2759 0.0000
0.1379 1.3103 0.0000
0.1379 1.3448 0.0000
0.1379 1.3793 0.0000
0.1379 1.4138 0.0000
0.1379 1.4483 0.0000
0.1379 1.4828 0.0000
0.1379 1.5172 0.0000
0.1379 1.5517 0.0000
0.1379 1.5862 0.0000
0.1379 1.6207 0.0000
0.1379 1.6552 0.0000
0.1379 1.6897 0.0000
0.1379 1.7241 0.0000
0.1379 1.7586 0.0000
0.1379 1.7931 0.0000
0.1379 1.8276 0.0000
0.1379 1.8621 0.0000
0.1379 1.8966 0.0000
0.1379 1.9310 0.0000
0.1379 1.9655 0.0000
0.1379 2.0000 0.0000
0.2069 1.0000 0.0000
0.2069 1.0345 0.0000
0.2069 1.0690 0.0000
0.2069 1.1034 0.0000
0.2069 1.1379 0.0000
0.2069 1.1724 0.0000
0.2069 1.2069 0.0000
0.2069 1.2414 0.0000
0.2069 1.2759 0.0000
0.2069 1.3103 0.0000
0.2069 1.3448 0.0000
0.2069 1.3793 0.0000
0.2069 1.4138 0.0000
0.2069 1.4483 0.0000
0.2069 1.4828 0.0000
0.2069 1.5172 0.0000
0.2069 1.5517 0.0000
0.2069 1.5862 0.0000
0.2069 1.6207 0.0000
0.2069 1.6552 0.0000
0.2069 1.6897 0.0000
0.2069 1.7241 0.0000
0.2069 1.7586 0.0000
0.2069 1.7931 0.0000
0.2069 1.8276 0.0000
0.2069 1.8621 0.0000
0.2069 1.8966 0.0000
0.2069 1.9310 0.0000
0.2069 1.9655 0.0000
0.2069 2.0000 0.0000
0.2759 1.0000 0.0000
0.2759 1.0345 0.0000
0.2759 1.0690 0.0000
0.2759 1.1034 0.0000
0.2759 1.1379 0.0000
0.2759 1.1724 0.0000
0.2759 1.2069 0.0000
0.2759 1.2414 0.0000
0.2759 1.2759 0.0000
0.2759 1.3103 0.0000
0.2759 1.3448 0.0000
0.2759 1.3793 0.0000
0.2759 1.4138 0.0000
0.2759 1.4483 0.0000
0.2759 1.4828 0.0000
0.2759 1.5172 0.0000
0.2759 1.5517 0.0000
0.2759 1.5862 0.0000
0.2759 1.6207 0.0000
0.2759 1.6552 0.0000
0.2759 1.6897 0.0000
0.2759 1.7241 0.0000
0.2759 1.7586 0.0000
0.2759 1.7931 0.0000
0.2759 1.8276 0.0000
0.2759 1.8621 0.0000
0.2759 1.8966 0.0000
0.2759 1.9310 0.0000
0.2759 1.9655 0.0000
0.2759 2.0000 0.0000
0.3448 1.0000 0.0000
0.3448 1.0345 0.0000
0.3448 1.0690 0.0000
0.3448 1.1034 0.0000
0.3448 1.1379 0.0000
0.3448 1.1724 0.0000
0.3448 1.2069 0.0000
0.3448 1.2414 0.0000
0.3448 1.2759 0.0000
0.3448 1.3103 0.0000
0.3448 1.3448 0.0000
0.3448 1.3793 0.0000
0.3448 1.4138 0.0000
0.3448 1.4483 0.0000
0.3448 1.4828 0.0000
0.3448 1.5172 0.0000
0.3448 1.5517 0.0000
0.3448 1.5862 0.0000
0.3448 1.6207 0.0000
0.3448 1.6552 0.0000
0.3448 1.6897 0.0000
0.3448 1.7241 0.0000
0.3448 1.7586 0.0000
0.3448 1.7931 0.0000
0.3448 1.8276 0.0000
0.3448 1.8621 0.0000
0.3448 1.8966 0.0000
0.3448 1.9310 0.0000
0.3448 1.9655 0.0000
0.3448 2.0000 0.0000
0.4138 1.0000 0.0000
0.4138 1.0345 0.0000
0.4138 1.0690 0.0000
0.4138 1.1034 0.0000
0.4138 1.1379 0.0000
0.4138 1.1724 0.0000
0.4138 1.2069 0.0000
0.4138 1.2414 0.0000
0.4138 1.2759 0.0000
0.4138 1.3103 0.0000
0.4138 1.3448 0.0000
0.4138 1.3793 0.0000
0.4138 1.4138 0.0000
0.4138 1.4483 0.0000
0.4138 1.4828 0.0000
0.4138 1.5172 0.0000
0.4138 1.5517 0.0000
0.4138 1.5862 0.0000
0.4138 1.6207 0.0000
0.4138 1.6552 0.0000
0.4138 1.6897 0.0000
0.4138 1.7241 0.0000
0.4138 1.7586 0.0000
0.4138 1.7931 0.0000
0.4138 1.8276 0.0000
0.4138 1.8621 0.0000
0.4138 1.8966 0.0000
0.4138 1.9310 0.0000
0.4138 1.9655 0.0000
0.4138 2.0000 0.0000
0.4828 1.0000 0.0000
0.4828 1.0345 0.0000
0.4828 1.0690 0.0000
0.4828 1.1034 0.0000
0.4828 1.1379 0.0000
0.4828 1.1724 0.0000
0.4828 1.2069 0.0000
0.4828 1.2414 0.0000
0.4828 1.2759 0.0000
0.4828 1.3103 0.0000
0.4828 1.3448 0.0000
0.4828 1.3793 0.0000
0.4828 1.4138 0.0000
0.4828 1.4483 0.0000
0.4828 1.4828 0.0000
0.4828 1.5172 0.0000
0.4828 1.5517 0.0000
0.4828 1.5862 0.0000
0.4828 1.6207 0.0000
0.4828 1.6552 0.0000
0.4828 1.6897 0.0000
0.4828 1.7241 0.0000
0.4828 1.7586 0.0000
0.4828 1.7931 0.0000
0.4828 1.8276 0.0000
0.4828 1.8621 0.0000
0.4828 1.8966 0.0000
0.4828 1.9310 0.0000
0.4828 1.9655 0.0000
0.4828 2.0000 0.0000
0.5517 1.0000 0.0000
0.5517 1.0345 0.0000
0.5517 1.0690 0.0000
0.5517 1.1034 0.0000
0.5517 1.1379 0.0000
0.5517 1.1724 0.0000
0.5517 1.2069 0.0000
0.5517 1.2414 0.0000
0.5517 1.2759 0.0000
0.5517 1.3103 0.0000
0.5517 1.3448 0.0000
0.5517 1.3793 0.0000
0.5517 1.4138 0.0000
0.5517 1.4483 0.0000
0.5517 1.4828 0.0000
0.5517 1.5172 0.0000
0.5517 1.5517 0.0000
0.5517 1.5862 0.0000
0.5517 1.6207 0.0000
0.5517 1.6552 0.0000
0.5517 1.6897 0.0000
0.5517 1.7241 0.0000
0.5517 1.7586 0.0000
0.5517 1.7931 0.0000
0.5517 1.8276 0.0000
0.5517 1.8621 0.0000
0.5517 1.8966 0.0000
0.5517 1.9310 0.0000
0.5517 1.9655 0.0000
0.5517 2.0000 0.0000
0.6207 1.0000 0.0000
0.6207 1.0345 0.0000
0.6207 1.0690 0.0000
0.6207 1.1034 0.0000
0.6207 1.1379 0.0000
0.6207 1.1724 0.0000
0.6207 1.2069 0.0000
0.6207 1.2414 0.0000
0.6207 1.2759 0.0000
0.6207 1.3103 0.0000
0.6207 1.3448 0.0000
0.6207 1.3793 0.0000
0.6207 1.4138 0.0000
0.6207 1.4483 0.0000
0.6207 1.4828 0.0000
0.6207 1.5172 0.0000
0.6207 1.5517 0.0000
0.6207 1.5862 0.0000
0.6207 1.6207 0.0000
0.6207 1.6552 0.0000
0.6207 1.6897 0.0000
0.6207 1.7241 0.0000
0.6207 1.7586 0.0000
0.6207 1.7931 0.0000
0.6207 1.8276 0.0000
0.6207 1.8621 0.0000
0.6207 1.8966 0.0000
0.6207 1.9310 0.0000
0.6207 1.9655 0.0000
0.6207 2.0000 0.0000
0.6897 1.0000 0.0000
0.6897 1.0345 0.0000
0.6897 1.0690 0.0000
0.6897 1.1034 0.0000
0.6897 1.1379 0.0000
0.6897 1.1724 0.0000
0.6897 1.2069 0.0000
0.6897 1.2414 0.0000
0.6897 1.2759 0.0000
0.6897 1.3103 0.0000
0.6897 1.3448 0.0000
0.6897 1.3793 0.0000
0.6897 1.4138 0.0000
0.6897 1.4483 0.0000
0.6897 1.4828 0.0000
0.6897 1.5172 0.0000
0.6897 1.5517 0.0000
0.6897 1.5862 0.0000
0.6897 1.6207 0.0000
0.6897 1.6552 0.0000
0.6897 1.6897 0.0000
0.6897 1.7241 0.0000
0.6897 1.7586 0.0000
0.6897 1.7931 0.0000
0.6897 1.8276 0.0000
0.6897 1.8621 0.0000
0.6897 1.8966 0.0000
0.6897 1.9310 0.0000
0.6897 1.9655 0.0000
0.6897 2.0000 0.0000
0.7586 1.0000 0.0000
0.7586 1.0345 0.0000
0.7586 1.0690 0.0000
0.7586 1.1034 0.0000
0.7586 1.1379 0.0000
0.7586 1.1724 0.0000
0.7586 1.2069 0.0000
0.7586 1.2414 0.0000
0.7586 1.2759 0.0000
0.7586 1.3103 0.0000
0.7586 1.3448 0.0000
0.7586 1.3793 0.0000
0.7586 1.4138 0.0000
0.7586 1.4483 0.0000
0.7586 1.4828 0.0000
0.7586 1.5172 0.0000
0.7586 1.5517 0.0000
0.7586 1.5862 0.0000
0.7586 1.6207 0.0000
0.7586 1.6552 0.0000
0.7586 1.6897 0.0000
0.7586 1.7241 0.0000
0.7586 1.7586 0.0000
0.7586 1.7931 0.0000
0.7586 1.8276 0.0000
0.7586 1.8621 0.0000
0.7586 1.8966 0.0000
0.7586 1.9310 0.0000
0.7586 1.9655 0.0000
0.7586 2.0000 0.0000
0.8276 1.0000 0.0000
0.8276 1.0345 0.0000
0.8276 1.0690 0.0000
0.8276 1.1034 0.0000
0.8276 1.1379 0.0000
0.8276 1.1724 0.0000
0.8276 1.2069 0.0000
0.8276 1.2414 0.0000
0.8276 1.2759 0.0000
0.8276 1.3103 0.0000
0.8276 1.3448 0.0000
0.8276 1.3793 0.0000
0.8276 1.4138 0.0000
0.8276 1.4483 0.0000
0.8276 1.4828 0.0000
0.8276 1.5172 0.0000
0.8276 1.5517 0.0000
0.8276 1.5862 0.0000
0.8276 1.6207 0.0000
0.8276 1.6552 0.0000
0.8276 1.6897 0.0000
0.8276 1.7241 0.0000
0.8276 1.7586 0.0000
0.8276 1.7931 0.0000
0.8276 1.8276 0.0000
0.8276 1.8621 0.0000
0.8276 1.8966 0.0000
0.8276 1.9310 0.0000
0.8276 1.9655 0.0000
0.8276 2.0000 0.0000
0.8966 1.0000 0.0000
0.8966 1.0345 0.0000
0.8966 1.0690 0.0000
0.8966 1.1034 0.0000
0.8966 1.1379 0.0000
0.8966 1.1724 0.0000
0.8966 1.2069 0.0000
0.8966 1.2414 0.0000
0.8966 1.2759 0.0000
0.8966 1.3103 0.0000
0.8966 1.3448 0.0000
0.8966 1.3793 0.0000
0.8966 1.4138 0.0000
0.8966 1.4483 0.0000
0.8966 1.4828 0.0000
0.8966 1.5172 0.0000
0.8966 1.5517 0.0000
0.8966 1.5862 0.0000
0.8966 1.6207 0.0000
0.8966 1.6552 0.0000
0.8966 1.6897 0.0000
0.8966 1.7241 0.0000
0.8966 1.7586 0.0000
0.8966 1.7931 0.0000
0.8966 1.8276 0.0000
0.8966 1.8621 0.0000
0.8966 1.8966 0.0000
0.8966 1.9310 0.0000
0.8966 1.9655 0.0000
0.8966 2.0000 0.0000
0.9655 1.0000 0.0000
0.9655 1.0345 0.0000
0.9655 1.0690 0.0000
0.9655 1.1034 0.0000
0.9655 1.1379 0.0000
0.9655 1.1724 0.0000
0.9655 1.2069 0.0000
0.9655 1.2414 0.0000
0.9655 1.2759 0.0000
0.9655 1.3103 0.0000
0.9655 1.3448 0.0000
0.9655 1.3793 0.0000
0.9655 1.4138 0.0000
0.9655 1.4483 0.0000
0.9655 1.4828 0.0000
0.9655 1.5172 0.0000
0.9655 1.5517 0.0000
0.9655 1.5862 0.0000
0.9655 1.6207 0.0000
0.9655 1.6552 0.0000
0.9655 1.6897 0.0000
0.9655 1.7241 0.0000
0.9655 1.7586 0.0000
0.9655 1.7931 0.0000
0.9655 1.8276 0.0000
0.9655 1.8621 0.0000
0.9655 1.8966 0.0000
0.9655 1.9310 0.0000
0.9655 1.9655 0.0000
0.9655 2.0000 0.0000
1.0345 1.0000 0.0000
1.0345 1.0345 0.0000
1.0345 1.0690 0.0000
1.0345 1.1034 0.0000
1.0345 1.1379 0.0000
1.0345 1.1724 0.0000
1.0345 1.2069 0.0000
1.0345 1.2414 0.0000
1.0345 1.2759 0.0000
1.0345 1.3103 0.0000
1.0345 1.3448 0.0000
[...]
         <PointData>
            <DataArray Name="fValues" NumberOfComponents="3" format="ascii" type="Float64">
-1.10356e-15  1.41297e-16        00000 
 4.70991e-16 -5.65190e-16        00000 
 2.79451e-16        00000        00000 
-5.73480e-16 -1.71166e-16        00000 
 3.26026e-16  1.86301e-16        00000 
-1.80524e-16 -5.50725e-16        00000 
 9.31504e-17  1.51369e-16        00000 
-2.34073e-17 -8.92405e-17        00000 
-1.28082e-16 -1.39726e-16        00000 
-1.81053e-16  2.54190e-17        00000 
-4.65752e-17  3.49314e-17        00000 
 6.93077e-17 -4.82776e-17        00000 
-2.32876e-17 -5.82190e-18        00000 
-5.09897e-17  1.00036e-16        00000 
 2.91095e-17 -8.73285e-17        00000 
-1.37152e-17  7.16850e-17        00000 
 4.07533e-17 -1.16438e-17        00000 
-2.69331e-17  4.56188e-17        00000 
 2.27054e-16 -1.33904e-16        00000 
-1.88722e-16  2.24564e-16        00000 
 1.16438e-17  4.65752e-17        00000 
-1.27847e-16 -1.37326e-16        00000 
-1.74657e-16  3.60958e-16        00000 
 4.60832e-16 -2.66258e-16        00000 
-1.63013e-16  3.02739e-16        00000 
 7.22938e-16 -2.21235e-16        00000 
-3.02739e-16  4.65752e-16        00000 
 1.55363e-16 -3.69353e-16        00000 
-3.52310e-17  6.69390e-16        00000 
 5.01713e-16 -6.60253e-16        00000 
-5.35294e+00 -4.47322e+00        00000 
-3.95609e+00 -3.35867e+00        00000 
-3.29152e+00 -2.61608e+00        00000 
-2.83560e+00 -2.09715e+00        00000 
-2.47519e+00 -1.71626e+00        00000 
-2.16712e+00 -1.42706e+00        00000 
-1.89119e+00 -1.20249e+00        00000 
-1.63652e+00 -1.02575e+00        00000 
-1.39667e+00 -8.85918e-01        00000 
-1.16751e+00 -7.75593e-01        00000 
-9.46178e-01 -6.89643e-01        00000 
-7.30593e-01 -6.24457e-01        00000 
-5.19123e-01 -5.77512e-01        00000 
-3.10426e-01 -5.47094e-01        00000 
-1.03332e-01 -5.32139e-01        00000 
 1.03237e-01 -5.32135e-01        00000 
 3.10330e-01 -5.47084e-01        00000 
 5.19027e-01 -5.77495e-01        00000 
 7.30498e-01 -6.24433e-01        00000 
 9.46085e-01 -6.89612e-01        00000 
 1.16742e+00 -7.75555e-01        00000 
 1.39658e+00 -8.85873e-01        00000 
 1.63643e+00 -1.02570e+00        00000 
 1.89110e+00 -1.20243e+00        00000 
 2.16704e+00 -1.42700e+00        00000 
 2.47510e+00 -1.71619e+00        00000 
 2.83552e+00 -2.09706e+00        00000 
 3.29143e+00 -2.61598e+00        00000 
 3.95600e+00 -3.35856e+00        00000 
 5.35282e+00 -4.47310e+00        00000 
-9.48625e+00 -7.23079e+00        00000 
-8.15194e+00 -6.36550e+00        00000 
-6.98679e+00 -5.50966e+00        00000 
-6.06209e+00 -4.77878e+00        00000 
-5.29155e+00 -4.17594e+00        00000 
-4.62213e+00 -3.68304e+00        00000 
-4.02168e+00 -3.28090e+00        00000 
-3.46998e+00 -2.95345e+00        00000 
-2.95367e+00 -2.68802e+00        00000 
-2.46351e+00 -2.47490e+00        00000 
-1.99283e+00 -2.30670e+00        00000 
-1.53656e+00 -2.17794e+00        00000 
-1.09064e+00 -2.08458e+00        00000 
-6.51729e-01 -2.02381e+00        00000 
-2.16868e-01 -1.99386e+00        00000 
 2.16667e-01 -1.99385e+00        00000 
 6.51529e-01 -2.02379e+00        00000 
 1.09044e+00 -2.08455e+00        00000 
 1.53636e+00 -2.17790e+00        00000 
 1.99264e+00 -2.30665e+00        00000 
 2.46332e+00 -2.47483e+00        00000 
 2.95347e+00 -2.68795e+00        00000 
 3.46979e+00 -2.95336e+00        00000 
 4.02150e+00 -3.28080e+00        00000 
 4.62195e+00 -3.68292e+00        00000 
 5.29137e+00 -4.17582e+00        00000 
 6.06191e+00 -4.77864e+00        00000 
 6.98661e+00 -5.50951e+00        00000 
 8.15176e+00 -6.36533e+00        00000 
 9.48606e+00 -7.23062e+00        00000 
-1.33857e+01 -1.01098e+01        00000 
-1.19268e+01 -9.25823e+00        00000 
-1.05699e+01 -8.45867e+00        00000 
-9.33059e+00 -7.71626e+00        00000 
-8.21747e+00 -7.05384e+00        00000 
-7.21013e+00 -6.47756e+00        00000 
-6.28663e+00 -5.98440e+00        00000 
-5.42855e+00 -5.56780e+00        00000 
-4.62136e+00 -5.22041e+00        00000 
-3.85360e+00 -4.93532e+00        00000 
-3.11622e+00 -4.70655e+00        00000 
-2.40182e+00 -4.52918e+00        00000 
-1.70425e+00 -4.39941e+00        00000 
-1.01816e+00 -4.31440e+00        00000 
-3.38758e-01 -4.27235e+00        00000 
 3.38446e-01 -4.27234e+00        00000 
 1.01785e+00 -4.31438e+00        00000 
 1.70394e+00 -4.39937e+00        00000 
 2.40152e+00 -4.52913e+00        00000 
 3.11591e+00 -4.70648e+00        00000 
 3.85330e+00 -4.93524e+00        00000 
 4.62106e+00 -5.22032e+00        00000 
 5.42826e+00 -5.56769e+00        00000 
 6.28634e+00 -5.98428e+00        00000 
 7.20985e+00 -6.47743e+00        00000 
 8.21720e+00 -7.05370e+00        00000 
 9.33033e+00 -7.71610e+00        00000 
 1.05696e+01 -8.45851e+00        00000 
 1.19266e+01 -9.25806e+00        00000 
 1.33855e+01 -1.01097e+01        00000 
-1.71781e+01 -1.32789e+01        00000 
-1.55279e+01 -1.24601e+01        00000 
-1.39574e+01 -1.16885e+01        00000 
-1.24771e+01 -1.09716e+01        00000 
-1.10892e+01 -1.03145e+01        00000 
-9.79107e+00 -9.72363e+00        00000 
-8.57317e+00 -9.20179e+00        00000 
-7.42391e+00 -8.74863e+00        00000 
-6.33181e+00 -8.36187e+00        00000 
-5.28633e+00 -8.03836e+00        00000 
-4.27814e+00 -7.77474e+00        00000 
-3.29900e+00 -7.56790e+00        00000 
-2.34156e+00 -7.41518e+00        00000 
-1.39914e+00 -7.31454e+00        00000 
-4.65551e-01 -7.26456e+00        00000 
 4.65127e-01 -7.26456e+00        00000 
 1.39872e+00 -7.31452e+00        00000 
 2.34114e+00 -7.41515e+00        00000 
 3.29859e+00 -7.56785e+00        00000 
 4.27773e+00 -7.77468e+00        00000 
 5.28592e+00 -8.03828e+00        00000 
 6.33140e+00 -8.36178e+00        00000 
 7.42352e+00 -8.74852e+00        00000 
 8.57278e+00 -9.20167e+00        00000 
 9.79069e+00 -9.72350e+00        00000 
 1.10889e+01 -1.03144e+01        00000 
 1.24768e+01 -1.09715e+01        00000 
 1.39571e+01 -1.16884e+01        00000 
 1.55276e+01 -1.24599e+01        00000 
 1.71778e+01 -1.32787e+01        00000 
-2.08614e+01 -1.68630e+01        00000 
-1.89940e+01 -1.60700e+01        00000 
-1.72015e+01 -1.53275e+01        00000 
-1.54875e+01 -1.46366e+01        00000 
-1.38530e+01 -1.40002e+01        00000 
-1.22958e+01 -1.34211e+01        00000 
-1.08111e+01 -1.29018e+01        00000 
-9.39181e+00 -1.24435e+01        00000 
-8.02960e+00 -1.20464e+01        00000 
-6.71591e+00 -1.17096e+01        00000 
-5.44231e+00 -1.14321e+01        00000 
-4.20074e+00 -1.12122e+01        00000 
-2.98355e+00 -1.10487e+01        00000 
-1.78347e+00 -1.09404e+01        00000 
-5.93550e-01 -1.08865e+01        00000 
 5.93013e-01 -1.08865e+01        00000 
 1.78294e+00 -1.09404e+01        00000 
 2.98302e+00 -1.10487e+01        00000 
 4.20021e+00 -1.12122e+01        00000 
 5.44179e+00 -1.14320e+01        00000 
 6.71540e+00 -1.17096e+01        00000 
 8.02910e+00 -1.20463e+01        00000 
 9.39132e+00 -1.24434e+01        00000 
 1.08107e+01 -1.29017e+01        00000 
 1.22954e+01 -1.34210e+01        00000 
 1.38526e+01 -1.40001e+01        00000 
 1.54870e+01 -1.46365e+01        00000 
 1.72011e+01 -1.53274e+01        00000 
 1.89936e+01 -1.60699e+01        00000 
 2.08611e+01 -1.68629e+01        00000 
-2.44312e+01 -2.08974e+01        00000 
-2.23364e+01 -2.01317e+01        00000 
-2.03170e+01 -1.94169e+01        00000 
-1.83727e+01 -1.87531e+01        00000 
-1.65020e+01 -1.81411e+01        00000 
-1.47023e+01 -1.75824e+01        00000 
-1.29694e+01 -1.70784e+01        00000 
-1.12977e+01 -1.66303e+01        00000 
-9.68083e+00 -1.62388e+01        00000 
-8.11159e+00 -1.59042e+01        00000 
-6.58256e+00 -1.56263e+01        00000 
-5.08626e+00 -1.54049e+01        00000 
-3.61522e+00 -1.52394e+01        00000 
-2.16213e+00 -1.51294e+01        00000 
-7.19738e-01 -1.50744e+01        00000 
 7.19091e-01 -1.50744e+01        00000 
 2.16148e+00 -1.51293e+01        00000 
 3.61458e+00 -1.52394e+01        00000 
 5.08562e+00 -1.54049e+01        00000 
 6.58194e+00 -1.56263e+01        00000 
 8.11097e+00 -1.59041e+01        00000 
 9.68022e+00 -1.62387e+01        00000 
 1.12971e+01 -1.66302e+01        00000 
 1.29688e+01 -1.70783e+01        00000 
 1.47018e+01 -1.75823e+01        00000 
 1.65015e+01 -1.81410e+01        00000 
 1.83722e+01 -1.87530e+01        00000 
 2.03166e+01 -1.94168e+01        00000 
 2.23360e+01 -2.01316e+01        00000 
 2.44309e+01 -2.08974e+01        00000 
-2.78787e+01 -2.53933e+01        00000 
-2.55555e+01 -2.46558e+01        00000 
-2.33096e+01 -2.39690e+01        00000 
-2.11382e+01 -2.33323e+01        00000 
-1.90383e+01 -2.27459e+01        00000 
-1.70062e+01 -2.22104e+01        00000 
-1.50375e+01 -2.17265e+01        00000 
-1.31270e+01 -2.12951e+01        00000 
-1.12688e+01 -2.09169e+01        00000 
-9.45653e+00 -2.05924e+01        00000 
-7.68349e+00 -2.03220e+01        00000 
-5.94266e+00 -2.01056e+01        00000 
-4.22693e+00 -1.99435e+01        00000 
-2.52914e+00 -1.98354e+01        00000 
-8.42100e-01 -1.97814e+01        00000 
 8.41350e-01 -1.97814e+01        00000 
 2.52839e+00 -1.98354e+01        00000 
 4.22619e+00 -1.99435e+01        00000 
 5.94193e+00 -2.01056e+01        00000 
 7.68277e+00 -2.03220e+01        00000 
 9.45582e+00 -2.05924e+01        00000 
 1.12681e+01 -2.09169e+01        00000 
 1.31263e+01 -2.12951e+01        00000 
 1.50369e+01 -2.17265e+01        00000 
 1.70056e+01 -2.22104e+01        00000 
 1.90377e+01 -2.27459e+01        00000 
 2.11376e+01 -2.33323e+01        00000 
 2.33090e+01 -2.39691e+01        00000 
 2.55550e+01 -2.46559e+01        00000 
 2.78783e+01 -2.53933e+01        00000 
-3.11963e+01 -3.03466e+01        00000 
-2.86485e+01 -2.96386e+01        00000 
-2.61799e+01 -2.89802e+01        00000 
-2.37866e+01 -2.83707e+01        00000 
-2.14641e+01 -2.78101e+01        00000 
-1.92079e+01 -2.72986e+01        00000 
-1.70133e+01 -2.68365e+01        00000 
-1.48749e+01 -2.64243e+01        00000 
-1.27869e+01 -2.60626e+01        00000 
-1.07433e+01 -2.57518e+01        00000 
-8.73764e+00 -2.54924e+01        00000 
-6.76332e+00 -2.52846e+01        00000 
-4.81349e+00 -2.51285e+01        00000 
-2.88122e+00 -2.50245e+01        00000 
-9.59516e-01 -2.49724e+01        00000 
 9.58670e-01 -2.49724e+01        00000 
 2.88038e+00 -2.50245e+01        00000 
 4.81266e+00 -2.51286e+01        00000 
 6.76249e+00 -2.52846e+01        00000 
 8.73683e+00 -2.54924e+01        00000 
 1.07425e+01 -2.57519e+01        00000 
 1.27861e+01 -2.60627e+01        00000 
 1.48741e+01 -2.64244e+01        00000 
 1.70126e+01 -2.68365e+01        00000 
 1.92072e+01 -2.72987e+01        00000 
 2.14634e+01 -2.78102e+01        00000 
 2.37859e+01 -2.83708e+01        00000 
 2.61793e+01 -2.89803e+01        00000 
 2.86479e+01 -2.96388e+01        00000 
 3.11959e+01 -3.03467e+01        00000 
-3.43782e+01 -3.57458e+01        00000 
-3.16122e+01 -3.50682e+01        00000 
-2.89274e+01 -3.44386e+01        00000 
-2.63185e+01 -3.38566e+01        00000 
-2.37807e+01 -3.33218e+01        00000 
-2.13086e+01 -3.28343e+01        00000 
-1.88972e+01 -3.23944e+01        00000 
-1.65407e+01 -3.20021e+01        00000 
-1.42335e+01 -3.16580e+01        00000 
-1.19694e+01 -3.13622e+01        00000 
-9.74226e+00 -3.11153e+01        00000 
-7.54557e+00 -3.09174e+01        00000 
-5.37271e+00 -3.07688e+01        00000 
-3.21695e+00 -3.06696e+01        00000 
-1.07148e+00 -3.06200e+01        00000 
 1.07055e+00 -3.06200e+01        00000 
 3.21602e+00 -3.06696e+01        00000 
 5.37179e+00 -3.07688e+01        00000 
 7.54466e+00 -3.09174e+01        00000 
 9.74137e+00 -3.11154e+01        00000 
 1.19685e+01 -3.13623e+01        00000 
 1.42326e+01 -3.16581e+01        00000 
 1.65399e+01 -3.20022e+01        00000 
 1.88964e+01 -3.23945e+01        00000 
 2.13079e+01 -3.28345e+01        00000 
 2.37799e+01 -3.33220e+01        00000 
 2.63178e+01 -3.38568e+01        00000 
 2.89267e+01 -3.44389e+01        00000 
 3.16116e+01 -3.50685e+01        00000 
 3.43777e+01 -3.57461e+01        00000 
-3.74199e+01 -4.15754e+01        00000 
-3.44440e+01 -4.09288e+01        00000 
-3.15506e+01 -4.03285e+01        00000 
-2.87341e+01 -3.97739e+01        00000 
-2.59889e+01 -3.92650e+01        00000 
-2.33094e+01 -3.88015e+01        00000 
-2.06902e+01 -3.83835e+01        00000 
-1.81253e+01 -3.80112e+01        00000 
-1.56089e+01 -3.76847e+01        00000 
-1.31348e+01 -3.74043e+01        00000 
-1.06969e+01 -3.71702e+01        00000 
-8.28882e+00 -3.69827e+01        00000 
-5.90402e+00 -3.68418e+01        00000 
-3.53591e+00 -3.67478e+01        00000 
-1.17786e+00 -3.67008e+01        00000 
 1.17685e+00 -3.67008e+01        00000 
 3.53491e+00 -3.67479e+01        00000 
 5.90302e+00 -3.68419e+01        00000 
 8.28784e+00 -3.69827e+01        00000 
 1.06960e+01 -3.71703e+01        00000 
 1.31339e+01 -3.74045e+01        00000 
 1.56079e+01 -3.76849e+01        00000 
 1.81244e+01 -3.80114e+01        00000 
 2.06893e+01 -3.83837e+01        00000 
 2.33086e+01 -3.88017e+01        00000 
 2.59881e+01 -3.92652e+01        00000 
 2.87333e+01 -3.97743e+01        00000 
 3.15499e+01 -4.03288e+01        00000 
 3.44434e+01 -4.09292e+01        00000 
 3.74193e+01 -4.15758e+01        00000 
-4.03184e+01 -4.78174e+01        00000 
-3.71417e+01 -4.72024e+01        00000 
-3.40484e+01 -4.66316e+01        00000 
-3.10328e+01 -4.61047e+01        00000 
-2.80890e+01 -4.56215e+01        00000 
-2.52111e+01 -4.51818e+01        00000 
-2.23933e+01 -4.47856e+01        00000 
-1.96296e+01 -4.44330e+01        00000 
-1.69139e+01 -4.41240e+01        00000 
-1.42402e+01 -4.38588e+01        00000 
-1.16021e+01 -4.36375e+01        00000 
-8.99340e+00 -4.34602e+01        00000 
-6.40759e+00 -4.33271e+01        00000 
-3.83819e+00 -4.32384e+01        00000 
-1.27866e+00 -4.31940e+01        00000 
 1.27758e+00 -4.31940e+01        00000 
 3.83712e+00 -4.32384e+01        00000 
 6.40652e+00 -4.33272e+01        00000 
 8.99235e+00 -4.34603e+01        00000 
 1.16011e+01 -4.36376e+01        00000 
 1.42392e+01 -4.38590e+01        00000 
 1.69129e+01 -4.41243e+01        00000 
 1.96286e+01 -4.44333e+01        00000 
 2.23924e+01 -4.47859e+01        00000 
 2.52102e+01 -4.51821e+01        00000 
 2.80881e+01 -4.56219e+01        00000 
 3.10320e+01 -4.61051e+01        00000 
 3.40477e+01 -4.66321e+01        00000 
 3.71410e+01 -4.72029e+01        00000 
 4.03178e+01 -4.78180e+01        00000 
-4.30716e+01 -5.44528e+01        00000 
-3.97034e+01 -5.38698e+01        00000 
-3.64197e+01 -5.33288e+01        00000 
-3.32142e+01 -5.28297e+01        00000 
-3.00810e+01 -5.23722e+01        00000 
-2.70140e+01 -5.19562e+01        00000 
-2.40072e+01 -5.15816e+01        00000 
-2.10544e+01 -5.12484e+01        00000 
-1.81495e+01 -5.09566e+01        00000 
-1.52864e+01 -5.07063e+01        00000 
-1.24586e+01 -5.04975e+01        00000 
-9.65988e+00 -5.03303e+01        00000 
-6.88384e+00 -5.02048e+01        00000 
-4.12403e+00 -5.01212e+01        00000 
-1.37397e+00 -5.00793e+01        00000 
 1.37284e+00 -5.00794e+01        00000 
 4.12291e+00 -5.01212e+01        00000 
 6.88273e+00 -5.02050e+01        00000 
 9.65877e+00 -5.03305e+01        00000 
 1.24575e+01 -5.04977e+01        00000 
 1.52853e+01 -5.07065e+01        00000 
 1.81485e+01 -5.09569e+01        00000 
 2.10534e+01 -5.12487e+01        00000 
 2.40062e+01 -5.15820e+01        00000 
 2.70131e+01 -5.19566e+01        00000 
 3.00801e+01 -5.23727e+01        00000 
 3.32134e+01 -5.28302e+01        00000 
 3.64189e+01 -5.33294e+01        00000 
 3.97028e+01 -5.38704e+01        00000 
 4.30710e+01 -5.44536e+01        00000 
-4.56777e+01 -6.14621e+01        00000 
-4.21280e+01 -6.09112e+01        00000 
-3.86634e+01 -6.04003e+01        00000 
-3.52777e+01 -5.99291e+01        00000 
-3.19647e+01 -5.94973e+01        00000 
-2.87183e+01 -5.91049e+01        00000 
-2.55323e+01 -5.87518e+01        00000 
-2.24004e+01 -5.84378e+01        00000 
-1.93164e+01 -5.81629e+01        00000 
-1.62740e+01 -5.79272e+01        00000 
-1.32670e+01 -5.77306e+01        00000 
-1.02888e+01 -5.75733e+01        00000 
-7.33322e+00 -5.74552e+01        00000 
-4.39372e+00 -5.73765e+01        00000 
-1.46389e+00 -5.73372e+01        00000 
 1.46271e+00 -5.73372e+01        00000 
 4.39255e+00 -5.73766e+01        00000 
 7.33206e+00 -5.74554e+01        00000 
 1.02877e+01 -5.75735e+01        00000 
 1.32659e+01 -5.77308e+01        00000 
 1.62729e+01 -5.79275e+01        00000 
 1.93153e+01 -5.81632e+01        00000 
 2.23993e+01 -5.84382e+01        00000 
 2.55313e+01 -5.87522e+01        00000 
 2.87173e+01 -5.91055e+01        00000 
 3.19638e+01 -5.94979e+01        00000 
 3.52768e+01 -5.99297e+01        00000 
 3.86626e+01 -6.04010e+01        00000 
 4.21273e+01 -6.09120e+01        00000 
 4.56771e+01 -6.14630e+01        00000 
-4.81356e+01 -6.88253e+01        00000 
-4.44143e+01 -6.83069e+01        00000 
-4.07787e+01 -6.78262e+01        00000 
-3.72226e+01 -6.73830e+01        00000 
-3.37398e+01 -6.69770e+01        00000 
-3.03239e+01 -6.66082e+01        00000 
-2.69688e+01 -6.62763e+01        00000 
-2.36679e+01 -6.59813e+01        00000 
-2.04151e+01 -6.57230e+01        00000 
-1.72039e+01 -6.55016e+01        00000 
-1.40279e+01 -6.53170e+01        00000 
-1.08808e+01 -6.51693e+01        00000 
-7.75611e+00 -6.50585e+01        00000 
-4.64749e+00 -6.49845e+01        00000 
-1.54850e+00 -6.49476e+01        00000 
 1.54729e+00 -6.49476e+01        00000 
 4.64629e+00 -6.49846e+01        00000 
 7.75492e+00 -6.50586e+01        00000 
 1.08796e+01 -6.51695e+01        00000 
 1.40267e+01 -6.53173e+01        00000 
 1.72027e+01 -6.55020e+01        00000 
 2.04140e+01 -6.57235e+01        00000 
 2.36668e+01 -6.59818e+01        00000 
 2.69677e+01 -6.62769e+01        00000 
 3.03230e+01 -6.66088e+01        00000 
 3.37389e+01 -6.69778e+01        00000 
 3.72217e+01 -6.73838e+01        00000 
 4.07779e+01 -6.78270e+01        00000 
 4.44135e+01 -6.83078e+01        00000 
 4.81349e+01 -6.88263e+01        00000 
-5.04440e+01 -7.65224e+01        00000 
-4.65611e+01 -7.60367e+01        00000 
-4.27646e+01 -7.55865e+01        00000 
-3.90483e+01 -7.51715e+01        00000 
-3.54058e+01 -7.47914e+01        00000 
-3.18308e+01 -7.44460e+01        00000 
-2.83167e+01 -7.41353e+01        00000 
-2.48573e+01 -7.38590e+01        00000 
-2.14459e+01 -7.36171e+01        00000 
-1.80763e+01 -7.34097e+01        00000 
-1.47418e+01 -7.32368e+01        00000 
-1.14362e+01 -7.30983e+01        00000 
-8.15290e+00 -7.29944e+01        00000 
-4.88560e+00 -7.29252e+01        00000 
-1.62788e+00 -7.28905e+01        00000 
 1.62665e+00 -7.28906e+01        00000 
 4.88437e+00 -7.29253e+01        00000 
 8.15168e+00 -7.29946e+01        00000 
 1.14350e+01 -7.30986e+01        00000 
 1.47406e+01 -7.32371e+01        00000 
 1.80751e+01 -7.34102e+01        00000 
 2.14448e+01 -7.36176e+01        00000 
 2.48562e+01 -7.38596e+01        00000 
 2.83157e+01 -7.41359e+01        00000 
 3.18298e+01 -7.44468e+01        00000 
 3.54049e+01 -7.47922e+01        00000 
 3.90474e+01 -7.51724e+01        00000 
 4.27638e+01 -7.55875e+01        00000 
 4.65603e+01 -7.60378e+01        00000 
 5.04433e+01 -7.65236e+01        00000 
-5.26017e+01 -8.45335e+01        00000 
-4.85672e+01 -8.40808e+01        00000 
-4.46201e+01 -8.36613e+01        00000 
-4.07540e+01 -8.32746e+01        00000 
-3.69623e+01 -8.29204e+01        00000 
-3.32386e+01 -8.25984e+01        00000 
-2.95763e+01 -8.23086e+01        00000 
-2.59688e+01 -8.20508e+01        00000 
-2.24095e+01 -8.18250e+01        00000 
-1.88918e+01 -8.16312e+01        00000 
-1.54094e+01 -8.14695e+01        00000 
-1.19556e+01 -8.13400e+01        00000 
-8.52402e+00 -8.12427e+01        00000 
-5.10833e+00 -8.11779e+01        00000 
-1.70214e+00 -8.11454e+01        00000 
 1.70089e+00 -8.11455e+01        00000 
 5.10709e+00 -8.11780e+01        00000 