<?xml version="1.0" encoding="utf-8"?>
<VTKFile byte_order="LittleEndian" type="UnstructuredGrid" version="0.1">
   <UnstructuredGrid>
      <Piece NumberOfCells="3364" NumberOfPoints="1741">
         <Points>
            <DataArray Name="Points" NumberOfComponents="3" format="ascii" type="Float32">
0.0000 1.0000 0.0000
0.0000 1.0345 0.0000
0.0000 1.0690 0.0000
0.0000 1.1034 0.0000
0.0000 1.1379 0.0000
0.0000 1.1724 0.0000
0.0000 1.2069 0.0000
0.0000 1.2414 0.0000
0.0000 1.2759 0.0000
0.0000 1.3103 0.0000
0.0000 1.3448 0.0000
0.0000 1.3793 0.0000
0.0000 1.4138 0.0000
0.0000 1.4483 0.0000
0.0000 1.4828 0.0000
0.0000 1.5172 0.0000
0.0000 1.5517 0.0000
0.0000 1.5862 0.0000
0.0000 1.6207 0.0000
0.0000 1.6552 0.0000
0.0000 1.6897 0.0000
0.0000 1.7241 0.0000
0.0000 1.7586 0.0000
0.0000 1.7931 0.0000
0.0000 1.8276 0.0000
0.0000 1.8621 0.0000
0.0000 1.8966 0.0000
0.0000 1.9310 0.0000
0.0000 1.9655 0.0000
0.0000 2.0000 0.0000
0.0690 1.0000 0.0000
0.0690 1.0345 0.0000
0.0690 1.0690 0.0000
0.0690 1.1034 0.0000
0.0690 1.1379 0.0000
0.0690 1.1724 0.0000
0.0690 1.2069 0.0000
0.0690 1.2414 0.0000
0.0690 1.2759 0.0000
0.0690 1.3103 0.0000
0.0690 1.3448 0.0000
0.0690 1.3793 0.0000
0.0690 1.4138 0.0000
0.0690 1.4483 0.0000
0.0690 1.4828 0.0000
0.0690 1.5172 0.0000
0.0690 1.5517 0.0000
0.0690 1.5862 0.0000
0.0690 1.6207 0.0000
0.0690 1.6552 0.0000
0.0690 1.6897 0.0000
0.0690 1.7241 0.0000
0.0690 1.7586 0.0000
0.0690 1.7931 0.0000
0.0690 1.8276 0.0000
0.0690 1.8621 0.0000
0.0690 1.8966 0.0000
0.0690 1.9310 0.0000
0.0690 1.9655 0.0000
0.0690 2.0000 0.0000
0.1379 1.0000 0.0000
0.1379 1.0345 0.0000
0.1379 1.0690 0.0000
0.1379 1.1034 0.0000
0.1379 1.1379 0.0000
0.1379 1.1724 0.0000
0.1379 1.2069 0.0000
0.1379 1.2414 0.0000
0.1379 1.2759 0.0000
0.1379 1.3103 0.0000
0.1379 1.3448 0.0000
0.1379 1.3793 0.0000
0.1379 1.4138 0.0000
0.1379 1.4483 0.0000
0.1379 1.4828 0.0000
0.1379 1.5172 0.0000
0.1379 1.5517 0.0000
0.1379 1.5862 0.0000
0.1379 1.6207 0.0000
0.1379 1.6552 0.0000
0.1379 1.6897 0.0000
0.1379 1.7241 0.0000
0.1379 1.7586 0.0000
0.1379 1.7931 0.0000
0.1379 1.8276 0.0000
0.1379 1.8621 0.0000
0.1379 1.8966 0.0000
0.1379 1.9310 0.0000
0.1379 1.9655 0.0000
0.1379 2.0000 0.0000
0.2069 1.0000 0.0000
0.2069 1.0345 0.0000
0.2069 1.0690 0.0000
0.2069 1.1034 0.0000
0.2069 1.1379 0.0000
0.2069 1.1724 0.0000
0.2069 1.2069 0.0000
0.2069 1.2414 0.0000
0.2069 1.2759 0.0000
0.2069 1.3103 0.0000
0.2069 1.3448 0.0000
0.2069 1.3793 0.0000
0.2069 1.4138 0.0000
0.2069 1.4483 0.0000
0.2069 1.4828 0.0000
0.2069 1.5172 0.0000
0.2069 1.5517 0.0000
0.2069 1.5862 0.0000
0.2069 1.6207 0.0000
0.2069 1.6552 0.0000
0.2069 1.6897 0.0000
0.2069 1.7241 0.0000
0.2069 1.7586 0.0000
0.2069 1.7931 0.0000
0.2069 1.8276 0.0000
0.2069 1.8621 0.0000
0.2069 1.8966 0.0000
0.2069 1.9310 0.0000
0.2069 1.9655 0.0000
0.2069 2.0000 0.0000
0.2759 1.0000 0.0000
0.2759 1.0345 0.0000
0.2759 1.0690 0.0000
0.2759 1.1034 0.0000
0.2759 1.1379 0.0000
0.2759 1.1724 0.0000
0.2759 1.2069 0.0000
0.2759 1.2414 0.0000
0.2759 1.2759 0.0000
0.2759 1.3103 0.0000
0.2759 1.3448 0.0000
0.2759 1.3793 0.0000
0.2759 1.4138 0.0000
0.2759 1.4483 0.0000
0.2759 1.4828 0.0000
0.2759 1.5172 0.0000
0.2759 1.5517 0.0000
0.2759 1.5862 0.0000
0.2759 1.6207 0.0000
0.2759 1.6552 0.0000
0.2759 1.6897 0.0000
0.2759 1.7241 0.0000
0.2759 1.7586 0.0000
0.2759 1.7931 0.0000
0.2759 1.8276 0.0000
0.2759 1.8621 0.0000
0.2759 1.8966 0.0000
0.2759 1.9310 0.0000
0.2759 1.9655 0.0000
0.2759 2.0000 0.0000
0.3448 1.0000 0.0000
0.3448 1.0345 0.0000
0.3448 1.0690 0.0000
0.3448 1.1034 0.0000
0.3448 1.1379 0.0000
0.3448 1.1724 0.0000
0.3448 1.2069 0.0000
0.3448 1.2414 0.0000
0.3448 1.2759 0.0000
0.3448 1.3103 0.0000
0.3448 1.3448 0.0000
0.3448 1.3793 0.0000
0.3448 1.4138 0.0000
0.3448 1.4483 0.0000
0.3448 1.4828 0.0000
0.3448 1.5172 0.0000
0.3448 1.5517 0.0000
0.3448 1.5862 0.0000
0.3448 1.6207 0.0000
0.3448 1.6552 0.0000
0.3448 1.6897 0.0000
0.3448 1.7241 0.0000
0.3448 1.7586 0.0000
0.3448 1.7931 0.0000
0.3448 1.8276 0.0000
0.3448 1.8621 0.0000
0.3448 1.8966 0.0000
0.3448 1.9310 0.0000
0.3448 1.9655 0.0000
0.3448 2.0000 0.0000
0.4138 1.0000 0.0000
0.4138 1.0345 0.0000
0.4138 1.0690 0.0000
0.4138 1.1034 0.0000
0.4138 1.1379 0.0000
0.4138 1.1724 0.0000
0.4138 1.2069 0.0000
0.4138 1.2414 0.0000
0.4138 1.2759 0.0000
0.4138 1.3103 0.0000
0.4138 1.3448 0.0000
0.4138 1.3793 0.0000
0.4138 1.4138 0.0000
0.4138 1.4483 0.0000
0.4138 1.4828 0.0000
0.4138 1.5172 0.0000
0.4138 1.5517 0.0000
0.4138 1.5862 0.0000
0.4138 1.6207 0.0000
0.4138 1.6552 0.0000
0.4138 1.6897 0.0000
0.4138 1.7241 0.0000
0.4138 1.7586 0.0000
0.4138 1.7931 0.0000
0.4138 1.8276 0.0000
0.4138 1.8621 0.0000
0.4138 1.8966 0.0000
0.4138 1.9310 0.0000
0.4138 1.9655 0.0000
0.4138 2.0000 0.0000
0.4828 1.0000 0.0000
0.4828 1.0345 0.0000
0.4828 1.0690 0.0000
0.4828 1.1034 0.0000
0.4828 1.1379 0.0000
0.4828 1.1724 0.0000
0.4828 1.2069 0.0000
0.4828 1.2414 0.0000
0.4828 1.2759 0.0000
0.4828 1.3103 0.0000
0.4828 1.3448 0.0000
0.4828 1.3793 0.0000
0.4828 1.4138 0.0000
0.4828 1.4483 0.0000
0.4828 1.4828 0.0000
0.4828 1.5172 0.0000
0.4828 1.5517 0.0000
0.4828 1.5862 0.0000
0.4828 1.6207 0.0000
0.4828 1.6552 0.0000
0.4828 1.6897 0.0000
0.4828 1.7241 0.0000
0.4828 1.7586 0.0000
0.4828 1.7931 0.0000
0.4828 1.8276 0.0000
0.4828 1.8621 0.0000
0.4828 1.8966 0.0000
0.4828 1.9310 0.0000
0.4828 1.9655 0.0000
0.4828 2.0000 0.0000
0.5517 1.0000 0.0000
0.5517 1.0345 0.0000
0.5517 1.0690 0.0000
0.5517 1.1034 0.0000
0.5517 1.1379 0.0000
0.5517 1.1724 0.0000
0.5517 1.2069 0.0000
0.5517 1.2414 0.0000
0.5517 1.2759 0.0000
0.5517 1.3103 0.0000
0.5517 1.3448 0.0000
0.5517 1.3793 0.0000
0.5517 1.4138 0.0000
0.5517 1.4483 0.0000
0.5517 1.4828 0.0000
0.5517 1.5172 0.0000
0.5517 1.5517 0.0000
0.5517 1.5862 0.0000
0.5517 1.6207 0.0000
0.5517 1.6552 0.0000
0.5517 1.6897 0.0000
0.5517 1.7241 0.0000
0.5517 1.7586 0.0000
0.5517 1.7931 0.0000
0.5517 1.8276 0.0000
0.5517 1.8621 0.0000
0.5517 1.8966 0.0000
0.5517 1.9310 0.0000
0.5517 1.9655 0.0000
0.5517 2.0000 0.0000
0.6207 1.0000 0.0000
0.6207 1.0345 0.0000
0.6207 1.0690 0.0000
0.6207 1.1034 0.0000
0.6207 1.1379 0.0000
0.6207 1.1724 0.0000
0.6207 1.2069 0.0000
0.6207 1.2414 0.0000
0.6207 1.2759 0.0000
0.6207 1.3103 0.0000
0.6207 1.3448 0.0000
0.6207 1.3793 0.0000
0.6207 1.4138 0.0000
0.6207 1.4483 0.0000
0.6207 1.4828 0.0000
0.6207 1.5172 0.0000
0.6207 1.5517 0.0000
0.6207 1.5862 0.0000
0.6207 1.6207 0.0000
0.6207 1.6552 0.0000
0.6207 1.6897 0.0000
0.6207 1.7241 0.0000
0.6207 1.7586 0.0000
0.6207 1.7931 0.0000
0.6207 1.8276 0.0000
0.6207 1.8621 0.0000
0.6207 1.8966 0.0000
0.6207 1.9310 0.0000
0.6207 1.9655 0.0000
0.6207 2.0000 0.0000
0.6897 1.0000 0.0000
0.6897 1.0345 0.0000
0.6897 1.0690 0.0000
0.6897 1.1034 0.0000
0.6897 1.1379 0.0000
0.6897 1.1724 0.0000
0.6897 1.2069 0.0000
0.6897 1.2414 0.0000
0.6897 1.2759 0.0000
0.6897 1.3103 0.0000
0.6897 1.3448 0.0000
0.6897 1.3793 0.0000
0.6897 1.4138 0.0000
0.6897 1.4483 0.0000
0.6897 1.4828 0.0000
0.6897 1.5172 0.0000
0.6897 1.5517 0.0000
0.6897 1.5862 0.0000
0.6897 1.6207 0.0000
0.6897 1.6552 0.0000
0.6897 1.6897 0.0000
0.6897 1.7241 0.0000
0.6897 1.7586 0.0000
0.6897 1.7931 0.0000
0.6897 1.8276 0.0000
0.6897 1.8621 0.0000
0.6897 1.8966 0.0000
0.6897 1.9310 0.0000
0.6897 1.9655 0.0000
0.6897 2.0000 0.0000
0.7586 1.0000 0.0000
0.7586 1.0345 0.0000
0.7586 1.0690 0.0000
0.7586 1.1034 0.0000
0.7586 1.1379 0.0000
0.7586 1.1724 0.0000
0.7586 1.2069 0.0000
0.7586 1.2414 0.0000
0.7586 1.2759 0.0000
0.7586 1.3103 0.0000
0.7586 1.3448 0.0000
0.7586 1.3793 0.0000
0.7586 1.4138 0.0000
0.7586 1.4483 0.0000
0.7586 1.4828 0.0000
0.7586 1.5172 0.0000
0.7586 1.5517 0.0000
0.7586 1.5862 0.0000
0.7586 1.6207 0.0000
0.7586 1.6552 0.0000
0.7586 1.6897 0.0000
0.7586 1.7241 0.0000
0.7586 1.7586 0.0000
0.7586 1.7931 0.0000
0.7586 1.8276 0.0000
0.7586 1.8621 0.0000
0.7586 1.8966 0.0000
0.7586 1.9310 0.0000
0.7586 1.9655 0.0000
0.7586 2.0000 0.0000
0.8276 1.0000 0.0000
0.8276 1.0345 0.0000
0.8276 1.0690 0.0000
0.8276 1.1034 0.0000
0.8276 1.1379 0.0000
0.8276 1.1724 0.0000
0.8276 1.2069 0.0000
0.8276 1.2414 0.0000
0.8276 1.2759 0.0000
0.8276 1.3103 0.0000
0.8276 1.3448 0.0000
0.8276 1.3793 0.0000
0.8276 1.4138 0.0000
0.8276 1.4483 0.0000
0.8276 1.4828 0.0000
0.8276 1.5172 0.0000
0.8276 1.5517 0.0000
0.8276 1.5862 0.0000
0.8276 1.6207 0.0000
0.8276 1.6552 0.0000
0.8276 1.6897 0.0000
0.8276 1.7241 0.0000
0.8276 1.7586 0.0000
0.8276 1.7931 0.0000
0.8276 1.8276 0.0000
0.8276 1.8621 0.0000
0.8276 1.8966 0.0000
0.8276 1.9310 0.0000
0.8276 1.9655 0.0000
0.8276 2.0000 0.0000
0.8966 1.0000 0.0000
0.8966 1.0345 0.0000
0.8966 1.0690 0.0000
0.8966 1.1034 0.0000
0.8966 1.1379 0.0000
0.8966 1.1724 0.0000
0.8966 1.2069 0.0000
0.8966 1.2414 0.0000
0.8966 1.2759 0.0000
0.8966 1.3103 0.0000
0.8966 1.3448 0.0000
0.8966 1.3793 0.0000
0.8966 1.4138 0.0000
0.8966 1.4483 0.0000
0.8966 1.4828 0.0000
0.8966 1.5172 0.0000
0.8966 1.5517 0.0000
0.8966 1.5862 0.0000
0.8966 1.6207 0.0000
0.8966 1.6552 0.0000
0.8966 1.6897 0.0000
0.8966 1.7241 0.0000
0.8966 1.7586 0.0000
0.8966 1.7931 0.0000
0.8966 1.8276 0.0000
0.8966 1.8621 0.0000
0.8966 1.8966 0.0000
0.8966 1.9310 0.0000
0.8966 1.9655 0.0000
0.8966 2.0000 0.0000
0.9655 1.0000 0.0000
0.9655 1.0345 0.0000
0.9655 1.0690 0.0000
0.9655 1.1034 0.0000
0.9655 1.1379 0.0000
0.9655 1.1724 0.0000
0.9655 1.2069 0.0000
0.9655 1.2414 0.0000
0.9655 1.2759 0.0000
0.9655 1.3103 0.0000
0.9655 1.3448 0.0000
0.9655 1.3793 0.0000
0.9655 1.4138 0.0000
0.9655 1.4483 0.0000
0.9655 1.4828 0.0000
0.9655 1.5172 0.0000
0.9655 1.5517 0.0000
0.9655 1.5862 0.0000
0.9655 1.6207 0.0000
0.9655 1.6552 0.0000
0.9655 1.6897 0.0000
0.9655 1.7241 0.0000
0.9655 1.7586 0.0000
0.9655 1.7931 0.0000
0.9655 1.8276 0.0000
0.9655 1.8621 0.0000
0.9655 1.8966 0.0000
0.9655 1.9310 0.0000
0.9655 1.9655 0.0000
0.9655 2.0000 0.0000
1.0345 1.0000 0.0000
1.0345 1.0345 0.0000
1.0345 1.0690 0.0000
1.0345 1.1034 0.0000
1.0345 1.1379 0.0000
1.0345 1.1724 0.0000
1.0345 1.2069 0.0000
1.0345 1.2414 0.0000
1.0345 1.2759 0.0000
1.0345 1.3103 0.0000
1.0345 1.3448 0.0000
[...]
         <PointData>
            <DataArray Name="fValues" NumberOfComponents="3" format="ascii" type="Float64">
 2.46453e-16 -2.35496e-17        00000 
       00000  9.41983e-17        00000 
 3.02739e-16 -6.05478e-16        00000 
 2.85277e-16 -3.94999e-17        00000 
 1.39726e-16 -9.31504e-17        00000 
-2.63061e-16 -1.15147e-17        00000 
-6.98628e-17  3.49314e-17        00000 
 2.61870e-16  2.34073e-17        00000 
-2.44520e-16 -3.49314e-17        00000 
-1.74905e-16 -5.04709e-18        00000 
 1.16438e-16  3.49314e-17        00000 
 4.20601e-18 -5.81526e-17        00000 
-8.73285e-18 -1.74657e-17        00000 
-3.95814e-17 -2.57095e-17        00000 
 8.73285e-18  6.40409e-17        00000 
 4.38888e-18  6.58331e-18        00000 
-1.16438e-17 -5.82190e-18        00000 
-1.57722e-17  1.44989e-17        00000 
-1.74657e-17 -5.82190e-17        00000 
-5.70554e-17 -3.65740e-17        00000 
 2.09588e-16 -5.82190e-17        00000 
-3.33418e-16 -1.44264e-16        00000 
 5.00684e-16  2.56164e-16        00000 
-2.41388e-16 -4.04508e-16        00000 
 3.02739e-16 -9.31504e-17        00000 
 3.71019e-16  6.62087e-17        00000 
-2.32876e-16 -1.16438e-16        00000 
-3.00466e-16 -4.27981e-16        00000 
-5.16722e-16  3.46438e-16        00000 
 3.75633e-16 -1.56533e-15        00000 
-5.40489e+00 -4.51837e+00        00000 
-3.99363e+00 -3.39321e+00        00000 
-3.32221e+00 -2.64375e+00        00000 
-2.86168e+00 -2.12016e+00        00000 
-2.49770e+00 -1.73596e+00        00000 
-2.18666e+00 -1.44431e+00        00000 
-1.90811e+00 -1.21789e+00        00000 
-1.65107e+00 -1.03973e+00        00000 
-1.40902e+00 -8.98796e-01        00000 
-1.17779e+00 -7.87621e-01        00000 
-9.54478e-01 -7.01019e-01        00000 
-7.36983e-01 -6.35347e-01        00000 
-5.23653e-01 -5.88056e-01        00000 
-3.13130e-01 -5.57415e-01        00000 
-1.04229e-01 -5.42351e-01        00000 
 1.04141e-01 -5.42348e-01        00000 
 3.13042e-01 -5.57406e-01        00000 
 5.23566e-01 -5.88040e-01        00000 
 7.36896e-01 -6.35325e-01        00000 
 9.54393e-01 -7.00990e-01        00000 
 1.17770e+00 -7.87586e-01        00000 
 1.40894e+00 -8.98755e-01        00000 
 1.65098e+00 -1.03968e+00        00000 
 1.90803e+00 -1.21783e+00        00000 
 2.18658e+00 -1.44425e+00        00000 
 2.49763e+00 -1.73589e+00        00000 
 2.86161e+00 -2.12009e+00        00000 
 3.32213e+00 -2.64367e+00        00000 
 3.99355e+00 -3.39311e+00        00000 
 5.40478e+00 -4.51826e+00        00000 
-9.57705e+00 -7.30542e+00        00000 
-8.22867e+00 -6.43216e+00        00000 
-7.05155e+00 -5.56847e+00        00000 
-6.11755e+00 -4.83100e+00        00000 
-5.33944e+00 -4.22283e+00        00000 
-4.66358e+00 -3.72564e+00        00000 
-4.05746e+00 -3.32008e+00        00000 
-3.50065e+00 -2.98990e+00        00000 
-2.97963e+00 -2.72228e+00        00000 
-2.48507e+00 -2.50743e+00        00000 
-2.01021e+00 -2.33789e+00        00000 
-1.54991e+00 -2.20811e+00        00000 
-1.10010e+00 -2.11402e+00        00000 
-6.57368e-01 -2.05278e+00        00000 
-2.18737e-01 -2.02260e+00        00000 
 2.18553e-01 -2.02259e+00        00000 
 6.57184e-01 -2.05277e+00        00000 
 1.09991e+00 -2.11399e+00        00000 
 1.54973e+00 -2.20807e+00        00000 
 2.01003e+00 -2.33784e+00        00000 
 2.48489e+00 -2.50737e+00        00000 
 2.97945e+00 -2.72221e+00        00000 
 3.50047e+00 -2.98981e+00        00000 
 4.05729e+00 -3.31999e+00        00000 
 4.66341e+00 -3.72554e+00        00000 
 5.33927e+00 -4.22271e+00        00000 
 6.11739e+00 -4.83087e+00        00000 
 7.05139e+00 -5.56833e+00        00000 
 8.22850e+00 -6.43201e+00        00000 
 9.57688e+00 -7.30527e+00        00000 
-1.35120e+01 -1.02152e+01        00000 
-1.20379e+01 -9.35594e+00        00000 
-1.06671e+01 -8.54923e+00        00000 
-9.41546e+00 -7.80020e+00        00000 
-8.29147e+00 -7.13194e+00        00000 
-7.27450e+00 -6.55063e+00        00000 
-6.34233e+00 -6.05323e+00        00000 
-5.47634e+00 -5.63309e+00        00000 
-4.66181e+00 -5.28278e+00        00000 
-3.88718e+00 -4.99532e+00        00000 
-3.14327e+00 -4.76467e+00        00000 
-2.42261e+00 -4.58587e+00        00000 
-1.71896e+00 -4.45504e+00        00000 
-1.02693e+00 -4.36935e+00        00000 
-3.41664e-01 -4.32696e+00        00000 
 3.41379e-01 -4.32696e+00        00000 
 1.02664e+00 -4.36933e+00        00000 
 1.71868e+00 -4.45501e+00        00000 
 2.42233e+00 -4.58582e+00        00000 
 3.14299e+00 -4.76461e+00        00000 
 3.88691e+00 -4.99525e+00        00000 
 4.66154e+00 -5.28270e+00        00000 
 5.47607e+00 -5.63299e+00        00000 
 6.34207e+00 -6.05312e+00        00000 
 7.27424e+00 -6.55051e+00        00000 
 8.29123e+00 -7.13180e+00        00000 
 9.41522e+00 -7.80005e+00        00000 
 1.06669e+01 -8.54907e+00        00000 
 1.20377e+01 -9.35579e+00        00000 
 1.35118e+01 -1.02151e+01        00000 
-1.73381e+01 -1.34175e+01        00000 
-1.56709e+01 -1.25915e+01        00000 
-1.40847e+01 -1.18132e+01        00000 
-1.25898e+01 -1.10900e+01        00000 
-1.11885e+01 -1.04272e+01        00000 
-9.87804e+00 -9.83121e+00        00000 
-8.64879e+00 -9.30488e+00        00000 
-7.48901e+00 -8.84786e+00        00000 
-6.38703e+00 -8.45784e+00        00000 
-5.33223e+00 -8.13161e+00        00000 
-4.31515e+00 -7.86580e+00        00000 
-3.32746e+00 -7.65725e+00        00000 
-2.36171e+00 -7.50327e+00        00000 
-1.41115e+00 -7.40180e+00        00000 
-4.69533e-01 -7.35142e+00        00000 
 4.69143e-01 -7.35141e+00        00000 
 1.41077e+00 -7.40178e+00        00000 
 2.36132e+00 -7.50324e+00        00000 
 3.32707e+00 -7.65720e+00        00000 
 4.31477e+00 -7.86574e+00        00000 
 5.33185e+00 -8.13154e+00        00000 
 6.38666e+00 -8.45775e+00        00000 
 7.48864e+00 -8.84777e+00        00000 
 8.64844e+00 -9.30478e+00        00000 
 9.87770e+00 -9.83109e+00        00000 
 1.11882e+01 -1.04271e+01        00000 
 1.25895e+01 -1.10899e+01        00000 
 1.40843e+01 -1.18131e+01        00000 
 1.56706e+01 -1.25914e+01        00000 
 1.73378e+01 -1.34174e+01        00000 
-2.10532e+01 -1.70384e+01        00000 
-1.91670e+01 -1.62386e+01        00000 
-1.73569e+01 -1.54897e+01        00000 
-1.56262e+01 -1.47929e+01        00000 
-1.39762e+01 -1.41511e+01        00000 
-1.24044e+01 -1.35671e+01        00000 
-1.09060e+01 -1.30433e+01        00000 
-9.47377e+00 -1.25811e+01        00000 
-8.09933e+00 -1.21806e+01        00000 
-6.77399e+00 -1.18411e+01        00000 
-5.48922e+00 -1.15612e+01        00000 
-4.23684e+00 -1.13395e+01        00000 
-3.00913e+00 -1.11747e+01        00000 
-1.79874e+00 -1.10655e+01        00000 
-5.98609e-01 -1.10111e+01        00000 
 5.98116e-01 -1.10111e+01        00000 
 1.79824e+00 -1.10655e+01        00000 
 3.00864e+00 -1.11747e+01        00000 
 4.23636e+00 -1.13395e+01        00000 
 5.48874e+00 -1.15612e+01        00000 
 6.77352e+00 -1.18410e+01        00000 
 8.09887e+00 -1.21806e+01        00000 
 9.47331e+00 -1.25810e+01        00000 
 1.09056e+01 -1.30432e+01        00000 
 1.24040e+01 -1.35670e+01        00000 
 1.39758e+01 -1.41510e+01        00000 
 1.56258e+01 -1.47928e+01        00000 
 1.73565e+01 -1.54896e+01        00000 
 1.91667e+01 -1.62385e+01        00000 
 2.10529e+01 -1.70383e+01        00000 
-2.46531e+01 -2.11132e+01        00000 
-2.25377e+01 -2.03411e+01        00000 
-2.04987e+01 -1.96203e+01        00000 
-1.85359e+01 -1.89510e+01        00000 
-1.66476e+01 -1.83339e+01        00000 
-1.48313e+01 -1.77705e+01        00000 
-1.30825e+01 -1.72622e+01        00000 
-1.13958e+01 -1.68104e+01        00000 
-9.76447e+00 -1.64156e+01        00000 
-8.18141e+00 -1.60782e+01        00000 
-6.63904e+00 -1.57981e+01        00000 
-5.12978e+00 -1.55748e+01        00000 
-3.64610e+00 -1.54079e+01        00000 
-2.18056e+00 -1.52970e+01        00000 
-7.25849e-01 -1.52416e+01        00000 
 7.25255e-01 -1.52416e+01        00000 
 2.17996e+00 -1.52970e+01        00000 
 3.64551e+00 -1.54079e+01        00000 
 5.12920e+00 -1.55748e+01        00000 
 6.63847e+00 -1.57980e+01        00000 
 8.18084e+00 -1.60782e+01        00000 
 9.76391e+00 -1.64156e+01        00000 
 1.13952e+01 -1.68103e+01        00000 
 1.30820e+01 -1.72622e+01        00000 
 1.48307e+01 -1.77704e+01        00000 
 1.66471e+01 -1.83338e+01        00000 
 1.85354e+01 -1.89509e+01        00000 
 2.04983e+01 -1.96203e+01        00000 
 2.25373e+01 -2.03411e+01        00000 
 2.46528e+01 -2.11132e+01        00000 
-2.81289e+01 -2.56532e+01        00000 
-2.57832e+01 -2.49098e+01        00000 
-2.35159e+01 -2.42174e+01        00000 
-2.13242e+01 -2.35755e+01        00000 
-1.92049e+01 -2.29843e+01        00000 
-1.71542e+01 -2.24443e+01        00000 
-1.51677e+01 -2.19565e+01        00000 
-1.32402e+01 -2.15216e+01        00000 
-1.13656e+01 -2.11403e+01        00000 
-9.53748e+00 -2.08131e+01        00000 
-7.74907e+00 -2.05404e+01        00000 
-5.99326e+00 -2.03223e+01        00000 
-4.26285e+00 -2.01588e+01        00000 
-2.55059e+00 -2.00498e+01        00000 
-8.49217e-01 -1.99954e+01        00000 
 8.48529e-01 -1.99954e+01        00000 
 2.54990e+00 -2.00498e+01        00000 
 4.26217e+00 -2.01588e+01        00000 
 5.99259e+00 -2.03223e+01        00000 
 7.74840e+00 -2.05404e+01        00000 
 9.53682e+00 -2.08131e+01        00000 
 1.13649e+01 -2.11402e+01        00000 
 1.32395e+01 -2.15216e+01        00000 
 1.51671e+01 -2.19565e+01        00000 
 1.71536e+01 -2.24444e+01        00000 
 1.92043e+01 -2.29843e+01        00000 
 2.13237e+01 -2.35755e+01        00000 
 2.35155e+01 -2.42174e+01        00000 
 2.57828e+01 -2.49099e+01        00000 
 2.81285e+01 -2.56533e+01        00000 
-3.14730e+01 -3.06542e+01        00000 
-2.89009e+01 -2.99407e+01        00000 
-2.64093e+01 -2.92770e+01        00000 
-2.39938e+01 -2.86627e+01        00000 
-2.16502e+01 -2.80976e+01        00000 
-1.93737e+01 -2.75820e+01        00000 
-1.71595e+01 -2.71161e+01        00000 
-1.50022e+01 -2.67006e+01        00000 
-1.28960e+01 -2.63360e+01        00000 
-1.08346e+01 -2.60227e+01        00000 
-8.81176e+00 -2.57612e+01        00000 
-6.82057e+00 -2.55517e+01        00000 
-4.85416e+00 -2.53944e+01        00000 
-2.90553e+00 -2.52895e+01        00000 
-9.67581e-01 -2.52370e+01        00000 
 9.66804e-01 -2.52370e+01        00000 
 2.90476e+00 -2.52895e+01        00000 
 4.85340e+00 -2.53944e+01        00000 
 6.81981e+00 -2.55517e+01        00000 
 8.81101e+00 -2.57612e+01        00000 
 1.08339e+01 -2.60228e+01        00000 
 1.28952e+01 -2.63361e+01        00000 
 1.50015e+01 -2.67007e+01        00000 
 1.71588e+01 -2.71162e+01        00000 
 1.93730e+01 -2.75821e+01        00000 
 2.16495e+01 -2.80977e+01        00000 
 2.39933e+01 -2.86628e+01        00000 
 2.64088e+01 -2.92771e+01        00000 
 2.89005e+01 -2.99408e+01        00000 
 3.14725e+01 -3.06544e+01        00000 
-3.46794e+01 -3.61044e+01        00000 
-3.18877e+01 -3.54217e+01        00000 
-2.91781e+01 -3.47872e+01        00000 
-2.65456e+01 -3.42007e+01        00000 
-2.39849e+01 -3.36617e+01        00000 
-2.14909e+01 -3.31705e+01        00000 
-1.90582e+01 -3.27270e+01        00000 
-1.66812e+01 -3.23317e+01        00000 
-1.43540e+01 -3.19848e+01        00000 
-1.20705e+01 -3.16867e+01        00000 
-9.82434e+00 -3.14378e+01        00000 
-7.60902e+00 -3.12383e+01        00000 
-5.41781e+00 -3.10885e+01        00000 
-3.24392e+00 -3.09886e+01        00000 
-1.08043e+00 -3.09385e+01        00000 
 1.07958e+00 -3.09386e+01        00000 
 3.24306e+00 -3.09886e+01        00000 
 5.41697e+00 -3.10886e+01        00000 
 7.60818e+00 -3.12384e+01        00000 
 9.82351e+00 -3.14379e+01        00000 
 1.20697e+01 -3.16868e+01        00000 
 1.43532e+01 -3.19849e+01        00000 
 1.66804e+01 -3.23318e+01        00000 
 1.90575e+01 -3.27272e+01        00000 
 2.14902e+01 -3.31706e+01        00000 
 2.39842e+01 -3.36619e+01        00000 
 2.65450e+01 -3.42009e+01        00000 
 2.91776e+01 -3.47875e+01        00000 
 3.18872e+01 -3.54219e+01        00000 
 3.46789e+01 -3.61047e+01        00000 
-3.77438e+01 -4.19881e+01        00000 
-3.47407e+01 -4.13367e+01        00000 
-3.18212e+01 -4.07319e+01        00000 
-2.89794e+01 -4.01732e+01        00000 
-2.62099e+01 -3.96604e+01        00000 
-2.35070e+01 -3.91934e+01        00000 
-2.08649e+01 -3.87722e+01        00000 
-1.82779e+01 -3.83970e+01        00000 
-1.57399e+01 -3.80680e+01        00000 
-1.32449e+01 -3.77854e+01        00000 
-1.07864e+01 -3.75495e+01        00000 
-8.35801e+00 -3.73605e+01        00000 
-5.95322e+00 -3.72186e+01        00000 
-3.56534e+00 -3.71238e+01        00000 
-1.18763e+00 -3.70765e+01        00000 
 1.18670e+00 -3.70765e+01        00000 
 3.56442e+00 -3.71239e+01        00000 
 5.95231e+00 -3.72186e+01        00000 
 8.35710e+00 -3.73606e+01        00000 
 1.07855e+01 -3.75496e+01        00000 
 1.32440e+01 -3.77856e+01        00000 
 1.57391e+01 -3.80682e+01        00000 
 1.82771e+01 -3.83972e+01        00000 
 2.08641e+01 -3.87724e+01        00000 
 2.35062e+01 -3.91936e+01        00000 
 2.62092e+01 -3.96607e+01        00000 
 2.89787e+01 -4.01735e+01        00000 
 3.18205e+01 -4.07323e+01        00000 
 3.47402e+01 -4.13371e+01        00000 
 3.77433e+01 -4.19885e+01        00000 
-4.06632e+01 -4.82869e+01        00000 
-3.74579e+01 -4.76676e+01        00000 
-3.43372e+01 -4.70927e+01        00000 
-3.12950e+01 -4.65619e+01        00000 
-2.83255e+01 -4.60752e+01        00000 
-2.54227e+01 -4.56322e+01        00000 
-2.25806e+01 -4.52331e+01        00000 
-1.97934e+01 -4.48779e+01        00000 
-1.70547e+01 -4.45665e+01        00000 
-1.43585e+01 -4.42993e+01        00000 
-1.16983e+01 -4.40763e+01        00000 
-9.06788e+00 -4.38977e+01        00000 
-6.46058e+00 -4.37636e+01        00000 
-3.86989e+00 -4.36741e+01        00000 
-1.28918e+00 -4.36294e+01        00000 
 1.28820e+00 -4.36294e+01        00000 
 3.86891e+00 -4.36742e+01        00000 
 6.45961e+00 -4.37637e+01        00000 
 9.06691e+00 -4.38978e+01        00000 
 1.16974e+01 -4.40764e+01        00000 
 1.43576e+01 -4.42995e+01        00000 
 1.70538e+01 -4.45668e+01        00000 
 1.97925e+01 -4.48781e+01        00000 
 2.25798e+01 -4.52334e+01        00000 
 2.54219e+01 -4.56326e+01        00000 
 2.83247e+01 -4.60755e+01        00000 
 3.12943e+01 -4.65623e+01        00000 
 3.43365e+01 -4.70931e+01        00000 
 3.74573e+01 -4.76680e+01        00000 
 4.06627e+01 -4.82875e+01        00000 
-4.34354e+01 -5.49817e+01        00000 
-4.00376e+01 -5.43947e+01        00000 
-3.67251e+01 -5.38499e+01        00000 
-3.34918e+01 -5.33473e+01        00000 
-3.03316e+01 -5.28866e+01        00000 
-2.72384e+01 -5.24676e+01        00000 
-2.42061e+01 -5.20904e+01        00000 
-2.12285e+01 -5.17547e+01        00000 
-1.82993e+01 -5.14608e+01        00000 
-1.54122e+01 -5.12086e+01        00000 
-1.25610e+01 -5.09983e+01        00000 
-9.73920e+00 -5.08299e+01        00000 
-6.94031e+00 -5.07035e+01        00000 
-4.15782e+00 -5.06191e+01        00000 
-1.38519e+00 -5.05770e+01        00000 
 1.38415e+00 -5.05770e+01        00000 
 4.15679e+00 -5.06192e+01        00000 
 6.93928e+00 -5.07036e+01        00000 
 9.73819e+00 -5.08300e+01        00000 
 1.25600e+01 -5.09985e+01        00000 
 1.54113e+01 -5.12088e+01        00000 
 1.82983e+01 -5.14611e+01        00000 
 2.12275e+01 -5.17550e+01        00000 
 2.42052e+01 -5.20907e+01        00000 
 2.72376e+01 -5.24680e+01        00000 
 3.03308e+01 -5.28871e+01        00000 
 3.34910e+01 -5.33478e+01        00000 
 3.67244e+01 -5.38505e+01        00000 
 4.00369e+01 -5.43953e+01        00000 
 4.34349e+01 -5.49824e+01        00000 
-4.60588e+01 -6.20526e+01        00000 
-4.24783e+01 -6.14981e+01        00000 
-3.89839e+01 -6.09838e+01        00000 
-3.55692e+01 -6.05094e+01        00000 
-3.22282e+01 -6.00747e+01        00000 
-2.89544e+01 -5.96796e+01        00000 
-2.57417e+01 -5.93240e+01        00000 
-2.25838e+01 -5.90077e+01        00000 
-1.94743e+01 -5.87309e+01        00000 
-1.64069e+01 -5.84935e+01        00000 
-1.33751e+01 -5.82955e+01        00000 
-1.03726e+01 -5.81370e+01        00000 
-7.39285e+00 -5.80181e+01        00000 
-4.42941e+00 -5.79388e+01        00000 
-1.47574e+00 -5.78992e+01        00000 
 1.47466e+00 -5.78992e+01        00000 
 4.42833e+00 -5.79389e+01        00000 
 7.39179e+00 -5.80183e+01        00000 
 1.03715e+01 -5.81372e+01        00000 
 1.33741e+01 -5.82957e+01        00000 
 1.64058e+01 -5.84938e+01        00000 
 1.94733e+01 -5.87312e+01        00000 
 2.25828e+01 -5.90081e+01        00000 
 2.57408e+01 -5.93244e+01        00000 
 2.89536e+01 -5.96801e+01        00000 
 3.22274e+01 -6.00752e+01        00000 
 3.55685e+01 -6.05100e+01        00000 
 3.89832e+01 -6.09844e+01        00000 
 4.24777e+01 -6.14988e+01        00000 
 4.60582e+01 -6.20533e+01        00000 
-4.85321e+01 -6.94793e+01        00000 
-4.47791e+01 -6.89576e+01        00000 
-4.11127e+01 -6.84739e+01        00000 
-3.75268e+01 -6.80279e+01        00000 
-3.40149e+01 -6.76193e+01        00000 
-3.05707e+01 -6.72480e+01        00000 
-2.71878e+01 -6.69138e+01        00000 
-2.38598e+01 -6.66168e+01        00000 
-2.05803e+01 -6.63568e+01        00000 
-1.73429e+01 -6.61338e+01        00000 
-1.41412e+01 -6.59479e+01        00000 
-1.09685e+01 -6.57991e+01        00000 
-7.81863e+00 -6.56875e+01        00000 
-4.68491e+00 -6.56131e+01        00000 
-1.56093e+00 -6.55759e+01        00000 
 1.55982e+00 -6.55759e+01        00000 
 4.68381e+00 -6.56132e+01        00000 
 7.81753e+00 -6.56877e+01        00000 
 1.09675e+01 -6.57994e+01        00000 
 1.41401e+01 -6.59482e+01        00000 
 1.73419e+01 -6.61341e+01        00000 
 2.05793e+01 -6.63572e+01        00000 
 2.38588e+01 -6.66172e+01        00000 
 2.71868e+01 -6.69143e+01        00000 
 3.05698e+01 -6.72485e+01        00000 
 3.40140e+01 -6.76199e+01        00000 
 3.75260e+01 -6.80286e+01        00000 
 4.11120e+01 -6.84747e+01        00000 
 4.47784e+01 -6.89585e+01        00000 
 4.85315e+01 -6.94802e+01        00000 
-5.08542e+01 -7.72416e+01        00000 
-4.69388e+01 -7.67530e+01        00000 
-4.31108e+01 -7.63001e+01        00000 
-3.93638e+01 -7.58825e+01        00000 
-3.56913e+01 -7.55001e+01        00000 
-3.20870e+01 -7.51525e+01        00000 
-2.85443e+01 -7.48397e+01        00000 
-2.50568e+01 -7.45616e+01        00000 
-2.16178e+01 -7.43181e+01        00000 
-1.82210e+01 -7.41093e+01        00000 
-1.48597e+01 -7.39352e+01        00000 
-1.15276e+01 -7.37958e+01        00000 
-8.21801e+00 -7.36912e+01        00000 
-4.92459e+00 -7.36214e+01        00000 
-1.64083e+00 -7.35866e+01        00000 
 1.63970e+00 -7.35866e+01        00000 
 4.92346e+00 -7.36216e+01        00000 
 8.21690e+00 -7.36914e+01        00000 
 1.15265e+01 -7.37961e+01        00000 
 1.48587e+01 -7.39355e+01        00000 
 1.82199e+01 -7.41097e+01        00000 
 2.16168e+01 -7.43186e+01        00000 
 2.50558e+01 -7.45621e+01        00000 
 2.85434e+01 -7.48403e+01        00000 
 3.20861e+01 -7.51532e+01        00000 
 3.56905e+01 -7.55008e+01        00000 
 3.93630e+01 -7.58834e+01        00000 
 4.31101e+01 -7.63010e+01        00000 
 4.69382e+01 -7.67540e+01        00000 
 5.08536e+01 -7.72427e+01        00000 
-5.30240e+01 -8.53192e+01        00000 
-4.89565e+01 -8.48640e+01        00000 
-4.49771e+01 -8.44421e+01        00000 
-4.10795e+01 -8.40532e+01        00000 
-3.72571e+01 -8.36969e+01        00000 
-3.35033e+01 -8.33730e+01        00000 
-2.98115e+01 -8.30813e+01        00000 
-2.61751e+01 -8.28219e+01        00000 
-2.25873e+01 -8.25946e+01        00000 
-1.90416e+01 -8.23996e+01        00000 
-1.55315e+01 -8.22368e+01        00000 
-1.20502e+01 -8.21064e+01        00000 
-8.59147e+00 -8.20085e+01        00000 
-5.14871e+00 -8.19432e+01        00000 
-1.71556e+00 -8.19106e+01        00000 
 1.71441e+00 -8.19106e+01        00000 
 5.14757e+00 -8.19433e+01        00000 