<?xml version="1.0" encoding="utf-8"?>
<VTKFile byte_order="LittleEndian" type="UnstructuredGrid" version="0.1">
   <UnstructuredGrid>
      <Piece NumberOfCells="3364" NumberOfPoints="1741">
         <Points>
            <DataArray Name="Points" NumberOfComponents="3" format="ascii" type="Float32">
0.0000 1.0000 0.0000
0.0000 1.0345 0.0000
0.0000 1.0690 0.0000
0.0000 1.1034 0.0000
0.0000 1.1379 0.0000
0.0000 1.1724 0.0000
0.0000 1.2069 0.0000
0.0000 1.2414 0.0000
0.0000 1.2759 0.0000
0.0000 1.3103 0.0000
0.0000 1.3448 0.0000
0.0000 1.3793 0.0000
0.0000 1.4138 0.0000
0.0000 1.4483 0.0000
0.0000 1.4828 0.0000
0.0000 1.5172 0.0000
0.0000 1.5517 0.0000
0.0000 1.5862 0.0000
0.0000 1.6207 0.0000
0.0000 1.6552 0.0000
0.0000 1.6897 0.0000
0.0000 1.7241 0.0000
0.0000 1.7586 0.0000
0.0000 1.7931 0.0000
0.0000 1.8276 0.0000
0.0000 1.8621 0.0000
0.0000 1.8966 0.0000
0.0000 1.9310 0.0000
0.0000 1.9655 0.0000
0.0000 2.0000 0.0000
0.0690 1.0000 0.0000
0.0690 1.0345 0.0000
0.0690 1.0690 0.0000
0.0690 1.1034 0.0000
0.0690 1.1379 0.0000
0.0690 1.1724 0.0000
0.0690 1.2069 0.0000
0.0690 1.2414 0.0000
0.0690 1.2759 0.0000
0.0690 1.3103 0.0000
0.0690 1.3448 0.0000
0.0690 1.3793 0.0000
0.0690 1.4138 0.0000
0.0690 1.4483 0.0000
0.0690 1.4828 0.0000
0.0690 1.5172 0.0000
0.0690 1.5517 0.0000
0.0690 1.5862 0.0000
0.0690 1.6207 0.0000
0.0690 1.6552 0.0000
0.0690 1.6897 0.0000
0.0690 1.7241 0.0000
0.0690 1.7586 0.0000
0.0690 1.7931 0.0000
0.0690 1.8276 0.0000
0.0690 1.8621 0.0000
0.0690 1.8966 0.0000
0.0690 1.9310 0.0000
0.0690 1.9655 0.0000
0.0690 2.0000 0.0000
0.1379 1.0000 0.0000
0.1379 1.0345 0.0000
0.1379 1.0690 0.0000
0.1379 1.1034 0.0000
0.1379 1.1379 0.0000
0.1379 1.1724 0.0000
0.1379 1.2069 0.0000
0.1379 1.2414 0.0000
0.1379 1.2759 0.0000
0.1379 1.3103 0.0000
0.1379 1.3448 0.0000
0.1379 1.3793 0.0000
0.1379 1.4138 0.0000
0.1379 1.4483 0.0000
0.1379 1.4828 0.0000
0.1379 1.5172 0.0000
0.1379 1.5517 0.0000
0.1379 1.5862 0.0000
0.1379 1.6207 0.0000
0.1379 1.6552 0.0000
0.1379 1.6897 0.0000
0.1379 1.7241 0.0000
0.1379 1.7586 0.0000
0.1379 1.7931 0.0000
0.1379 1.8276 0.0000
0.1379 1.8621 0.0000
0.1379 1.8966 0.0000
0.1379 1.9310 0.0000
0.1379 1.9655 0.0000
0.1379 2.0000 0.0000
0.2069 1.0000 0.0000
0.2069 1.0345 0.0000
0.2069 1.0690 0.0000
0.2069 1.1034 0.0000
0.2069 1.1379 0.0000
0.2069 1.1724 0.0000
0.2069 1.2069 0.0000
0.2069 1.2414 0.0000
0.2069 1.2759 0.0000
0.2069 1.3103 0.0000
0.2069 1.3448 0.0000
0.2069 1.3793 0.0000
0.2069 1.4138 0.0000
0.2069 1.4483 0.0000
0.2069 1.4828 0.0000
0.2069 1.5172 0.0000
0.2069 1.5517 0.0000
0.2069 1.5862 0.0000
0.2069 1.6207 0.0000
0.2069 1.6552 0.0000
0.2069 1.6897 0.0000
0.2069 1.7241 0.0000
0.2069 1.7586 0.0000
0.2069 1.7931 0.0000
0.2069 1.8276 0.0000
0.2069 1.8621 0.0000
0.2069 1.8966 0.0000
0.2069 1.9310 0.0000
0.2069 1.9655 0.0000
0.2069 2.0000 0.0000
0.2759 1.0000 0.0000
0.2759 1.0345 0.0000
0.2759 1.0690 0.0000
0.2759 1.1034 0.0000
0.2759 1.1379 0.0000
0.2759 1.1724 0.0000
0.2759 1.2069 0.0000
0.2759 1.2414 0.0000
0.2759 1.2759 0.0000
0.2759 1.3103 0.0000
0.2759 1.3448 0.0000
0.2759 1.3793 0.0000
0.2759 1.4138 0.0000
0.2759 1.4483 0.0000
0.2759 1.4828 0.0000
0.2759 1.5172 0.0000
0.2759 1.5517 0.0000
0.2759 1.5862 0.0000
0.2759 1.6207 0.0000
0.2759 1.6552 0.0000
0.2759 1.6897 0.0000
0.2759 1.7241 0.0000
0.2759 1.7586 0.0000
0.2759 1.7931 0.0000
0.2759 1.8276 0.0000
0.2759 1.8621 0.0000
0.2759 1.8966 0.0000
0.2759 1.9310 0.0000
0.2759 1.9655 0.0000
0.2759 2.0000 0.0000
0.3448 1.0000 0.0000
0.3448 1.0345 0.0000
0.3448 1.0690 0.0000
0.3448 1.1034 0.0000
0.3448 1.1379 0.0000
0.3448 1.1724 0.0000
0.3448 1.2069 0.0000
0.3448 1.2414 0.0000
0.3448 1.2759 0.0000
0.3448 1.3103 0.0000
0.3448 1.3448 0.0000
0.3448 1.3793 0.0000
0.3448 1.4138 0.0000
0.3448 1.4483 0.0000
0.3448 1.4828 0.0000
0.3448 1.5172 0.0000
0.3448 1.5517 0.0000
0.3448 1.5862 0.0000
0.3448 1.6207 0.0000
0.3448 1.6552 0.0000
0.3448 1.6897 0.0000
0.3448 1.7241 0.0000
0.3448 1.7586 0.0000
0.3448 1.7931 0.0000
0.3448 1.8276 0.0000
0.3448 1.8621 0.0000
0.3448 1.8966 0.0000
0.3448 1.9310 0.0000
0.3448 1.9655 0.0000
0.3448 2.0000 0.0000
0.4138 1.0000 0.0000
0.4138 1.0345 0.0000
0.4138 1.0690 0.0000
0.4138 1.1034 0.0000
0.4138 1.1379 0.0000
0.4138 1.1724 0.0000
0.4138 1.2069 0.0000
0.4138 1.2414 0.0000
0.4138 1.2759 0.0000
0.4138 1.3103 0.0000
0.4138 1.3448 0.0000
0.4138 1.3793 0.0000
0.4138 1.4138 0.0000
0.4138 1.4483 0.0000
0.4138 1.4828 0.0000
0.4138 1.5172 0.0000
0.4138 1.5517 0.0000
0.4138 1.5862 0.0000
0.4138 1.6207 0.0000
0.4138 1.6552 0.0000
0.4138 1.6897 0.0000
0.4138 1.7241 0.0000
0.4138 1.7586 0.0000
0.4138 1.7931 0.0000
0.4138 1.8276 0.0000
0.4138 1.8621 0.0000
0.4138 1.8966 0.0000
0.4138 1.9310 0.0000
0.4138 1.9655 0.0000
0.4138 2.0000 0.0000
0.4828 1.0000 0.0000
0.4828 1.0345 0.0000
0.4828 1.0690 0.0000
0.4828 1.1034 0.0000
0.4828 1.1379 0.0000
0.4828 1.1724 0.0000
0.4828 1.2069 0.0000
0.4828 1.2414 0.0000
0.4828 1.2759 0.0000
0.4828 1.3103 0.0000
0.4828 1.3448 0.0000
0.4828 1.3793 0.0000
0.4828 1.4138 0.0000
0.4828 1.4483 0.0000
0.4828 1.4828 0.0000
0.4828 1.5172 0.0000
0.4828 1.5517 0.0000
0.4828 1.5862 0.0000
0.4828 1.6207 0.0000
0.4828 1.6552 0.0000
0.4828 1.6897 0.0000
0.4828 1.7241 0.0000
0.4828 1.7586 0.0000
0.4828 1.7931 0.0000
0.4828 1.8276 0.0000
0.4828 1.8621 0.0000
0.4828 1.8966 0.0000
0.4828 1.9310 0.0000
0.4828 1.9655 0.0000
0.4828 2.0000 0.0000
0.5517 1.0000 0.0000
0.5517 1.0345 0.0000
0.5517 1.0690 0.0000
0.5517 1.1034 0.0000
0.5517 1.1379 0.0000
0.5517 1.1724 0.0000
0.5517 1.2069 0.0000
0.5517 1.2414 0.0000
0.5517 1.2759 0.0000
0.5517 1.3103 0.0000
0.5517 1.3448 0.0000
0.5517 1.3793 0.0000
0.5517 1.4138 0.0000
0.5517 1.4483 0.0000
0.5517 1.4828 0.0000
0.5517 1.5172 0.0000
0.5517 1.5517 0.0000
0.5517 1.5862 0.0000
0.5517 1.6207 0.0000
0.5517 1.6552 0.0000
0.5517 1.6897 0.0000
0.5517 1.7241 0.0000
0.5517 1.7586 0.0000
0.5517 1.7931 0.0000
0.5517 1.8276 0.0000
0.5517 1.8621 0.0000
0.5517 1.8966 0.0000
0.5517 1.9310 0.0000
0.5517 1.9655 0.0000
0.5517 2.0000 0.0000
0.6207 1.0000 0.0000
0.6207 1.0345 0.0000
0.6207 1.0690 0.0000
0.6207 1.1034 0.0000
0.6207 1.1379 0.0000
0.6207 1.1724 0.0000
0.6207 1.2069 0.0000
0.6207 1.2414 0.0000
0.6207 1.2759 0.0000
0.6207 1.3103 0.0000
0.6207 1.3448 0.0000
0.6207 1.3793 0.0000
0.6207 1.4138 0.0000
0.6207 1.4483 0.0000
0.6207 1.4828 0.0000
0.6207 1.5172 0.0000
0.6207 1.5517 0.0000
0.6207 1.5862 0.0000
0.6207 1.6207 0.0000
0.6207 1.6552 0.0000
0.6207 1.6897 0.0000
0.6207 1.7241 0.0000
0.6207 1.7586 0.0000
0.6207 1.7931 0.0000
0.6207 1.8276 0.0000
0.6207 1.8621 0.0000
0.6207 1.8966 0.0000
0.6207 1.9310 0.0000
0.6207 1.9655 0.0000
0.6207 2.0000 0.0000
0.6897 1.0000 0.0000
0.6897 1.0345 0.0000
0.6897 1.0690 0.0000
0.6897 1.1034 0.0000
0.6897 1.1379 0.0000
0.6897 1.1724 0.0000
0.6897 1.2069 0.0000
0.6897 1.2414 0.0000
0.6897 1.2759 0.0000
0.6897 1.3103 0.0000
0.6897 1.3448 0.0000
0.6897 1.3793 0.0000
0.6897 1.4138 0.0000
0.6897 1.4483 0.0000
0.6897 1.4828 0.0000
0.6897 1.5172 0.0000
0.6897 1.5517 0.0000
0.6897 1.5862 0.0000
0.6897 1.6207 0.0000
0.6897 1.6552 0.0000
0.6897 1.6897 0.0000
0.6897 1.7241 0.0000
0.6897 1.7586 0.0000
0.6897 1.7931 0.0000
0.6897 1.8276 0.0000
0.6897 1.8621 0.0000
0.6897 1.8966 0.0000
0.6897 1.9310 0.0000
0.6897 1.9655 0.0000
0.6897 2.0000 0.0000
0.7586 1.0000 0.0000
0.7586 1.0345 0.0000
0.7586 1.0690 0.0000
0.7586 1.1034 0.0000
0.7586 1.1379 0.0000
0.7586 1.1724 0.0000
0.7586 1.2069 0.0000
0.7586 1.2414 0.0000
0.7586 1.2759 0.0000
0.7586 1.3103 0.0000
0.7586 1.3448 0.0000
0.7586 1.3793 0.0000
0.7586 1.4138 0.0000
0.7586 1.4483 0.0000
0.7586 1.4828 0.0000
0.7586 1.5172 0.0000
0.7586 1.5517 0.0000
0.7586 1.5862 0.0000
0.7586 1.6207 0.0000
0.7586 1.6552 0.0000
0.7586 1.6897 0.0000
0.7586 1.7241 0.0000
0.7586 1.7586 0.0000
0.7586 1.7931 0.0000
0.7586 1.8276 0.0000
0.7586 1.8621 0.0000
0.7586 1.8966 0.0000
0.7586 1.9310 0.0000
0.7586 1.9655 0.0000
0.7586 2.0000 0.0000
0.8276 1.0000 0.0000
0.8276 1.0345 0.0000
0.8276 1.0690 0.0000
0.8276 1.1034 0.0000
0.8276 1.1379 0.0000
0.8276 1.1724 0.0000
0.8276 1.2069 0.0000
0.8276 1.2414 0.0000
0.8276 1.2759 0.0000
0.8276 1.3103 0.0000
0.8276 1.3448 0.0000
0.8276 1.3793 0.0000
0.8276 1.4138 0.0000
0.8276 1.4483 0.0000
0.8276 1.4828 0.0000
0.8276 1.5172 0.0000
0.8276 1.5517 0.0000
0.8276 1.5862 0.0000
0.8276 1.6207 0.0000
0.8276 1.6552 0.0000
0.8276 1.6897 0.0000
0.8276 1.7241 0.0000
0.8276 1.7586 0.0000
0.8276 1.7931 0.0000
0.8276 1.8276 0.0000
0.8276 1.8621 0.0000
0.8276 1.8966 0.0000
0.8276 1.9310 0.0000
0.8276 1.9655 0.0000
0.8276 2.0000 0.0000
0.8966 1.0000 0.0000
0.8966 1.0345 0.0000
0.8966 1.0690 0.0000
0.8966 1.1034 0.0000
0.8966 1.1379 0.0000
0.8966 1.1724 0.0000
0.8966 1.2069 0.0000
0.8966 1.2414 0.0000
0.8966 1.2759 0.0000
0.8966 1.3103 0.0000
0.8966 1.3448 0.0000
0.8966 1.3793 0.0000
0.8966 1.4138 0.0000
0.8966 1.4483 0.0000
0.8966 1.4828 0.0000
0.8966 1.5172 0.0000
0.8966 1.5517 0.0000
0.8966 1.5862 0.0000
0.8966 1.6207 0.0000
0.8966 1.6552 0.0000
0.8966 1.6897 0.0000
0.8966 1.7241 0.0000
0.8966 1.7586 0.0000
0.8966 1.7931 0.0000
0.8966 1.8276 0.0000
0.8966 1.8621 0.0000
0.8966 1.8966 0.0000
0.8966 1.9310 0.0000
0.8966 1.9655 0.0000
0.8966 2.0000 0.0000
0.9655 1.0000 0.0000
0.9655 1.0345 0.0000
0.9655 1.0690 0.0000
0.9655 1.1034 0.0000
0.9655 1.1379 0.0000
0.9655 1.1724 0.0000
0.9655 1.2069 0.0000
0.9655 1.2414 0.0000
0.9655 1.2759 0.0000
0.9655 1.3103 0.0000
0.9655 1.3448 0.0000
0.9655 1.3793 0.0000
0.9655 1.4138 0.0000
0.9655 1.4483 0.0000
0.9655 1.4828 0.0000
0.9655 1.5172 0.0000
0.9655 1.5517 0.0000
0.9655 1.5862 0.0000
0.9655 1.6207 0.0000
0.9655 1.6552 0.0000
0.9655 1.6897 0.0000
0.9655 1.7241 0.0000
0.9655 1.7586 0.0000
0.9655 1.7931 0.0000
0.9655 1.8276 0.0000
0.9655 1.8621 0.0000
0.9655 1.8966 0.0000
0.9655 1.9310 0.0000
0.9655 1.9655 0.0000
0.9655 2.0000 0.0000
1.0345 1.0000 0.0000
1.0345 1.0345 0.0000
1.0345 1.0690 0.0000
1.0345 1.1034 0.0000
1.0345 1.1379 0.0000
1.0345 1.1724 0.0000
1.0345 1.2069 0.0000
1.0345 1.2414 0.0000
1.0345 1.2759 0.0000
1.0345 1.3103 0.0000
1.0345 1.3448 0.0000
[...]
         <PointData>
            <DataArray Name="fValues" NumberOfComponents="3" format="ascii" type="Float64">
       00000 -9.96769e-17        00000 
       00000 -9.41983e-17        00000 
 5.12327e-16  1.51369e-16        00000 
-3.33555e-16  1.75555e-17        00000 
-2.32876e-17 -1.39726e-16        00000 
 2.83995e-16 -2.65750e-17        00000 
-1.16438e-16  6.98628e-17        00000 
 1.44833e-16 -1.35324e-16        00000 
-6.98628e-17        00000        00000 
 5.52427e-17 -1.41777e-17        00000 
-4.65752e-17 -2.32876e-17        00000 
 3.38309e-17  1.82870e-18        00000 
 2.03767e-17 -8.73285e-18        00000 
-4.87546e-18  1.18843e-17        00000 
 1.16438e-17 -2.03767e-17        00000 
-1.28009e-17  4.71804e-17        00000 
 2.32876e-17 -1.45548e-17        00000 
-6.03299e-17 -1.56116e-17        00000 
 1.28082e-16 -2.03767e-17        00000 
-3.36480e-17  2.56018e-18        00000 
 1.16438e-17  1.16438e-17        00000 
 3.85501e-16 -6.57373e-17        00000 
-2.32876e-16  1.04794e-16        00000 
-2.70647e-17 -3.65740e-19        00000 
 2.09588e-16  3.49314e-17        00000 
-2.12322e-17 -8.26117e-17        00000 
-3.95889e-16  1.63013e-16        00000 
 5.99466e-16 -2.12525e-16        00000 
-5.28465e-17 -9.98213e-17        00000 
 6.29344e-16 -4.67950e-16        00000 
-3.61530e+00 -2.96297e+00        00000 
-2.70043e+00 -2.20325e+00        00000 
-2.26477e+00 -1.69042e+00        00000 
-1.96316e+00 -1.32725e+00        00000 
-1.72207e+00 -1.05734e+00        00000 
-1.51374e+00 -8.50050e-01        00000 
-1.32532e+00 -6.87405e-01        00000 
-1.14994e+00 -5.58220e-01        00000 
-9.83595e-01 -4.55174e-01        00000 
-8.23713e-01 -3.73296e-01        00000 
-6.68550e-01 -3.09122e-01        00000 
-5.16833e-01 -2.60211e-01        00000 
-3.67580e-01 -2.24847e-01        00000 
-2.19983e-01 -2.01867e-01        00000 
-7.33430e-02 -1.90544e-01        00000 
 7.29848e-02 -1.90531e-01        00000 
 2.19626e-01 -2.01828e-01        00000 
 3.67225e-01 -2.24783e-01        00000 
 5.16481e-01 -2.60121e-01        00000 
 6.68201e-01 -3.09007e-01        00000 
 8.23369e-01 -3.73154e-01        00000 
 9.83256e-01 -4.55006e-01        00000 
 1.14961e+00 -5.58025e-01        00000 
 1.32499e+00 -6.87182e-01        00000 
 1.51342e+00 -8.49798e-01        00000 
 1.72175e+00 -1.05706e+00        00000 
 1.96285e+00 -1.32693e+00        00000 
 2.26445e+00 -1.69006e+00        00000 
 2.70008e+00 -2.20284e+00        00000 
 3.61484e+00 -2.96250e+00        00000 
-6.44917e+00 -4.73439e+00        00000 
-5.58572e+00 -4.13571e+00        00000 
-4.82069e+00 -3.54228e+00        00000 
-4.20688e+00 -3.03197e+00        00000 
-3.68979e+00 -2.60767e+00        00000 
-3.23588e+00 -2.25792e+00        00000 
-2.82490e+00 -1.97036e+00        00000 
-2.44415e+00 -1.73451e+00        00000 
-2.08528e+00 -1.54207e+00        00000 
-1.74255e+00 -1.38665e+00        00000 
-1.41180e+00 -1.26338e+00        00000 
-1.08990e+00 -1.16862e+00        00000 
-7.74364e-01 -1.09968e+00        00000 
-4.63117e-01 -1.05470e+00        00000 
-1.54351e-01 -1.03249e+00        00000 
 1.53602e-01 -1.03247e+00        00000 
 4.62370e-01 -1.05464e+00        00000 
 7.73621e-01 -1.09957e+00        00000 
 1.08917e+00 -1.16846e+00        00000 
 1.41107e+00 -1.26318e+00        00000 
 1.74183e+00 -1.38641e+00        00000 
 2.08457e+00 -1.54178e+00        00000 
 2.44345e+00 -1.73417e+00        00000 
 2.82421e+00 -1.96998e+00        00000 
 3.23521e+00 -2.25749e+00        00000 
 3.68913e+00 -2.60719e+00        00000 
 4.20623e+00 -3.03145e+00        00000 
 4.82003e+00 -3.54172e+00        00000 
 5.58504e+00 -4.13510e+00        00000 
 6.44845e+00 -4.73376e+00        00000 
-9.16021e+00 -6.58527e+00        00000 
-8.21166e+00 -5.98970e+00        00000 
-7.31773e+00 -5.42979e+00        00000 
-6.49177e+00 -4.90861e+00        00000 
-5.74209e+00 -4.44164e+00        00000 
-5.05705e+00 -4.03336e+00        00000 
-4.42347e+00 -3.68215e+00        00000 
-3.83013e+00 -3.38394e+00        00000 
-3.26812e+00 -3.13407e+00        00000 
-2.73040e+00 -2.92811e+00        00000 
-2.21141e+00 -2.76221e+00        00000 
-1.70658e+00 -2.63317e+00        00000 
-1.21213e+00 -2.53850e+00        00000 
-7.24767e-01 -2.47638e+00        00000 
-2.41525e-01 -2.44560e+00        00000 
 2.40363e-01 -2.44557e+00        00000 
 7.23608e-01 -2.47630e+00        00000 
 1.21098e+00 -2.53837e+00        00000 
 1.70544e+00 -2.63298e+00        00000 
 2.21027e+00 -2.76197e+00        00000 
 2.72928e+00 -2.92782e+00        00000 
 3.26701e+00 -3.13372e+00        00000 
 3.82905e+00 -3.38354e+00        00000 
 4.42241e+00 -3.68170e+00        00000 
 5.05601e+00 -4.03286e+00        00000 
 5.74107e+00 -4.44109e+00        00000 
 6.49078e+00 -4.90802e+00        00000 
 7.31676e+00 -5.42917e+00        00000 
 8.21071e+00 -5.98906e+00        00000 
 9.15930e+00 -6.58462e+00        00000 
-1.18275e+01 -8.64226e+00        00000 
-1.07436e+01 -8.06343e+00        00000 
-9.70081e+00 -7.51812e+00        00000 
-8.70799e+00 -7.01092e+00        00000 
-7.76838e+00 -6.54520e+00        00000 
-6.88185e+00 -6.12533e+00        00000 
-6.04350e+00 -5.75338e+00        00000 
-5.24668e+00 -5.42935e+00        00000 
-4.48461e+00 -5.15191e+00        00000 
-3.75102e+00 -4.91914e+00        00000 
-3.04026e+00 -4.72895e+00        00000 
-2.34731e+00 -4.57938e+00        00000 
-1.66769e+00 -4.46873e+00        00000 
-9.97316e-01 -4.39571e+00        00000 
-3.32370e-01 -4.35941e+00        00000 
 3.30785e-01 -4.35938e+00        00000 
 9.95735e-01 -4.39563e+00        00000 
 1.66612e+00 -4.46860e+00        00000 
 2.34575e+00 -4.57919e+00        00000 
 3.03871e+00 -4.72871e+00        00000 
 3.74950e+00 -4.91885e+00        00000 
 4.48312e+00 -5.15157e+00        00000 
 5.24521e+00 -5.42896e+00        00000 
 6.04206e+00 -5.75296e+00        00000 
 6.88045e+00 -6.12486e+00        00000 
 7.76702e+00 -6.54470e+00        00000 
 8.70669e+00 -7.01039e+00        00000 
 9.69957e+00 -7.51758e+00        00000 
 1.07424e+01 -8.06289e+00        00000 
 1.18264e+01 -8.64173e+00        00000 
-1.44457e+01 -1.09970e+01        00000 
-1.32058e+01 -1.04307e+01        00000 
-1.20049e+01 -9.90094e+00        00000 
-1.08466e+01 -9.40805e+00        00000 
-9.73314e+00 -8.95385e+00        00000 
-8.66423e+00 -8.54012e+00        00000 
-7.63787e+00 -8.16854e+00        00000 
-6.65037e+00 -7.84008e+00        00000 
-5.69711e+00 -7.55493e+00        00000 
-4.77313e+00 -7.31272e+00        00000 
-3.87344e+00 -7.11273e+00        00000 
-2.99323e+00 -6.95409e+00        00000 
-2.12788e+00 -6.83597e+00        00000 
-1.27300e+00 -6.75764e+00        00000 
-4.24315e-01 -6.71859e+00        00000 
 4.22309e-01 -6.71857e+00        00000 
 1.27100e+00 -6.75757e+00        00000 
 2.12589e+00 -6.83585e+00        00000 
 2.99125e+00 -6.95393e+00        00000 
 3.87149e+00 -7.11253e+00        00000 
 4.77121e+00 -7.31248e+00        00000 
 5.69523e+00 -7.55466e+00        00000 
 6.64853e+00 -7.83977e+00        00000 
 7.63608e+00 -8.16821e+00        00000 
 8.66250e+00 -8.53976e+00        00000 
 9.73147e+00 -8.95347e+00        00000 
 1.08450e+01 -9.40767e+00        00000 
 1.20034e+01 -9.90057e+00        00000 
 1.32044e+01 -1.04304e+01        00000 
 1.44444e+01 -1.09967e+01        00000 
-1.70095e+01 -1.36783e+01        00000 
-1.56043e+01 -1.31260e+01        00000 
-1.42392e+01 -1.26110e+01        00000 
-1.29151e+01 -1.21332e+01        00000 
-1.16323e+01 -1.16930e+01        00000 
-1.03899e+01 -1.12910e+01        00000 
-9.18618e+00 -1.09283e+01        00000 
-8.01840e+00 -1.06057e+01        00000 
-6.88306e+00 -1.03236e+01        00000 
-5.77615e+00 -1.00823e+01        00000 
-4.69338e+00 -9.88181e+00        00000 
-3.63034e+00 -9.72187e+00        00000 
-2.58258e+00 -9.60225e+00        00000 
-1.54570e+00 -9.52267e+00        00000 
-5.15318e-01 -9.48294e+00        00000 
 5.12904e-01 -9.48292e+00        00000 
 1.54329e+00 -9.52263e+00        00000 
 2.58019e+00 -9.60218e+00        00000 
 3.62797e+00 -9.72178e+00        00000 
 4.69104e+00 -9.88169e+00        00000 
 5.77385e+00 -1.00822e+01        00000 
 6.88080e+00 -1.03235e+01        00000 
 8.01620e+00 -1.06055e+01        00000 
 9.18405e+00 -1.09282e+01        00000 
 1.03878e+01 -1.12908e+01        00000 
 1.16303e+01 -1.16928e+01        00000 
 1.29133e+01 -1.21331e+01        00000 
 1.42375e+01 -1.26109e+01        00000 
 1.56027e+01 -1.31259e+01        00000 
 1.70080e+01 -1.36783e+01        00000 
-1.95111e+01 -1.66978e+01        00000 
-1.79378e+01 -1.61604e+01        00000 
-1.64067e+01 -1.56607e+01        00000 
-1.49169e+01 -1.51981e+01        00000 
-1.34673e+01 -1.47726e+01        00000 
-1.20563e+01 -1.43843e+01        00000 
-1.06818e+01 -1.40336e+01        00000 
-9.34131e+00 -1.37211e+01        00000 
-8.03159e+00 -1.34471e+01        00000 
-6.74910e+00 -1.32121e+01        00000 
-5.48999e+00 -1.30161e+01        00000 
-4.25016e+00 -1.28593e+01        00000 
-3.02542e+00 -1.27418e+01        00000 
-1.81148e+00 -1.26634e+01        00000 
-6.04040e-01 -1.26243e+01        00000 
 6.01240e-01 -1.26243e+01        00000 
 1.80869e+00 -1.26634e+01        00000 
 3.02264e+00 -1.27418e+01        00000 
 4.24741e+00 -1.28593e+01        00000 
 5.48728e+00 -1.30161e+01        00000 
 6.74645e+00 -1.32120e+01        00000 
 8.02899e+00 -1.34471e+01        00000 
 9.33878e+00 -1.37211e+01        00000 
 1.06794e+01 -1.40336e+01        00000 
 1.20539e+01 -1.43843e+01        00000 
 1.34650e+01 -1.47727e+01        00000 
 1.49148e+01 -1.51983e+01        00000 
 1.64047e+01 -1.56609e+01        00000 
 1.79360e+01 -1.61607e+01        00000 
 1.95095e+01 -1.66981e+01        00000 
-2.19441e+01 -2.00566e+01        00000 
-2.02034e+01 -1.95351e+01        00000 
-1.85071e+01 -1.90512e+01        00000 
-1.68530e+01 -1.86040e+01        00000 
-1.52392e+01 -1.81934e+01        00000 
-1.36635e+01 -1.78193e+01        00000 
-1.21234e+01 -1.74817e+01        00000 
-1.06162e+01 -1.71809e+01        00000 
-9.13855e+00 -1.69171e+01        00000 
-7.68721e+00 -1.66906e+01        00000 
-6.25845e+00 -1.65016e+01        00000 
-4.84840e+00 -1.63502e+01        00000 
-3.45303e+00 -1.62366e+01        00000 
-2.06821e+00 -1.61608e+01        00000 
-6.89751e-01 -1.61229e+01        00000 
 6.86594e-01 -1.61229e+01        00000 
 2.06507e+00 -1.61608e+01        00000 
 3.44991e+00 -1.62366e+01        00000 
 4.84531e+00 -1.63503e+01        00000 
 6.25540e+00 -1.65017e+01        00000 
 7.68422e+00 -1.66907e+01        00000 
 9.13563e+00 -1.69173e+01        00000 
 1.06133e+01 -1.71811e+01        00000 
 1.21207e+01 -1.74820e+01        00000 
 1.36609e+01 -1.78196e+01        00000 
 1.52367e+01 -1.81938e+01        00000 
 1.68506e+01 -1.86045e+01        00000 
 1.85049e+01 -1.90517e+01        00000 
 2.02015e+01 -1.95357e+01        00000 
 2.19423e+01 -2.00573e+01        00000 
-2.43034e+01 -2.37503e+01        00000 
-2.23981e+01 -2.32457e+01        00000 
-2.05389e+01 -2.27779e+01        00000 
-1.87233e+01 -2.23465e+01        00000 
-1.69486e+01 -2.19510e+01        00000 
-1.52122e+01 -2.15912e+01        00000 
-1.35112e+01 -2.12670e+01        00000 
-1.18425e+01 -2.09783e+01        00000 
-1.02029e+01 -2.07254e+01        00000 
-8.58892e+00 -2.05083e+01        00000 
-6.99702e+00 -2.03271e+01        00000 
-5.42336e+00 -2.01820e+01        00000 
-3.86402e+00 -2.00732e+01        00000 
-2.31497e+00 -2.00005e+01        00000 
-7.72128e-01 -1.99642e+01        00000 
 7.68647e-01 -1.99642e+01        00000 
 2.31150e+00 -2.00006e+01        00000 
 3.86057e+00 -2.00733e+01        00000 
 5.41995e+00 -2.01822e+01        00000 
 6.99367e+00 -2.03274e+01        00000 
 8.58563e+00 -2.05086e+01        00000 
 1.01997e+01 -2.07258e+01        00000 
 1.18393e+01 -2.09788e+01        00000 
 1.35082e+01 -2.12675e+01        00000 
 1.52093e+01 -2.15918e+01        00000 
 1.69459e+01 -2.19518e+01        00000 
 1.87208e+01 -2.23474e+01        00000 
 2.05365e+01 -2.27789e+01        00000 
 2.23959e+01 -2.32467e+01        00000 
 2.43015e+01 -2.37514e+01        00000 
-2.65849e+01 -2.77718e+01        00000 
-2.45188e+01 -2.72847e+01        00000 
-2.25005e+01 -2.68338e+01        00000 
-2.05270e+01 -2.64184e+01        00000 
-1.85954e+01 -2.60381e+01        00000 
-1.67026e+01 -2.56926e+01        00000 
-1.48453e+01 -2.53818e+01        00000 
-1.30205e+01 -2.51054e+01        00000 
-1.12245e+01 -2.48634e+01        00000 
-9.45407e+00 -2.46559e+01        00000 
-7.70536e+00 -2.44828e+01        00000 
-5.97463e+00 -2.43443e+01        00000 
-4.25799e+00 -2.42404e+01        00000 
-2.55149e+00 -2.41711e+01        00000 
-8.51075e-01 -2.41365e+01        00000 
 8.47306e-01 -2.41365e+01        00000 
 2.54773e+00 -2.41712e+01        00000 
 4.25427e+00 -2.42406e+01        00000 
 5.97095e+00 -2.43446e+01        00000 
 7.70173e+00 -2.44832e+01        00000 
 9.45052e+00 -2.46564e+01        00000 
 1.12211e+01 -2.48640e+01        00000 
 1.30171e+01 -2.51061e+01        00000 
 1.48421e+01 -2.53826e+01        00000 
 1.66995e+01 -2.56936e+01        00000 
 1.85925e+01 -2.60392e+01        00000 
 2.05243e+01 -2.64196e+01        00000 
 2.24979e+01 -2.68351e+01        00000 
 2.45164e+01 -2.72862e+01        00000 
 2.65828e+01 -2.77734e+01        00000 
-2.87853e+01 -3.21124e+01        00000 
-2.65628e+01 -3.16435e+01        00000 
-2.43898e+01 -3.12098e+01        00000 
-2.22629e+01 -3.08107e+01        00000 
-2.01789e+01 -3.04459e+01        00000 
-1.81344e+01 -3.01148e+01        00000 
-1.61260e+01 -2.98173e+01        00000 
-1.41504e+01 -2.95531e+01        00000 
-1.22039e+01 -2.93221e+01        00000 
-1.02829e+01 -2.91241e+01        00000 
-8.38360e+00 -2.89591e+01        00000 
-6.50228e+00 -2.88272e+01        00000 
-4.63499e+00 -2.87282e+01        00000 
-2.77776e+00 -2.86623e+01        00000 
-9.26588e-01 -2.86293e+01        00000 
 9.22571e-01 -2.86294e+01        00000 
 2.77376e+00 -2.86625e+01        00000 
 4.63102e+00 -2.87286e+01        00000 
 6.49836e+00 -2.88276e+01        00000 
 8.37974e+00 -2.89597e+01        00000 
 1.02791e+01 -2.91248e+01        00000 
 1.22002e+01 -2.93229e+01        00000 
 1.41468e+01 -2.95541e+01        00000 
 1.61226e+01 -2.98185e+01        00000 
 1.81311e+01 -3.01161e+01        00000 
 2.01758e+01 -3.04473e+01        00000 
 2.22600e+01 -3.08123e+01        00000 
 2.43871e+01 -3.12116e+01        00000 
 2.65604e+01 -3.16454e+01        00000 
 2.87831e+01 -3.21145e+01        00000 
-3.09018e+01 -3.67624e+01        00000 
-2.85279e+01 -3.63123e+01        00000 
-2.62050e+01 -3.58963e+01        00000 
-2.39295e+01 -3.55140e+01        00000 
-2.16980e+01 -3.51648e+01        00000 
-1.95070e+01 -3.48483e+01        00000 
-1.73530e+01 -3.45642e+01        00000 
-1.52321e+01 -3.43121e+01        00000 
-1.31409e+01 -3.40919e+01        00000 
-1.10754e+01 -3.39034e+01        00000 
-9.03193e+00 -3.37464e+01        00000 
-7.00648e+00 -3.36210e+01        00000 
-4.99512e+00 -3.35269e+01        00000 
-2.99387e+00 -3.34643e+01        00000 
-9.98693e-01 -3.34330e+01        00000 
 9.94467e-01 -3.34331e+01        00000 
 2.98966e+00 -3.34645e+01        00000 
 4.99095e+00 -3.35273e+01        00000 
 7.00235e+00 -3.36215e+01        00000 
 9.02788e+00 -3.37472e+01        00000 
 1.10715e+01 -3.39043e+01        00000 
 1.31370e+01 -3.40930e+01        00000 
 1.52284e+01 -3.43134e+01        00000 
 1.73494e+01 -3.45656e+01        00000 
 1.95036e+01 -3.48499e+01        00000 
 2.16948e+01 -3.51666e+01        00000 
 2.39265e+01 -3.55160e+01        00000 
 2.62022e+01 -3.58985e+01        00000 
 2.85253e+01 -3.63147e+01        00000 
 3.08995e+01 -3.67651e+01        00000 
-3.29317e+01 -4.17118e+01        00000 
-3.04115e+01 -4.12810e+01        00000 
-2.79439e+01 -4.08832e+01        00000 
-2.55251e+01 -4.05180e+01        00000 
-2.31516e+01 -4.01848e+01        00000 
-2.08197e+01 -3.98830e+01        00000 
-1.85255e+01 -3.96124e+01        00000 
-1.62654e+01 -3.93726e+01        00000 
-1.40355e+01 -3.91632e+01        00000 
-1.18318e+01 -3.89840e+01        00000 
-9.65038e+00 -3.88350e+01        00000 
-7.48729e+00 -3.87159e+01        00000 
-5.33848e+00 -3.86266e+01        00000 
-3.19988e+00 -3.85672e+01        00000 
-1.06741e+00 -3.85375e+01        00000 
 1.06302e+00 -3.85377e+01        00000 
 3.19550e+00 -3.85675e+01        00000 
 5.33414e+00 -3.86271e+01        00000 
 7.48301e+00 -3.87166e+01        00000 
 9.64617e+00 -3.88359e+01        00000 
 1.18277e+01 -3.89852e+01        00000 
 1.40315e+01 -3.91645e+01        00000 
 1.62616e+01 -3.93741e+01        00000 
 1.85218e+01 -3.96142e+01        00000 
 2.08161e+01 -3.98851e+01        00000 
 2.31483e+01 -4.01870e+01        00000 
 2.55220e+01 -4.05205e+01        00000 
 2.79410e+01 -4.08859e+01        00000 
 3.04089e+01 -4.12839e+01        00000 
 3.29293e+01 -4.17151e+01        00000 
-3.48724e+01 -4.69501e+01        00000 
-3.22113e+01 -4.65391e+01        00000 
-2.96044e+01 -4.61601e+01        00000 
-2.70479e+01 -4.58125e+01        00000 
-2.45381e+01 -4.54956e+01        00000 
-2.20710e+01 -4.52089e+01        00000 
-1.96429e+01 -4.49519e+01        00000 
-1.72496e+01 -4.47243e+01        00000 
-1.48872e+01 -4.45257e+01        00000 
-1.25517e+01 -4.43559e+01        00000 
-1.02389e+01 -4.42146e+01        00000 
-7.94471e+00 -4.41018e+01        00000 
-5.66506e+00 -4.40173e+01        00000 
-3.39580e+00 -4.39610e+01        00000 
-1.13275e+00 -4.39329e+01        00000 
 1.12823e+00 -4.39331e+01        00000 
 3.39129e+00 -4.39614e+01        00000 
 5.66060e+00 -4.40179e+01        00000 
 7.94030e+00 -4.41026e+01        00000 
 1.02345e+01 -4.42157e+01        00000 
 1.25474e+01 -4.43572e+01        00000 
 1.48831e+01 -4.45273e+01        00000 
 1.72456e+01 -4.47261e+01        00000 
 1.96391e+01 -4.49540e+01        00000 
 2.20674e+01 -4.52113e+01        00000 
 2.45347e+01 -4.54982e+01        00000 
 2.70447e+01 -4.58154e+01        00000 
 2.96014e+01 -4.61634e+01        00000 
 3.22086e+01 -4.65426e+01        00000 
 3.48700e+01 -4.69539e+01        00000 
-3.67211e+01 -5.24666e+01        00000 
-3.39246e+01 -5.20762e+01        00000 
-3.11841e+01 -5.17165e+01        00000 
-2.84958e+01 -5.13869e+01        00000 
-2.58557e+01 -5.10867e+01        00000 
-2.32597e+01 -5.08153e+01        00000 
-2.07039e+01 -5.05721e+01        00000 
-1.81839e+01 -5.03568e+01        00000 
-1.56956e+01 -5.01690e+01        00000 
-1.32348e+01 -5.00084e+01        00000 
-1.07972e+01 -4.98748e+01        00000 
-8.37865e+00 -4.97682e+01        00000 
-5.97487e+00 -4.96882e+01        00000 
-3.58163e+00 -4.96350e+01        00000 
-1.19471e+00 -4.96085e+01        00000 
 1.19011e+00 -4.96087e+01        00000 
 3.57704e+00 -4.96355e+01        00000 
 5.97032e+00 -4.96890e+01        00000 
 8.37416e+00 -4.97692e+01        00000 
 1.07928e+01 -4.98761e+01        00000 
 1.32305e+01 -5.00100e+01        00000 
 1.56914e+01 -5.01709e+01        00000 
 1.81798e+01 -5.03590e+01        00000 
 2.07000e+01 -5.05746e+01        00000 
 2.32561e+01 -5.08181e+01        00000 
 2.58522e+01 -5.10898e+01        00000 
 2.84925e+01 -5.13903e+01        00000 
 3.11811e+01 -5.17202e+01        00000 
 3.39219e+01 -5.20802e+01        00000 
 3.67186e+01 -5.24710e+01        00000 
-3.84745e+01 -5.82504e+01        00000 
-3.55483e+01 -5.78812e+01        00000 
-3.26803e+01 -5.75416e+01        00000 
-2.98664e+01 -5.72306e+01        00000 
-2.71024e+01 -5.69475e+01        00000 
-2.43842e+01 -5.66917e+01        00000 
-2.17073e+01 -5.64625e+01        00000 
-1.90674e+01 -5.62595e+01        00000 
-1.64600e+01 -5.60823e+01        00000 
-1.38808e+01 -5.59308e+01        00000 
-1.13253e+01 -5.58047e+01        00000 
-8.78911e+00 -5.57040e+01        00000 
-6.26793e+00 -5.56285e+01        00000 
-3.75743e+00 -5.55782e+01        00000 
-1.25332e+00 -5.55531e+01        00000 
 1.24866e+00 -5.55533e+01        00000 
 3.75279e+00 -5.55787e+01        00000 