<?xml version="1.0" encoding="utf-8"?>
<VTKFile byte_order="LittleEndian" type="UnstructuredGrid" version="0.1">
   <UnstructuredGrid>
      <Piece NumberOfCells="3364" NumberOfPoints="1741">
         <Points>
            <DataArray Name="Points" NumberOfComponents="3" format="ascii" type="Float32">
0.0000 1.0000 0.0000
0.0000 1.0345 0.0000
0.0000 1.0690 0.0000
0.0000 1.1034 0.0000
0.0000 1.1379 0.0000
0.0000 1.1724 0.0000
0.0000 1.2069 0.0000
0.0000 1.2414 0.0000
0.0000 1.2759 0.0000
0.0000 1.3103 0.0000
0.0000 1.3448 0.0000
0.0000 1.3793 0.0000
0.0000 1.4138 0.0000
0.0000 1.4483 0.0000
0.0000 1.4828 0.0000
0.0000 1.5172 0.0000
0.0000 1.5517 0.0000
0.0000 1.5862 0.0000
0.0000 1.6207 0.0000
0.0000 1.6552 0.0000
0.0000 1.6897 0.0000
0.0000 1.7241 0.0000
0.0000 1.7586 0.0000
0.0000 1.7931 0.0000
0.0000 1.8276 0.0000
0.0000 1.8621 0.0000
0.0000 1.8966 0.0000
0.0000 1.9310 0.0000
0.0000 1.9655 0.0000
0.0000 2.0000 0.0000
0.0690 1.0000 0.0000
0.0690 1.0345 0.0000
0.0690 1.0690 0.0000
0.0690 1.1034 0.0000
0.0690 1.1379 0.0000
0.0690 1.1724 0.0000
0.0690 1.2069 0.0000
0.0690 1.2414 0.0000
0.0690 1.2759 0.0000
0.0690 1.3103 0.0000
0.0690 1.3448 0.0000
0.0690 1.3793 0.0000
0.0690 1.4138 0.0000
0.0690 1.4483 0.0000
0.0690 1.4828 0.0000
0.0690 1.5172 0.0000
0.0690 1.5517 0.0000
0.0690 1.5862 0.0000
0.0690 1.6207 0.0000
0.0690 1.6552 0.0000
0.0690 1.6897 0.0000
0.0690 1.7241 0.0000
0.0690 1.7586 0.0000
0.0690 1.7931 0.0000
0.0690 1.8276 0.0000
0.0690 1.8621 0.0000
0.0690 1.8966 0.0000
0.0690 1.9310 0.0000
0.0690 1.9655 0.0000
0.0690 2.0000 0.0000
0.1379 1.0000 0.0000
0.1379 1.0345 0.0000
0.1379 1.0690 0.0000
0.1379 1.1034 0.0000
0.1379 1.1379 0.0000
0.1379 1.1724 0.0000
0.1379 1.2069 0.0000
0.1379 1.2414 0.0000
0.1379 1.2759 0.0000
0.1379 1.3103 0.0000
0.1379 1.3448 0.0000
0.1379 1.3793 0.0000
0.1379 1.4138 0.0000
0.1379 1.4483 0.0000
0.1379 1.4828 0.0000
0.1379 1.5172 0.0000
0.1379 1.5517 0.0000
0.1379 1.5862 0.0000
0.1379 1.6207 0.0000
0.1379 1.6552 0.0000
0.1379 1.6897 0.0000
0.1379 1.7241 0.0000
0.1379 1.7586 0.0000
0.1379 1.7931 0.0000
0.1379 1.8276 0.0000
0.1379 1.8621 0.0000
0.1379 1.8966 0.0000
0.1379 1.9310 0.0000
0.1379 1.9655 0.0000
0.1379 2.0000 0.0000
0.2069 1.0000 0.0000
0.2069 1.0345 0.0000
0.2069 1.0690 0.0000
0.2069 1.1034 0.0000
0.2069 1.1379 0.0000
0.2069 1.1724 0.0000
0.2069 1.2069 0.0000
0.2069 1.2414 0.0000
0.2069 1.2759 0.0000
0.2069 1.3103 0.0000
0.2069 1.3448 0.0000
0.2069 1.3793 0.0000
0.2069 1.4138 0.0000
0.2069 1.4483 0.0000
0.2069 1.4828 0.0000
0.2069 1.5172 0.0000
0.2069 1.5517 0.0000
0.2069 1.5862 0.0000
0.2069 1.6207 0.0000
0.2069 1.6552 0.0000
0.2069 1.6897 0.0000
0.2069 1.7241 0.0000
0.2069 1.7586 0.0000
0.2069 1.7931 0.0000
0.2069 1.8276 0.0000
0.2069 1.8621 0.0000
0.2069 1.8966 0.0000
0.2069 1.9310 0.0000
0.2069 1.9655 0.0000
0.2069 2.0000 0.0000
0.2759 1.0000 0.0000
0.2759 1.0345 0.0000
0.2759 1.0690 0.0000
0.2759 1.1034 0.0000
0.2759 1.1379 0.0000
0.2759 1.1724 0.0000
0.2759 1.2069 0.0000
0.2759 1.2414 0.0000
0.2759 1.2759 0.0000
0.2759 1.3103 0.0000
0.2759 1.3448 0.0000
0.2759 1.3793 0.0000
0.2759 1.4138 0.0000
0.2759 1.4483 0.0000
0.2759 1.4828 0.0000
0.2759 1.5172 0.0000
0.2759 1.5517 0.0000
0.2759 1.5862 0.0000
0.2759 1.6207 0.0000
0.2759 1.6552 0.0000
0.2759 1.6897 0.0000
0.2759 1.7241 0.0000
0.2759 1.7586 0.0000
0.2759 1.7931 0.0000
0.2759 1.8276 0.0000
0.2759 1.8621 0.0000
0.2759 1.8966 0.0000
0.2759 1.9310 0.0000
0.2759 1.9655 0.0000
0.2759 2.0000 0.0000
0.3448 1.0000 0.0000
0.3448 1.0345 0.0000
0.3448 1.0690 0.0000
0.3448 1.1034 0.0000
0.3448 1.1379 0.0000
0.3448 1.1724 0.0000
0.3448 1.2069 0.0000
0.3448 1.2414 0.0000
0.3448 1.2759 0.0000
0.3448 1.3103 0.0000
0.3448 1.3448 0.0000
0.3448 1.3793 0.0000
0.3448 1.4138 0.0000
0.3448 1.4483 0.0000
0.3448 1.4828 0.0000
0.3448 1.5172 0.0000
0.3448 1.5517 0.0000
0.3448 1.5862 0.0000
0.3448 1.6207 0.0000
0.3448 1.6552 0.0000
0.3448 1.6897 0.0000
0.3448 1.7241 0.0000
0.3448 1.7586 0.0000
0.3448 1.7931 0.0000
0.3448 1.8276 0.0000
0.3448 1.8621 0.0000
0.3448 1.8966 0.0000
0.3448 1.9310 0.0000
0.3448 1.9655 0.0000
0.3448 2.0000 0.0000
0.4138 1.0000 0.0000
0.4138 1.0345 0.0000
0.4138 1.0690 0.0000
0.4138 1.1034 0.0000
0.4138 1.1379 0.0000
0.4138 1.1724 0.0000
0.4138 1.2069 0.0000
0.4138 1.2414 0.0000
0.4138 1.2759 0.0000
0.4138 1.3103 0.0000
0.4138 1.3448 0.0000
0.4138 1.3793 0.0000
0.4138 1.4138 0.0000
0.4138 1.4483 0.0000
0.4138 1.4828 0.0000
0.4138 1.5172 0.0000
0.4138 1.5517 0.0000
0.4138 1.5862 0.0000
0.4138 1.6207 0.0000
0.4138 1.6552 0.0000
0.4138 1.6897 0.0000
0.4138 1.7241 0.0000
0.4138 1.7586 0.0000
0.4138 1.7931 0.0000
0.4138 1.8276 0.0000
0.4138 1.8621 0.0000
0.4138 1.8966 0.0000
0.4138 1.9310 0.0000
0.4138 1.9655 0.0000
0.4138 2.0000 0.0000
0.4828 1.0000 0.0000
0.4828 1.0345 0.0000
0.4828 1.0690 0.0000
0.4828 1.1034 0.0000
0.4828 1.1379 0.0000
0.4828 1.1724 0.0000
0.4828 1.2069 0.0000
0.4828 1.2414 0.0000
0.4828 1.2759 0.0000
0.4828 1.3103 0.0000
0.4828 1.3448 0.0000
0.4828 1.3793 0.0000
0.4828 1.4138 0.0000
0.4828 1.4483 0.0000
0.4828 1.4828 0.0000
0.4828 1.5172 0.0000
0.4828 1.5517 0.0000
0.4828 1.5862 0.0000
0.4828 1.6207 0.0000
0.4828 1.6552 0.0000
0.4828 1.6897 0.0000
0.4828 1.7241 0.0000
0.4828 1.7586 0.0000
0.4828 1.7931 0.0000
0.4828 1.8276 0.0000
0.4828 1.8621 0.0000
0.4828 1.8966 0.0000
0.4828 1.9310 0.0000
0.4828 1.9655 0.0000
0.4828 2.0000 0.0000
0.5517 1.0000 0.0000
0.5517 1.0345 0.0000
0.5517 1.0690 0.0000
0.5517 1.1034 0.0000
0.5517 1.1379 0.0000
0.5517 1.1724 0.0000
0.5517 1.2069 0.0000
0.5517 1.2414 0.0000
0.5517 1.2759 0.0000
0.5517 1.3103 0.0000
0.5517 1.3448 0.0000
0.5517 1.3793 0.0000
0.5517 1.4138 0.0000
0.5517 1.4483 0.0000
0.5517 1.4828 0.0000
0.5517 1.5172 0.0000
0.5517 1.5517 0.0000
0.5517 1.5862 0.0000
0.5517 1.6207 0.0000
0.5517 1.6552 0.0000
0.5517 1.6897 0.0000
0.5517 1.7241 0.0000
0.5517 1.7586 0.0000
0.5517 1.7931 0.0000
0.5517 1.8276 0.0000
0.5517 1.8621 0.0000
0.5517 1.8966 0.0000
0.5517 1.9310 0.0000
0.5517 1.9655 0.0000
0.5517 2.0000 0.0000
0.6207 1.0000 0.0000
0.6207 1.0345 0.0000
0.6207 1.0690 0.0000
0.6207 1.1034 0.0000
0.6207 1.1379 0.0000
0.6207 1.1724 0.0000
0.6207 1.2069 0.0000
0.6207 1.2414 0.0000
0.6207 1.2759 0.0000
0.6207 1.3103 0.0000
0.6207 1.3448 0.0000
0.6207 1.3793 0.0000
0.6207 1.4138 0.0000
0.6207 1.4483 0.0000
0.6207 1.4828 0.0000
0.6207 1.5172 0.0000
0.6207 1.5517 0.0000
0.6207 1.5862 0.0000
0.6207 1.6207 0.0000
0.6207 1.6552 0.0000
0.6207 1.6897 0.0000
0.6207 1.7241 0.0000
0.6207 1.7586 0.0000
0.6207 1.7931 0.0000
0.6207 1.8276 0.0000
0.6207 1.8621 0.0000
0.6207 1.8966 0.0000
0.6207 1.9310 0.0000
0.6207 1.9655 0.0000
0.6207 2.0000 0.0000
0.6897 1.0000 0.0000
0.6897 1.0345 0.0000
0.6897 1.0690 0.0000
0.6897 1.1034 0.0000
0.6897 1.1379 0.0000
0.6897 1.1724 0.0000
0.6897 1.2069 0.0000
0.6897 1.2414 0.0000
0.6897 1.2759 0.0000
0.6897 1.3103 0.0000
0.6897 1.3448 0.0000
0.6897 1.3793 0.0000
0.6897 1.4138 0.0000
0.6897 1.4483 0.0000
0.6897 1.4828 0.0000
0.6897 1.5172 0.0000
0.6897 1.5517 0.0000
0.6897 1.5862 0.0000
0.6897 1.6207 0.0000
0.6897 1.6552 0.0000
0.6897 1.6897 0.0000
0.6897 1.7241 0.0000
0.6897 1.7586 0.0000
0.6897 1.7931 0.0000
0.6897 1.8276 0.0000
0.6897 1.8621 0.0000
0.6897 1.8966 0.0000
0.6897 1.9310 0.0000
0.6897 1.9655 0.0000
0.6897 2.0000 0.0000
0.7586 1.0000 0.0000
0.7586 1.0345 0.0000
0.7586 1.0690 0.0000
0.7586 1.1034 0.0000
0.7586 1.1379 0.0000
0.7586 1.1724 0.0000
0.7586 1.2069 0.0000
0.7586 1.2414 0.0000
0.7586 1.2759 0.0000
0.7586 1.3103 0.0000
0.7586 1.3448 0.0000
0.7586 1.3793 0.0000
0.7586 1.4138 0.0000
0.7586 1.4483 0.0000
0.7586 1.4828 0.0000
0.7586 1.5172 0.0000
0.7586 1.5517 0.0000
0.7586 1.5862 0.0000
0.7586 1.6207 0.0000
0.7586 1.6552 0.0000
0.7586 1.6897 0.0000
0.7586 1.7241 0.0000
0.7586 1.7586 0.0000
0.7586 1.7931 0.0000
0.7586 1.8276 0.0000
0.7586 1.8621 0.0000
0.7586 1.8966 0.0000
0.7586 1.9310 0.0000
0.7586 1.9655 0.0000
0.7586 2.0000 0.0000
0.8276 1.0000 0.0000
0.8276 1.0345 0.0000
0.8276 1.0690 0.0000
0.8276 1.1034 0.0000
0.8276 1.1379 0.0000
0.8276 1.1724 0.0000
0.8276 1.2069 0.0000
0.8276 1.2414 0.0000
0.8276 1.2759 0.0000
0.8276 1.3103 0.0000
0.8276 1.3448 0.0000
0.8276 1.3793 0.0000
0.8276 1.4138 0.0000
0.8276 1.4483 0.0000
0.8276 1.4828 0.0000
0.8276 1.5172 0.0000
0.8276 1.5517 0.0000
0.8276 1.5862 0.0000
0.8276 1.6207 0.0000
0.8276 1.6552 0.0000
0.8276 1.6897 0.0000
0.8276 1.7241 0.0000
0.8276 1.7586 0.0000
0.8276 1.7931 0.0000
0.8276 1.8276 0.0000
0.8276 1.8621 0.0000
0.8276 1.8966 0.0000
0.8276 1.9310 0.0000
0.8276 1.9655 0.0000
0.8276 2.0000 0.0000
0.8966 1.0000 0.0000
0.8966 1.0345 0.0000
0.8966 1.0690 0.0000
0.8966 1.1034 0.0000
0.8966 1.1379 0.0000
0.8966 1.1724 0.0000
0.8966 1.2069 0.0000
0.8966 1.2414 0.0000
0.8966 1.2759 0.0000
0.8966 1.3103 0.0000
0.8966 1.3448 0.0000
0.8966 1.3793 0.0000
0.8966 1.4138 0.0000
0.8966 1.4483 0.0000
0.8966 1.4828 0.0000
0.8966 1.5172 0.0000
0.8966 1.5517 0.0000
0.8966 1.5862 0.0000
0.8966 1.6207 0.0000
0.8966 1.6552 0.0000
0.8966 1.6897 0.0000
0.8966 1.7241 0.0000
0.8966 1.7586 0.0000
0.8966 1.7931 0.0000
0.8966 1.8276 0.0000
0.8966 1.8621 0.0000
0.8966 1.8966 0.0000
0.8966 1.9310 0.0000
0.8966 1.9655 0.0000
0.8966 2.0000 0.0000
0.9655 1.0000 0.0000
0.9655 1.0345 0.0000
0.9655 1.0690 0.0000
0.9655 1.1034 0.0000
0.9655 1.1379 0.0000
0.9655 1.1724 0.0000
0.9655 1.2069 0.0000
0.9655 1.2414 0.0000
0.9655 1.2759 0.0000
0.9655 1.3103 0.0000
0.9655 1.3448 0.0000
0.9655 1.3793 0.0000
0.9655 1.4138 0.0000
0.9655 1.4483 0.0000
0.9655 1.4828 0.0000
0.9655 1.5172 0.0000
0.9655 1.5517 0.0000
0.9655 1.5862 0.0000
0.9655 1.6207 0.0000
0.9655 1.6552 0.0000
0.9655 1.6897 0.0000
0.9655 1.7241 0.0000
0.9655 1.7586 0.0000
0.9655 1.7931 0.0000
0.9655 1.8276 0.0000
0.9655 1.8621 0.0000
0.9655 1.8966 0.0000
0.9655 1.9310 0.0000
0.9655 1.9655 0.0000
0.9655 2.0000 0.0000
1.0345 1.0000 0.0000
1.0345 1.0345 0.0000
1.0345 1.0690 0.0000
1.0345 1.1034 0.0000
1.0345 1.1379 0.0000
1.0345 1.1724 0.0000
1.0345 1.2069 0.0000
1.0345 1.2414 0.0000
1.0345 1.2759 0.0000
1.0345 1.3103 0.0000
1.0345 1.3448 0.0000
[...]
         <PointData>
            <DataArray Name="fValues" NumberOfComponents="3" format="ascii" type="Float64">
-5.16455e-16 -2.34678e-16        00000 
 9.41983e-17 -4.70991e-17        00000 
-4.65752e-16 -1.16438e-17        00000 
 5.99813e-17 -7.24165e-17        00000 
 2.79451e-16 -4.65752e-17        00000 
-4.12065e-16 -1.09521e-16        00000 
-1.16438e-16  1.04794e-16        00000 
-6.43702e-17  3.58425e-17        00000 
 1.16438e-16  8.73285e-17        00000 
 5.87298e-18 -9.23159e-17        00000 
 1.16438e-17  1.74657e-17        00000 
 3.76712e-17  4.27915e-17        00000 
-5.82190e-17 -4.94862e-17        00000 
-1.39697e-18  1.14832e-17        00000 
-2.91095e-18 -6.11300e-17        00000 
 1.09722e-17  5.12036e-17        00000 
-2.32876e-17 -7.85957e-17        00000 
 8.97694e-17 -3.57311e-17        00000 
 9.89723e-17 -2.32876e-17        00000 
-2.12129e-16 -4.79119e-17        00000 
 1.86301e-16  3.49314e-17        00000 
 6.30096e-18 -1.17168e-16        00000 
 5.82190e-17  1.33904e-16        00000 
 5.99813e-17 -7.16850e-17        00000 
-4.65752e-17 -1.16438e-16        00000 
 2.42805e-16  2.88143e-17        00000 
-1.86301e-16  1.16438e-17        00000 
-2.00799e-16 -2.42571e-16        00000 
 7.92698e-16  2.11386e-16        00000 
-3.21401e-16  7.03799e-17        00000 
-3.91356e+00 -3.22220e+00        00000 
-2.91596e+00 -2.40157e+00        00000 
-2.44101e+00 -1.84931e+00        00000 
-2.11292e+00 -1.45940e+00        00000 
-1.85134e+00 -1.17045e+00        00000 
-1.62590e+00 -9.49094e-01        00000 
-1.42245e+00 -7.75819e-01        00000 
-1.23346e+00 -6.38471e-01        00000 
-1.05450e+00 -5.29111e-01        00000 
-8.82725e-01 -4.42350e-01        00000 
-7.16205e-01 -3.74438e-01        00000 
-5.53525e-01 -3.22733e-01        00000 
-3.93592e-01 -2.85382e-01        00000 
-2.35508e-01 -2.61125e-01        00000 
-7.84907e-02 -2.49179e-01        00000 
 7.81775e-02 -2.49167e-01        00000 
 2.35195e-01 -2.61091e-01        00000 
 3.93281e-01 -2.85326e-01        00000 
 5.53217e-01 -3.22655e-01        00000 
 7.15900e-01 -3.74337e-01        00000 
 8.82424e-01 -4.42226e-01        00000 
 1.05420e+00 -5.28964e-01        00000 
 1.23317e+00 -6.38301e-01        00000 
 1.42216e+00 -7.75624e-01        00000 
 1.62562e+00 -9.48874e-01        00000 
 1.85107e+00 -1.17020e+00        00000 
 2.11264e+00 -1.45912e+00        00000 
 2.44073e+00 -1.84900e+00        00000 
 2.91566e+00 -2.40122e+00        00000 
 3.91316e+00 -3.22179e+00        00000 
-6.97048e+00 -5.16290e+00        00000 
-6.02621e+00 -4.51845e+00        00000 
-5.19250e+00 -3.87998e+00        00000 
-4.52533e+00 -3.33181e+00        00000 
-3.96473e+00 -2.87686e+00        00000 
-3.47383e+00 -2.50254e+00        00000 
-3.03033e+00 -2.19531e+00        00000 
-2.62023e+00 -1.94374e+00        00000 
-2.23434e+00 -1.73877e+00        00000 
-1.86631e+00 -1.57345e+00        00000 
-1.51154e+00 -1.44247e+00        00000 
-1.16657e+00 -1.34187e+00        00000 
-8.28653e-01 -1.26874e+00        00000 
-4.95492e-01 -1.22105e+00        00000 
-1.65082e-01 -1.19751e+00        00000 
 1.64427e-01 -1.19749e+00        00000 
 4.94839e-01 -1.22099e+00        00000 
 8.28003e-01 -1.26864e+00        00000 
 1.16593e+00 -1.34173e+00        00000 
 1.51090e+00 -1.44229e+00        00000 
 1.86567e+00 -1.57323e+00        00000 
 2.23372e+00 -1.73852e+00        00000 
 2.61962e+00 -1.94345e+00        00000 
 3.02973e+00 -2.19498e+00        00000 
 3.47324e+00 -2.50217e+00        00000 
 3.96415e+00 -2.87645e+00        00000 
 4.52475e+00 -3.33135e+00        00000 
 5.19192e+00 -3.87949e+00        00000 
 6.02562e+00 -4.51792e+00        00000 
 6.96986e+00 -5.16234e+00        00000 
-9.88552e+00 -7.19026e+00        00000 
-8.84937e+00 -6.55074e+00        00000 
-7.87596e+00 -5.94969e+00        00000 
-6.97905e+00 -5.39054e+00        00000 
-6.16698e+00 -4.89002e+00        00000 
-5.42662e+00 -4.45291e+00        00000 
-4.74328e+00 -4.07733e+00        00000 
-4.10450e+00 -3.75880e+00        00000 
-3.50040e+00 -3.49219e+00        00000 
-2.92320e+00 -3.27265e+00        00000 
-2.36672e+00 -3.09595e+00        00000 
-1.82592e+00 -2.95862e+00        00000 
-1.29661e+00 -2.85793e+00        00000 
-7.75128e-01 -2.79187e+00        00000 
-2.58215e-01 -2.75916e+00        00000 
 2.57199e-01 -2.75914e+00        00000 
 7.74114e-01 -2.79180e+00        00000 
 1.29560e+00 -2.85781e+00        00000 
 1.82492e+00 -2.95846e+00        00000 
 2.36573e+00 -3.09574e+00        00000 
 2.92222e+00 -3.27239e+00        00000 
 3.49944e+00 -3.49189e+00        00000 
 4.10355e+00 -3.75845e+00        00000 
 4.74235e+00 -4.07694e+00        00000 
 5.42572e+00 -4.45247e+00        00000 
 6.16610e+00 -4.88954e+00        00000 
 6.97819e+00 -5.39003e+00        00000 
 7.87512e+00 -5.94915e+00        00000 
 8.84854e+00 -6.55018e+00        00000 
 9.88472e+00 -7.18970e+00        00000 
-1.27459e+01 -9.43813e+00        00000 
-1.15648e+01 -8.81811e+00        00000 
-1.04315e+01 -8.23397e+00        00000 
-9.35496e+00 -7.69077e+00        00000 
-8.33840e+00 -7.19220e+00        00000 
-7.38122e+00 -6.74298e+00        00000 
-6.47771e+00 -6.34530e+00        00000 
-5.62040e+00 -5.99910e+00        00000 
-4.80168e+00 -5.70290e+00        00000 
-4.01455e+00 -5.45455e+00        00000 
-3.25274e+00 -5.25176e+00        00000 
-2.51067e+00 -5.09236e+00        00000 
-1.78336e+00 -4.97449e+00        00000 
-1.06629e+00 -4.89672e+00        00000 
-3.55230e-01 -4.85807e+00        00000 
 3.53844e-01 -4.85805e+00        00000 
 1.06491e+00 -4.89665e+00        00000 
 1.78199e+00 -4.97437e+00        00000 
 2.50930e+00 -5.09219e+00        00000 
 3.25139e+00 -5.25155e+00        00000 
 4.01322e+00 -5.45430e+00        00000 
 4.80037e+00 -5.70260e+00        00000 
 5.61911e+00 -5.99876e+00        00000 
 6.47646e+00 -6.34493e+00        00000 
 7.38000e+00 -6.74257e+00        00000 
 8.33722e+00 -7.19176e+00        00000 
 9.35383e+00 -7.69031e+00        00000 
 1.04304e+01 -8.23349e+00        00000 
 1.15638e+01 -8.81763e+00        00000 
 1.27450e+01 -9.43767e+00        00000 
-1.55469e+01 -1.20039e+01        00000 
-1.41994e+01 -1.13987e+01        00000 
-1.28969e+01 -1.08324e+01        00000 
-1.16432e+01 -1.03055e+01        00000 
-1.04403e+01 -9.82005e+00        00000 
-9.28759e+00 -9.37795e+00        00000 
-8.18256e+00 -8.98100e+00        00000 
-7.12094e+00 -8.63025e+00        00000 
-6.09748e+00 -8.32588e+00        00000 
-5.10660e+00 -8.06745e+00        00000 
-4.14273e+00 -7.85414e+00        00000 
-3.20050e+00 -7.68500e+00        00000 
-2.27476e+00 -7.55909e+00        00000 
-1.36062e+00 -7.47561e+00        00000 
-4.53364e-01 -7.43401e+00        00000 
 4.51610e-01 -7.43399e+00        00000 
 1.35887e+00 -7.47555e+00        00000 
 2.27302e+00 -7.55899e+00        00000 
 3.19877e+00 -7.68486e+00        00000 
 4.14103e+00 -7.85397e+00        00000 
 5.10493e+00 -8.06724e+00        00000 
 6.09584e+00 -8.32564e+00        00000 
 7.11933e+00 -8.62998e+00        00000 
 8.18099e+00 -8.98071e+00        00000 
 9.28608e+00 -9.37763e+00        00000 
 1.04389e+01 -9.81973e+00        00000 
 1.16418e+01 -1.03052e+01        00000 
 1.28956e+01 -1.08321e+01        00000 
 1.41981e+01 -1.13984e+01        00000 
 1.55458e+01 -1.20036e+01        00000 
-1.82834e+01 -1.49175e+01        00000 
-1.67598e+01 -1.43285e+01        00000 
-1.52825e+01 -1.37792e+01        00000 
-1.38519e+01 -1.32695e+01        00000 
-1.24682e+01 -1.27998e+01        00000 
-1.11301e+01 -1.23709e+01        00000 
-9.83557e+00 -1.19840e+01        00000 
-8.58129e+00 -1.16398e+01        00000 
-7.36329e+00 -1.13389e+01        00000 
-6.17703e+00 -1.10816e+01        00000 
-5.01766e+00 -1.08679e+01        00000 
-3.88025e+00 -1.06974e+01        00000 
-2.75984e+00 -1.05699e+01        00000 
-1.65151e+00 -1.04851e+01        00000 
-5.50406e-01 -1.04427e+01        00000 
 5.48296e-01 -1.04427e+01        00000 
 1.64941e+00 -1.04850e+01        00000 
 2.75774e+00 -1.05698e+01        00000 
 3.87818e+00 -1.06973e+01        00000 
 5.01562e+00 -1.08677e+01        00000 
 6.17501e+00 -1.10815e+01        00000 
 7.36132e+00 -1.13388e+01        00000 
 8.57937e+00 -1.16397e+01        00000 
 9.83370e+00 -1.19838e+01        00000 
 1.11283e+01 -1.23708e+01        00000 
 1.24665e+01 -1.27996e+01        00000 
 1.38503e+01 -1.32694e+01        00000 
 1.52809e+01 -1.37791e+01        00000 
 1.67584e+01 -1.43284e+01        00000 
 1.82822e+01 -1.49174e+01        00000 
-2.09474e+01 -1.81904e+01        00000 
-1.92454e+01 -1.76186e+01        00000 
-1.75916e+01 -1.70868e+01        00000 
-1.59848e+01 -1.65944e+01        00000 
-1.44235e+01 -1.61412e+01        00000 
-1.29059e+01 -1.57276e+01        00000 
-1.14295e+01 -1.53541e+01        00000 
-9.99112e+00 -1.50212e+01        00000 
-8.58725e+00 -1.47293e+01        00000 
-7.21383e+00 -1.44789e+01        00000 
-5.86650e+00 -1.42701e+01        00000 
-4.54068e+00 -1.41031e+01        00000 
-3.23166e+00 -1.39779e+01        00000 
-1.93467e+00 -1.38945e+01        00000 
-6.44903e-01 -1.38528e+01        00000 
 6.42455e-01 -1.38528e+01        00000 
 1.93223e+00 -1.38945e+01        00000 
 3.22923e+00 -1.39779e+01        00000 
 4.53828e+00 -1.41031e+01        00000 
 5.86413e+00 -1.42701e+01        00000 
 7.21151e+00 -1.44789e+01        00000 
 8.58498e+00 -1.47293e+01        00000 
 9.98891e+00 -1.50212e+01        00000 
 1.14273e+01 -1.53541e+01        00000 
 1.29039e+01 -1.57277e+01        00000 
 1.44216e+01 -1.61413e+01        00000 
 1.59829e+01 -1.65945e+01        00000 
 1.75898e+01 -1.70870e+01        00000 
 1.92438e+01 -1.76189e+01        00000 
 2.09460e+01 -1.81907e+01        00000 
-2.35323e+01 -2.18228e+01        00000 
-2.16530e+01 -2.12694e+01        00000 
-1.98241e+01 -2.07555e+01        00000 
-1.80431e+01 -2.02805e+01        00000 
-1.63077e+01 -1.98441e+01        00000 
-1.46152e+01 -1.94464e+01        00000 
-1.29628e+01 -1.90875e+01        00000 
-1.13472e+01 -1.87675e+01        00000 
-9.76478e+00 -1.84869e+01        00000 
-8.21178e+00 -1.82460e+01        00000 
-6.68400e+00 -1.80448e+01        00000 
-5.17709e+00 -1.78838e+01        00000 
-3.68655e+00 -1.77629e+01        00000 
-2.20777e+00 -1.76822e+01        00000 
-7.36056e-01 -1.76419e+01        00000 
 7.33295e-01 -1.76419e+01        00000 
 2.20502e+00 -1.76823e+01        00000 
 3.68382e+00 -1.77629e+01        00000 
 5.17439e+00 -1.78838e+01        00000 
 6.68134e+00 -1.80449e+01        00000 
 8.20917e+00 -1.82461e+01        00000 
 9.76223e+00 -1.84871e+01        00000 
 1.13447e+01 -1.87677e+01        00000 
 1.29604e+01 -1.90877e+01        00000 
 1.46129e+01 -1.94467e+01        00000 
 1.63055e+01 -1.98445e+01        00000 
 1.80411e+01 -2.02809e+01        00000 
 1.98222e+01 -2.07559e+01        00000 
 2.16513e+01 -2.12699e+01        00000 
 2.35307e+01 -2.18235e+01        00000 
-2.60327e+01 -2.58093e+01        00000 
-2.39797e+01 -2.52750e+01        00000 
-2.19788e+01 -2.47795e+01        00000 
-2.00270e+01 -2.43222e+01        00000 
-1.81214e+01 -2.39028e+01        00000 
-1.62587e+01 -2.35211e+01        00000 
-1.44357e+01 -2.31770e+01        00000 
-1.26489e+01 -2.28706e+01        00000 
-1.08947e+01 -2.26020e+01        00000 
-9.16918e+00 -2.23714e+01        00000 
-7.46824e+00 -2.21789e+01        00000 
-5.78763e+00 -2.20248e+01        00000 
-4.12298e+00 -2.19090e+01        00000 
-2.46980e+00 -2.18319e+01        00000 
-8.23512e-01 -2.17933e+01        00000 
 8.20469e-01 -2.17933e+01        00000 
 2.46676e+00 -2.18319e+01        00000 
 4.11997e+00 -2.19092e+01        00000 
 5.78466e+00 -2.20249e+01        00000 
 7.46531e+00 -2.21791e+01        00000 
 9.16631e+00 -2.23716e+01        00000 
 1.08919e+01 -2.26023e+01        00000 
 1.26462e+01 -2.28710e+01        00000 
 1.44330e+01 -2.31775e+01        00000 
 1.62562e+01 -2.35216e+01        00000 
 1.81190e+01 -2.39035e+01        00000 
 2.00248e+01 -2.43229e+01        00000 
 2.19767e+01 -2.47803e+01        00000 
 2.39778e+01 -2.52759e+01        00000 
 2.60310e+01 -2.58103e+01        00000 
-2.84447e+01 -3.01412e+01        00000 
-2.62224e+01 -2.96267e+01        00000 
-2.40539e+01 -2.91501e+01        00000 
-2.19358e+01 -2.87109e+01        00000 
-1.98645e+01 -2.83085e+01        00000 
-1.78366e+01 -2.79428e+01        00000 
-1.58486e+01 -2.76135e+01        00000 
-1.38967e+01 -2.73206e+01        00000 
-1.19771e+01 -2.70642e+01        00000 
-1.00859e+01 -2.68441e+01        00000 
-8.21886e+00 -2.66606e+01        00000 
-6.37186e+00 -2.65137e+01        00000 
-4.54053e+00 -2.64034e+01        00000 
-2.72046e+00 -2.63299e+01        00000 
-9.07166e-01 -2.62931e+01        00000 
 9.03872e-01 -2.62932e+01        00000 
 2.71718e+00 -2.63300e+01        00000 
 4.53728e+00 -2.64036e+01        00000 
 6.36864e+00 -2.65140e+01        00000 
 8.21569e+00 -2.66610e+01        00000 
 1.00828e+01 -2.68446e+01        00000 
 1.19741e+01 -2.70647e+01        00000 
 1.38938e+01 -2.73213e+01        00000 
 1.58458e+01 -2.76142e+01        00000 
 1.78339e+01 -2.79436e+01        00000 
 1.98619e+01 -2.83094e+01        00000 
 2.19334e+01 -2.87119e+01        00000 
 2.40517e+01 -2.91513e+01        00000 
 2.62204e+01 -2.96280e+01        00000 
 2.84429e+01 -3.01426e+01        00000 
-3.07650e+01 -3.48081e+01        00000 
-2.83787e+01 -3.43142e+01        00000 
-2.60477e+01 -3.38569e+01        00000 
-2.37683e+01 -3.34359e+01        00000 
-2.15366e+01 -3.30508e+01        00000 
-1.93491e+01 -3.27011e+01        00000 
-1.72018e+01 -3.23866e+01        00000 
-1.50909e+01 -3.21072e+01        00000 
-1.30123e+01 -3.18628e+01        00000 
-1.09621e+01 -3.16533e+01        00000 
-8.93606e+00 -3.14787e+01        00000 
-6.92988e+00 -3.13389e+01        00000 
-4.93926e+00 -3.12341e+01        00000 
-2.95978e+00 -3.11643e+01        00000 
-9.87020e-01 -3.11293e+01        00000 
 9.83508e-01 -3.11294e+01        00000 
 2.95629e+00 -3.11644e+01        00000 
 4.93578e+00 -3.12344e+01        00000 
 6.92645e+00 -3.13393e+01        00000 
 8.93269e+00 -3.14792e+01        00000 
 1.09588e+01 -3.16539e+01        00000 
 1.30091e+01 -3.18636e+01        00000 
 1.50878e+01 -3.21081e+01        00000 
 1.71988e+01 -3.23876e+01        00000 
 1.93462e+01 -3.27022e+01        00000 
 2.15339e+01 -3.30520e+01        00000 
 2.37657e+01 -3.34373e+01        00000 
 2.60453e+01 -3.38585e+01        00000 
 2.83766e+01 -3.43159e+01        00000 
 3.07631e+01 -3.48100e+01        00000 
-3.29907e+01 -3.97990e+01        00000 
-3.04462e+01 -3.93260e+01        00000 
-2.79583e+01 -3.88886e+01        00000 
-2.55232e+01 -3.84862e+01        00000 
-2.31370e+01 -3.81184e+01        00000 
-2.07956e+01 -3.77848e+01        00000 
-1.84952e+01 -3.74852e+01        00000 
-1.62315e+01 -3.72192e+01        00000 
-1.40006e+01 -3.69867e+01        00000 
-1.17982e+01 -3.67876e+01        00000 
-9.62011e+00 -3.66217e+01        00000 
-7.46193e+00 -3.64891e+01        00000 
-5.31932e+00 -3.63897e+01        00000 
-3.18786e+00 -3.63234e+01        00000 
-1.06311e+00 -3.62903e+01        00000 
 1.05941e+00 -3.62904e+01        00000 
 3.18418e+00 -3.63236e+01        00000 
 5.31567e+00 -3.63900e+01        00000 
 7.45833e+00 -3.64896e+01        00000 
 9.61657e+00 -3.66224e+01        00000 
 1.17948e+01 -3.67884e+01        00000 
 1.39972e+01 -3.69877e+01        00000 
 1.62283e+01 -3.72203e+01        00000 
 1.84920e+01 -3.74865e+01        00000 
 2.07926e+01 -3.77863e+01        00000 
 2.31341e+01 -3.81200e+01        00000 
 2.55206e+01 -3.84880e+01        00000 
 2.79559e+01 -3.88905e+01        00000 
 3.04439e+01 -3.93281e+01        00000 
 3.29887e+01 -3.98013e+01        00000 
-3.51195e+01 -4.51020e+01        00000 
-3.24227e+01 -4.46505e+01        00000 
-2.97839e+01 -4.42333e+01        00000 
-2.71991e+01 -4.38499e+01        00000 
-2.46644e+01 -4.34998e+01        00000 
-2.21755e+01 -4.31825e+01        00000 
-1.97282e+01 -4.28977e+01        00000 
-1.73185e+01 -4.26451e+01        00000 
-1.49419e+01 -4.24245e+01        00000 
-1.25943e+01 -4.22356e+01        00000 
-1.02712e+01 -4.20784e+01        00000 
-7.96818e+00 -4.19527e+01        00000 
-5.68087e+00 -4.18585e+01        00000 
-3.40480e+00 -4.17958e+01        00000 
-1.13547e+00 -4.17645e+01        00000 
 1.13162e+00 -4.17646e+01        00000 
 3.40097e+00 -4.17961e+01        00000 
 5.67708e+00 -4.18590e+01        00000 
 7.96443e+00 -4.19534e+01        00000 
 1.02675e+01 -4.20792e+01        00000 
 1.25907e+01 -4.22366e+01        00000 
 1.49384e+01 -4.24256e+01        00000 
 1.73151e+01 -4.26465e+01        00000 
 1.97250e+01 -4.28992e+01        00000 
 2.21724e+01 -4.31842e+01        00000 
 2.46614e+01 -4.35017e+01        00000 
 2.71964e+01 -4.38521e+01        00000 
 2.97814e+01 -4.42357e+01        00000 
 3.24204e+01 -4.46531e+01        00000 
 3.51175e+01 -4.51048e+01        00000 
-3.71490e+01 -5.07050e+01        00000 
-3.43059e+01 -5.02756e+01        00000 
-3.15225e+01 -4.98791e+01        00000 
-2.87944e+01 -4.95151e+01        00000 
-2.61176e+01 -4.91829e+01        00000 
-2.34876e+01 -4.88821e+01        00000 
-2.09003e+01 -4.86122e+01        00000 
-1.83513e+01 -4.83730e+01        00000 
-1.58361e+01 -4.81642e+01        00000 
-1.33502e+01 -4.79855e+01        00000 
-1.08892e+01 -4.78368e+01        00000 
-8.44868e+00 -4.77180e+01        00000 
-6.02399e+00 -4.76290e+01        00000 
-3.61065e+00 -4.75697e+01        00000 
-1.20411e+00 -4.75401e+01        00000 
 1.20016e+00 -4.75402e+01        00000 
 3.60671e+00 -4.75700e+01        00000 
 6.02009e+00 -4.76295e+01        00000 
 8.44483e+00 -4.77187e+01        00000 
 1.08855e+01 -4.78378e+01        00000 
 1.33465e+01 -4.79867e+01        00000 
 1.58325e+01 -4.81656e+01        00000 
 1.83478e+01 -4.83747e+01        00000 
 2.08970e+01 -4.86141e+01        00000 
 2.34845e+01 -4.88841e+01        00000 
 2.61146e+01 -4.91852e+01        00000 
 2.87916e+01 -4.95176e+01        00000 
 3.15199e+01 -4.98819e+01        00000 
 3.43036e+01 -5.02786e+01        00000 
 3.71469e+01 -5.07083e+01        00000 
-3.90766e+01 -5.65958e+01        00000 
-3.60936e+01 -5.61890e+01        00000 
-3.31719e+01 -5.58138e+01        00000 
-3.03071e+01 -5.54695e+01        00000 
-2.74950e+01 -5.51556e+01        00000 
-2.47309e+01 -5.48715e+01        00000 
-2.20106e+01 -5.46167e+01        00000 
-1.93294e+01 -5.43910e+01        00000 
-1.66826e+01 -5.41939e+01        00000 
-1.40658e+01 -5.40252e+01        00000 
-1.14743e+01 -5.38849e+01        00000 
-8.90347e+00 -5.37728e+01        00000 
-6.34873e+00 -5.36887e+01        00000 
-3.80546e+00 -5.36328e+01        00000 
-1.26907e+00 -5.36049e+01        00000 
 1.26504e+00 -5.36050e+01        00000 
 3.80145e+00 -5.36332e+01        00000 
 6.34475e+00 -5.36894e+01        00000 
 8.89955e+00 -5.37736e+01        00000 
 1.14704e+01 -5.38860e+01        00000 
 1.40620e+01 -5.40266e+01        00000 
 1.66790e+01 -5.41955e+01        00000 
 1.93258e+01 -5.43929e+01        00000 
 2.20072e+01 -5.46189e+01        00000 
 2.47277e+01 -5.48739e+01        00000 
 2.74919e+01 -5.51583e+01        00000 
 3.03043e+01 -5.54725e+01        00000 
 3.31693e+01 -5.58170e+01        00000 
 3.60912e+01 -5.61925e+01        00000 
 3.90745e+01 -5.65996e+01        00000 
-4.08995e+01 -6.27619e+01        00000 
-3.77830e+01 -6.23783e+01        00000 
-3.47297e+01 -6.20250e+01        00000 
-3.17352e+01 -6.17010e+01        00000 
-2.87949e+01 -6.14057e+01        00000 
-2.59040e+01 -6.11385e+01        00000 
-2.30580e+01 -6.08989e+01        00000 
-2.02520e+01 -6.06865e+01        00000 
-1.74813e+01 -6.05010e+01        00000 
-1.47409e+01 -6.03423e+01        00000 
-1.20263e+01 -6.02101e+01        00000 
-9.33263e+00 -6.01044e+01        00000 
-6.65518e+00 -6.00251e+01        00000 
-3.98931e+00 -5.99724e+01        00000 
-1.33036e+00 -5.99460e+01        00000 
 1.32629e+00 -5.99462e+01        00000 
 3.98526e+00 -5.99728e+01        00000 